INSANE! Membrane UpperLeaflet>loPI:POPI:DPPI:PYPI:ERGO=180.0:5.0:3.0:2.0:10.0 LowerLeaflet>PSPI:POPI:POPS:YOPS:POPE:YOPE:POPC:YOPC:ERGO=6.0:14.0:21.0:9.0:9.0:21.0:12.0:48.0:60.0
48841
    1loPI    C1    1   9.870   2.476  11.012  0.1183 -0.4944  0.3170
    1loPI    C2    2   9.495   2.616  11.022  0.3687  0.2394  0.1208
    1loPI    C3    3   9.611   2.334  11.281 -0.3279 -0.0523  0.1372
    1loPI   PO4    4   9.915   2.471  10.729  0.1505 -0.4347  0.1944
    1loPI   GL1    5  10.212   2.626  10.353 -0.0177 -0.2630  0.0292
    1loPI   GL2    6  10.587   2.508  10.312  0.3956  0.0937 -0.3530
    1loPI   C1A    7   9.968   2.801  10.011 -0.1542  0.1894 -0.0334
    1loPI   C2A    8   9.938   3.025   9.655  0.1963  0.0237  0.1256
    1loPI   C3A    9   9.844   3.219   9.108 -0.0781 -0.0458 -0.0099
    1loPI   C4A   10   9.786   3.203   8.667 -0.2856  0.0423 -0.3812
    1loPI   C5A   11   9.873   3.412   8.398  0.0837 -0.1377  0.2460
    1loPI   C6A   12  10.216   3.856   8.349 -0.0423  0.1860 -0.2069
    1loPI   C1B   13  10.359   2.385   9.900  0.3969  0.2628  0.0933
    1loPI   C2B   14  10.298   2.537   9.535  0.1256  0.0293  0.2353
    1loPI   C3B   15  10.318   2.612   9.127  0.1007 -0.0595  0.2434
    1loPI   C4B   16  10.251   2.484   8.683 -0.0303 -0.2292 -0.3770
    2loPI    C1   17  15.239   2.091  10.823 -0.1100 -0.1601  0.0034
    2loPI    C2   18  15.616   1.990  10.911 -0.0516  0.0540  0.0049
    2loPI    C3   19  15.317   1.875  11.150  0.0217 -0.0429  0.0506
    2loPI   PO4   20  15.318   2.427  10.821 -0.1194 -0.1929 -0.3177
    2loPI   GL1   21  15.194   2.711  10.459  0.0187 -0.2120 -0.1995
    2loPI   GL2   22  15.434   2.961  10.379  0.0198 -0.0051 -0.1046
    2loPI   C1A   23  14.875   2.683  10.064  0.2762  0.0997 -0.1499
    2loPI   C2A   24  14.866   2.481   9.644  0.1726  0.1272  0.0053
    2loPI   C3A   25  15.034   2.276   9.283 -0.0995  0.1075 -0.1388
    2loPI   C4A   26  15.037   2.151   8.848 -0.1140  0.1317 -0.0987
    2loPI   C5A   27  14.840   1.908   8.469 -0.0762  0.1327 -0.0879
    2loPI   C6A   28  15.010   1.647   8.152 -0.2183  0.0784  0.3417
    2loPI   C1B   29  15.516   2.705   9.988 -0.2009 -0.2539  0.0817
    2loPI   C2B   30  15.351   2.646   9.580  0.0484 -0.1119 -0.0654
    2loPI   C3B   31  15.420   2.608   9.156  0.3626 -0.1411 -0.2104
    2loPI   C4B   32  15.510   2.599   8.682  0.1471  0.0400  0.0468
    3loPI    C1   33  15.569  16.581  10.757  0.0529 -0.1902 -0.1342
    3loPI    C2   34  15.805  16.388  11.017  0.1181 -0.0860 -0.1156
    3loPI    C3   35  15.616  16.184  10.729 -0.0217 -0.2145  0.0644
    3loPI   PO4   36  15.726  16.808  10.677 -0.0097  0.0503 -0.0898
    3loPI   GL1   37  15.678  16.830  10.233 -0.3129 -0.0318 -0.1118
    3loPI   GL2   38  15.717  16.553  10.202 -0.1364 -0.0119 -0.0918
    3loPI   C1A   39  15.685  16.890   9.758 -0.1126 -0.0260 -0.2077
    3loPI   C2A   40  15.762  16.843   9.260  0.0675  0.1085 -0.3284
    3loPI   C3A   41  15.602  16.762   8.822  0.0188 -0.1651 -0.0580
    3loPI   C4A   42  15.596  16.598   8.298  0.2466 -0.1904 -0.0625
    3loPI   C5A   43  15.389  16.610   7.931  0.3891  0.1611  0.0699
    3loPI   C6A   44  14.965  16.604   7.716  0.0995  0.0401 -0.1040
    3loPI   C1B   45  15.928  16.426   9.863  0.1679  0.0361  0.2558
    3loPI   C2B   46  16.101  16.523   9.457  0.1604  0.0747 -0.0212
    3loPI   C3B   47  16.231  16.629   9.007  0.0339  0.1771 -0.0061
    3loPI   C4B   48  16.235  16.567   8.605  0.2568 -0.0298 -0.0289
    4loPI    C1   49   4.863   6.360  10.530 -0.0254  0.1661  0.0815
    4loPI    C2   50   5.110   6.413  10.221  0.1509 -0.1764  0.1590
    4loPI    C3   51   5.194   6.580  10.575  0.1620 -0.1211  0.1304
    4loPI   PO4   52   4.552   6.417  10.478 -0.3254  0.2812 -0.1912
    4loPI   GL1   53   4.317   6.350  10.115 -0.4175  0.1884  0.0245
    4loPI   GL2   54   4.113   6.526   9.968 -0.0685 -0.0711  0.2102
    4loPI   C1A   55   4.392   6.402   9.621  0.0919 -0.1932  0.2656
    4loPI   C2A   56   4.342   6.640   9.133  0.2624  0.1241  0.0458
    4loPI   C3A   57   4.551   7.015   8.929  0.2998  0.0831  0.0897
    4loPI   C4A   58   4.495   7.289   8.728  0.1594  0.2895 -0.2660
    4loPI   C5A   59   4.519   7.497   8.319 -0.2160  0.4462 -0.0646
    4loPI   C6A   60   4.536   7.716   7.854 -0.2737  0.2234  0.2120
    4loPI   C1B   61   3.973   6.639   9.610  0.1190  0.2313 -0.2654
    4loPI   C2B   62   3.755   6.780   9.247  0.0302  0.2043 -0.1746
    4loPI   C3B   63   3.509   6.914   8.872 -0.1301  0.1579 -0.1518
    4loPI   C4B   64   3.667   6.951   8.456  0.0113  0.0595 -0.1060
    5loPI    C1   65   4.162   2.524  10.407  0.1802 -0.1286  0.0072
    5loPI    C2   66   4.139   2.196  10.180  0.3365 -0.0940 -0.0597
    5loPI    C3   67   4.059   2.174  10.571  0.1258 -0.1658 -0.1054
    5loPI   PO4   68   4.071   2.690  10.206  0.0749 -0.0621  0.1365
    5loPI   GL1   69   3.934   2.654   9.847  0.2369  0.1012 -0.2152
    5loPI   GL2   70   4.159   3.018   9.768 -0.1566 -0.0464  0.0863
    5loPI   C1A   71   4.079   2.547   9.421 -0.1842 -0.0438  0.3080
    5loPI   C2A   72   3.945   2.084   9.173 -0.0076 -0.2413  0.0627
    5loPI   C3A   73   3.866   1.843   8.835 -0.0641 -0.1036  0.1805
    5loPI   C4A   74   3.566   1.579   8.530 -0.1180  0.2360 -0.1149
    5loPI   C5A   75   3.302   1.269   8.235  0.3036 -0.4506 -0.5483
    5loPI   C6A   76   3.088   0.892   8.168 -0.1403  0.1614 -0.2240
    5loPI   C1B   77   3.860   3.009   9.500 -0.0173 -0.3249  0.1907
    5loPI   C2B   78   3.728   3.030   9.044  0.1704 -0.1503 -0.0192
    5loPI   C3B   79   3.530   2.774   8.631 -0.1045 -0.0718 -0.2218
    5loPI   C4B   80   3.432   2.429   8.433 -0.1207 -0.2216  0.3101
    6loPI    C1   81   1.793   6.829  10.451 -0.0373 -0.0588 -0.1728
    6loPI    C2   82   1.571   7.123  10.606  0.0366 -0.0698 -0.0442
    6loPI    C3   83   1.412   6.872  10.338 -0.1164 -0.1000  0.0737
    6loPI   PO4   84   2.034   6.863  10.336  0.1653 -0.3683  0.1598
    6loPI   GL1   85   2.187   6.740  10.014 -0.2856  0.1013 -0.0468
    6loPI   GL2   86   2.314   6.936   9.766 -0.1061 -0.4948  0.2460
    6loPI   C1A   87   2.186   6.510   9.640  0.2926 -0.0151  0.0156
    6loPI   C2A   88   2.425   6.416   9.338 -0.2134 -0.4806 -0.1015
    6loPI   C3A   89   2.687   6.414   8.946 -0.1426 -0.3449 -0.0857
    6loPI   C4A   90   2.865   6.381   8.512  0.0339 -0.2514  0.0780
    6loPI   C5A   91   3.108   6.527   8.274 -0.0645  0.2996  0.1037
    6loPI   C6A   92   3.187   6.909   8.437  0.1783 -0.1434  0.0901
    6loPI   C1B   93   2.322   6.965   9.335  0.1718  0.2731 -0.0646
    6loPI   C2B   94   2.442   6.809   8.911 -0.1854 -0.7394 -0.2706
    6loPI   C3B   95   2.245   6.924   8.538 -0.0197 -0.1531 -0.0583
    6loPI   C4B   96   2.046   6.801   8.197  0.0570 -0.0120 -0.1823
    7loPI    C1   97  10.132  11.889   9.665 -0.1232 -0.0132  0.0314
    7loPI    C2   98   9.893  11.664   9.894 -0.0229  0.1738  0.3267
    7loPI    C3   99  10.087  11.975  10.053  0.2904  0.1242  0.0538
    7loPI   PO4  100  10.079  11.729   9.429  0.0288  0.0154  0.1853
    7loPI   GL1  101   9.910  11.451   9.092 -0.0789  0.1976 -0.1298
    7loPI   GL2  102  10.233  11.419   9.043  0.2233  0.1956 -0.0974
    7loPI   C1A  103   9.800  11.650   8.703  0.0093 -0.1328 -0.3031
    7loPI   C2A  104  10.056  11.631   8.307  0.0648  0.0641  0.1865
    7loPI   C3A  105  10.275  11.818   7.962 -0.1185  0.2297  0.2433
    7loPI   C4A  106  10.336  11.811   7.472 -0.2175 -0.2900  0.1324
    7loPI   C5A  107  10.335  11.740   7.070  0.3771  0.3217  0.2747
    7loPI   C6A  108  10.696  11.777   6.750 -0.3134 -0.0470 -0.3174
    7loPI   C1B  109  10.354  11.551   8.702  0.1132  0.0252  0.0821
    7loPI   C2B  110  10.562  11.547   8.320 -0.2170 -0.2446 -0.1221
    7loPI   C3B  111  10.671  11.313   7.953 -0.1785 -0.1281 -0.1414
    7loPI   C4B  112  10.648  11.121   7.644  0.2145 -0.2976  0.2639
    8loPI    C1  113   6.071  16.726   9.796 -0.1529  0.0961  0.0044
    8loPI    C2  114   5.921  16.471   9.528 -0.0774  0.1247 -0.0653
    8loPI    C3  115   6.101  16.332   9.857 -0.1542  0.0896 -0.0380
    8loPI   PO4  116   6.212  16.895   9.746 -0.3320  0.0985 -0.3148
    8loPI   GL1  117   6.225  17.036   9.310  0.2476 -0.1002  0.2617
    8loPI   GL2  118   5.981  16.912   9.270 -0.0823 -0.3137  0.2658
    8loPI   C1A  119   6.507  16.996   9.001 -0.1948  0.1797 -0.1789
    8loPI   C2A  120   6.470  17.022   8.600  0.1758 -0.0849  0.1628
    8loPI   C3A  121   6.395  17.143   8.136  0.0896 -0.0007  0.0345
    8loPI   C4A  122   6.578  17.171   7.732 -0.4018  0.1374  0.0408
    8loPI   C5A  123   6.582  17.538   7.424  0.2723 -0.0574 -0.2368
    8loPI   C6A  124   6.733  17.518   7.025  0.1600  0.0359 -0.2561
    8loPI   C1B  125   6.021  17.111   8.892  0.0866  0.2086  0.3076
    8loPI   C2B  126   5.988  17.195   8.425  0.2078 -0.0173  0.0458
    8loPI   C3B  127   5.893  17.114   8.168  0.1685  0.0549  0.1383
    8loPI   C4B  128   6.032  17.176   7.650  0.1606  0.0909 -0.1899
    9loPI    C1  129  15.196   3.004  11.048  0.0210 -0.1466 -0.1133
    9loPI    C2  130  15.593   2.969  11.015  0.0629 -0.0042  0.2046
    9loPI    C3  131  15.388   2.710  11.241 -0.0172 -0.0374  0.0944
    9loPI   PO4  132  15.076   2.993  10.845 -0.2285  0.1960 -0.1108
    9loPI   GL1  133  14.946   3.195  10.499  0.2307  0.0375  0.1842
    9loPI   GL2  134  15.148   3.430  10.322  0.0738  0.2954 -0.0966
    9loPI   C1A  135  14.632   3.049  10.218  0.3234  0.1400 -0.0132
    9loPI   C2A  136  14.506   3.022   9.877  0.2644 -0.2123 -0.2607
    9loPI   C3A  137  14.530   2.795   9.504  0.4213  0.2501 -0.1130
    9loPI   C4A  138  14.627   2.581   9.210 -0.0083  0.1301  0.0480
    9loPI   C5A  139  14.552   2.389   8.881 -0.1631  0.3897 -0.0355
    9loPI   C6A  140  14.486   2.423   8.437 -0.1685 -0.3930 -0.0816
    9loPI   C1B  141  15.140   3.216   9.983  0.2426  0.0076  0.0750
    9loPI   C2B  142  14.989   3.014   9.630  0.1675  0.0925 -0.0082
    9loPI   C3B  143  15.014   2.905   9.247  0.0156  0.2122  0.0607
    9loPI   C4B  144  15.030   2.634   8.784  0.2488 -0.0068  0.0051
   10loPI    C1  145  14.263  12.053   9.793  0.0935  0.2096  0.3088
   10loPI    C2  146  14.349  12.182  10.161  0.2624 -0.0230  0.3531
   10loPI    C3  147  14.551  11.875  10.004  0.1845  0.0673  0.0692
   10loPI   PO4  148  14.231  12.245   9.610  0.2166  0.1399 -0.0079
   10loPI   GL1  149  14.375  12.702   9.421  0.1469 -0.2053 -0.2859
   10loPI   GL2  150  14.232  13.038   9.478  0.2394 -0.1352  0.0419
   10loPI   C1A  151  14.453  12.653   8.976 -0.1451 -0.2260 -0.1287
   10loPI   C2A  152  14.413  12.687   8.582  0.2227 -0.3020 -0.1491
   10loPI   C3A  153  14.615  12.769   8.193  0.1662  0.1000  0.0468
   10loPI   C4A  154  14.760  12.939   7.877  0.2697 -0.1352 -0.0592
   10loPI   C5A  155  14.752  13.304   7.822  0.1933 -0.1422  0.1300
   10loPI   C6A  156  14.613  13.655   7.800  0.1055  0.4629 -0.1098
   10loPI   C1B  157  14.122  13.274   9.103  0.3989  0.0348 -0.2377
   10loPI   C2B  158  14.130  13.349   8.745 -0.3044 -0.0860  0.0697
   10loPI   C3B  159  14.105  13.682   8.526 -0.2471 -0.1216  0.0812
   10loPI   C4B  160  14.084  13.794   8.035  0.2141  0.0862  0.0421
   11loPI    C1  161   9.811  13.841   9.589  0.3029 -0.1543  0.1307
   11loPI    C2  162  10.011  13.814   9.934  0.0212 -0.2749  0.2882
   11loPI    C3  163   9.708  13.565   9.859 -0.0871 -0.0795  0.0644
   11loPI   PO4  164   9.786  13.994   9.504 -0.4894 -0.0241  0.0868
   11loPI   GL1  165  10.152  14.284   9.273 -0.0636 -0.0227 -0.3163
   11loPI   GL2  166  10.169  13.915   9.192  0.0351 -0.1405  0.0712
   11loPI   C1A  167  10.202  14.304   8.859 -0.1450 -0.2231 -0.0898
   11loPI   C2A  168  10.116  14.041   8.536  0.2542  0.2517  0.1965
   11loPI   C3A  169   9.999  13.815   8.117  0.1185 -0.2255  0.1538
   11loPI   C4A  170  10.096  13.971   7.769 -0.2052 -0.0468 -0.0751
   11loPI   C5A  171  10.534  14.011   7.668  0.1220 -0.0633  0.0243
   11loPI   C6A  172  10.790  14.374   7.791 -0.0044  0.2266  0.0434
   11loPI   C1B  173  10.592  13.921   9.006  0.0766 -0.1186 -0.2361
   11loPI   C2B  174  10.664  14.001   8.634 -0.2463 -0.1688  0.3371
   11loPI   C3B  175  10.842  13.970   8.215 -0.2700 -0.3233  0.1567
   11loPI   C4B  176  11.175  14.162   8.024 -0.1563  0.1906  0.2012
   12loPI    C1  177  11.188  18.500  10.584 -0.0182 -0.1341 -0.0459
   12loPI    C2  178  10.989  18.301  10.868  0.1165  0.0189  0.1589
   12loPI    C3  179  11.181  18.100  10.580 -0.0041 -0.1378  0.1861
   12loPI   PO4  180  11.101  18.668  10.411 -0.2185 -0.0085 -0.1128
   12loPI   GL1  181  10.999  18.569  10.041 -0.2552  0.1926 -0.0404
   12loPI   GL2  182  11.287  18.279  10.132  0.0589 -0.2246 -0.1707
   12loPI   C1A  183  10.896  18.736   9.613  0.2523  0.0555  0.0736
   12loPI   C2A  184  10.970  18.916   9.278  0.0264  0.0480 -0.0252
   12loPI   C3A  185  10.842  18.996   8.925  0.5364 -0.0027  0.0699
   12loPI   C4A  186  10.927  19.343   8.514  0.1848 -0.0102 -0.0576
   12loPI   C5A  187  10.835  19.776   8.238 -0.0202 -0.1554 -0.1733
   12loPI   C6A  188  11.011  19.785   7.843  0.3727  0.2559  0.0275
   12loPI   C1B  189  11.211  18.399   9.667 -0.1109 -0.0532 -0.1436
   12loPI   C2B  190  11.235  18.428   9.258 -0.2364 -0.1059  0.1002
   12loPI   C3B  191  11.206  18.676   8.848  0.0899  0.2087 -0.2379
   12loPI   C4B  192  11.490  18.708   8.449  0.1261  0.2278  0.4006
   13loPI    C1  193   4.763  17.717  10.007 -0.0253 -0.0472 -0.0108
   13loPI    C2  194   4.867  17.407   9.777  0.1518 -0.0107  0.0188
   13loPI    C3  195   4.989  17.424  10.158  0.0262  0.0272  0.0578
   13loPI   PO4  196   4.505  17.709   9.985 -0.2668 -0.2984  0.2329
   13loPI   GL1  197   4.229  17.506   9.662 -0.0431 -0.0238 -0.3350
   13loPI   GL2  198   4.281  17.889   9.562  0.0255  0.1225 -0.1440
   13loPI   C1A  199   4.493  17.326   9.389  0.1988  0.1312  0.0572
   13loPI   C2A  200   4.497  17.144   9.020 -0.1295  0.1874 -0.0381
   13loPI   C3A  201   4.666  16.977   8.565 -0.0458  0.0816  0.0443
   13loPI   C4A  202   4.603  16.725   8.201  0.0085  0.0456  0.2498
   13loPI   C5A  203   4.375  16.342   8.096  0.1929 -0.3297  0.1932
   13loPI   C6A  204   4.548  15.936   7.953  0.1518  0.0928  0.0858
   13loPI   C1B  205   4.381  17.824   9.122 -0.1252 -0.0275  0.1539
   13loPI   C2B  206   4.453  17.611   8.762  0.0121 -0.0015 -0.1400
   13loPI   C3B  207   4.106  17.541   8.424 -0.0090  0.1664 -0.0647
   13loPI   C4B  208   3.934  17.424   8.168  0.0111 -0.0345  0.2592
   14loPI    C1  209   2.846   3.420  10.275 -0.0027 -0.0395 -0.2539
   14loPI    C2  210   2.579   3.249  10.519  0.0673  0.0294 -0.1277
   14loPI    C3  211   2.725   3.045  10.207 -0.0187 -0.0609 -0.1093
   14loPI   PO4  212   2.811   3.615  10.247  0.1392  0.1409 -0.2453
   14loPI   GL1  213   2.960   3.828   9.897  0.1449 -0.2867 -0.0113
   14loPI   GL2  214   2.814   3.667   9.599  0.0236  0.0276 -0.1096
   14loPI   C1A  215   3.304   3.713   9.642 -0.1100  0.2937 -0.0135
   14loPI   C2A  216   3.654   3.966   9.390  0.0290 -0.2547 -0.3715
   14loPI   C3A  217   3.582   4.021   8.961 -0.0169  0.0288 -0.2908
   14loPI   C4A  218   3.589   4.354   8.657 -0.1868 -0.1344  0.1200
   14loPI   C5A  219   3.303   4.683   8.486  0.0817  0.1681 -0.0758
   14loPI   C6A  220   2.917   4.974   8.434  0.1515 -0.0950 -0.0236
   14loPI   C1B  221   2.737   3.526   9.112 -0.1448  0.0216 -0.0858
   14loPI   C2B  222   2.878   3.220   8.868  0.0706 -0.2054 -0.4148
   14loPI   C3B  223   3.322   3.233   8.667  0.3538 -0.1880 -0.0776
   14loPI   C4B  224   3.488   3.387   8.292 -0.0028 -0.2710 -0.0137
   15loPI    C1  225   0.835   6.115   9.838  0.0147 -0.0083  0.1173
   15loPI    C2  226   0.786   5.908  10.177  0.0370  0.1991  0.2487
   15loPI    C3  227   1.018   5.763   9.885 -0.4017 -0.2335  0.1026
   15loPI   PO4  228   0.636   6.187   9.731 -0.2036  0.2081  0.0260
   15loPI   GL1  229   0.508   6.304   9.350  0.0079 -0.1012  0.0456
   15loPI   GL2  230   0.352   6.267   9.178  0.0898  0.0243  0.2706
   15loPI   C1A  231   0.869   6.294   9.039 -0.0415  0.0290 -0.1851
   15loPI   C2A  232   0.870   6.303   8.597 -0.2107  0.0422 -0.0645
   15loPI   C3A  233   1.198   6.041   8.358 -0.1234  0.2292  0.0418
   15loPI   C4A  234   1.358   5.856   8.050  0.0744 -0.1224  0.1081
   15loPI   C5A  235   1.416   5.462   7.909  0.2033  0.3435 -0.0527
   15loPI   C6A  236   1.558   5.064   7.896  0.0712  0.0453  0.0487
   15loPI   C1B  237   0.418   6.216   8.827  0.1482 -0.3331  0.2989
   15loPI   C2B  238   0.462   6.115   8.332  0.0147  0.2057 -0.1768
   15loPI   C3B  239   0.760   5.905   8.014 -0.1281  0.1187  0.0687
   15loPI   C4B  240   0.800   5.521   7.817  0.0089 -0.0135  0.1693
   16loPI    C1  241   5.308  12.778   9.734 -0.0550 -0.1019  0.0764
   16loPI    C2  242   5.011  12.753  10.000  0.0050 -0.4055  0.1189
   16loPI    C3  243   5.375  12.619  10.095  0.1762  0.0254  0.0914
   16loPI   PO4  244   5.211  12.974   9.602  0.1779 -0.0989 -0.0580
   16loPI   GL1  245   5.277  13.058   9.167  0.0957  0.1992  0.4488
   16loPI   GL2  246   5.438  12.982   8.877 -0.0391  0.0363 -0.0944
   16loPI   C1A  247   4.979  13.023   8.851 -0.0362  0.1748 -0.0345
   16loPI   C2A  248   4.870  13.009   8.429 -0.2556  0.2222 -0.0742
   16loPI   C3A  249   4.974  13.066   7.985  0.2369 -0.0659 -0.1080
   16loPI   C4A  250   5.210  13.132   7.662 -0.2990 -0.1914  0.1560
   16loPI   C5A  251   5.098  13.446   7.375 -0.4000 -0.0043  0.4041
   16loPI   C6A  252   4.985  13.855   7.114 -0.2559 -0.0694  0.2822
   16loPI   C1B  253   5.387  13.256   8.545 -0.3878  0.3484 -0.1970
   16loPI   C2B  254   5.311  13.449   8.175 -0.1564 -0.4185  0.1220
   16loPI   C3B  255   5.008  13.584   7.904 -0.0605  0.1191  0.0883
   16loPI   C4B  256   4.698  13.755   7.538  0.1452  0.2553 -0.0100
   17loPI    C1  257  13.193   8.355  10.092 -0.1896 -0.2197  0.1166
   17loPI    C2  258  13.226   8.050  10.349  0.0892 -0.0934  0.2348
   17loPI    C3  259  13.360   8.413  10.451 -0.4251  0.1217  0.1758
   17loPI   PO4  260  13.242   8.239   9.843 -0.0326 -0.1436  0.1775
   17loPI   GL1  261  13.609   8.398   9.622  0.0580  0.3477 -0.1572
   17loPI   GL2  262  13.243   8.320   9.296  0.2948  0.3263  0.2231
   17loPI   C1A  263  13.599   8.577   9.133  0.1239 -0.0126  0.3078
   17loPI   C2A  264  13.144   8.741   8.863  0.1232 -0.0484  0.2552
   17loPI   C3A  265  12.927   8.850   8.433  0.1205 -0.0810  0.0870
   17loPI   C4A  266  12.919   8.768   7.990 -0.0874 -0.0443  0.1934
   17loPI   C5A  267  12.863   8.786   7.630 -0.0575 -0.0900  0.2964
   17loPI   C6A  268  12.910   8.920   7.297 -0.2737 -0.1046  0.3699
   17loPI   C1B  269  13.552   7.992   9.049 -0.1798 -0.1250  0.0074
   17loPI   C2B  270  13.480   8.267   8.565 -0.1759 -0.0148 -0.3348
   17loPI   C3B  271  13.520   8.045   8.082  0.1075  0.0476  0.3007
   17loPI   C4B  272  13.555   8.209   7.745 -0.1364  0.0927 -0.1118
   18loPI    C1  273  18.356   6.570   9.873  0.0931  0.1445 -0.0014
   18loPI    C2  274  18.530   6.318  10.130 -0.0246  0.1077  0.0427
   18loPI    C3  275  18.609   6.710  10.149  0.3372  0.0495 -0.1736
   18loPI   PO4  276  18.297   6.475   9.557 -0.0720 -0.2715 -0.1460
   18loPI   GL1  277  18.499   6.269   9.229 -0.0559  0.0597 -0.4158
   18loPI   GL2  278  18.170   6.211   9.147  0.0498  0.1949  0.3071
   18loPI   C1A  279  18.680   6.542   8.917 -0.2474  0.1326 -0.1580
   18loPI   C2A  280  18.699   6.776   8.624 -0.2009  0.1192 -0.2226
   18loPI   C3A  281  18.798   6.930   8.278 -0.0122  0.0005 -0.0361
   18loPI   C4A  282  18.936   6.670   8.062 -0.1881  0.2361  0.1821
   18loPI   C5A  283  19.204   6.683   7.694 -0.1853  0.0054 -0.0989
   18loPI   C6A  284  19.039   6.559   7.236 -0.3629  0.0634  0.1622
   18loPI   C1B  285  18.365   6.069   8.817 -0.3067 -0.3333  0.3733
   18loPI   C2B  286  18.503   6.290   8.375  0.0322 -0.1988 -0.0525
   18loPI   C3B  287  18.571   6.130   8.018 -0.0885 -0.3713  0.1036
   18loPI   C4B  288  18.409   5.730   7.839  0.1899  0.2677 -0.3350
   19loPI    C1  289  16.213   0.882  10.918 -0.1125  0.0678 -0.1339
   19loPI    C2  290  16.114   1.225  11.098  0.0182  0.1147 -0.1502
   19loPI    C3  291  16.180   0.897  11.316  0.1985  0.1770 -0.1091
   19loPI   PO4  292  16.459   0.929  10.744 -0.0387  0.1674 -0.0827
   19loPI   GL1  293  16.357   0.851  10.358  0.1711 -0.1227  0.1258
   19loPI   GL2  294  16.403   0.606  10.119 -0.0449 -0.0183  0.1029
   19loPI   C1A  295  16.065   1.051  10.029 -0.1642  0.0991  0.0827
   19loPI   C2A  296  15.968   1.261   9.694 -0.0773  0.0044 -0.1794
   19loPI   C3A  297  15.986   1.221   9.346  0.0941 -0.3463 -0.0671
   19loPI   C4A  298  15.940   1.333   8.842 -0.1019  0.3537  0.0507
   19loPI   C5A  299  15.737   1.327   8.482  0.0411 -0.0954  0.2338
   19loPI   C6A  300  15.378   1.060   8.378  0.0699  0.0108 -0.1875
   19loPI   C1B  301  16.435   0.612   9.681  0.3540  0.3352 -0.0226
   19loPI   C2B  302  16.301   0.621   9.245 -0.2884 -0.3241  0.1121
   19loPI   C3B  303  16.293   0.529   8.830 -0.0088  0.2847  0.0888
   19loPI   C4B  304  16.139   0.272   8.533  0.2365 -0.0339 -0.1485
   20loPI    C1  305   9.969   5.494  11.000  0.3149 -0.2427 -0.1207
   20loPI    C2  306   9.987   5.279  11.337 -0.1272 -0.0608  0.0257
   20loPI    C3  307   9.706   5.560  11.293 -0.0285 -0.0295 -0.4679
   20loPI   PO4  308  10.072   5.354  10.791  0.0797  0.3047 -0.1540
   20loPI   GL1  309  10.285   5.391  10.405  0.0265  0.0506 -0.2523
   20loPI   GL2  310  10.528   5.170  10.616  0.1087  0.2692  0.2488
   20loPI   C1A  311  10.411   5.312  10.001  0.1286 -0.2122 -0.0625
   20loPI   C2A  312  10.405   5.373   9.568 -0.0376  0.0493  0.1980
   20loPI   C3A  313  10.309   5.259   9.169  0.0610  0.0022 -0.2794
   20loPI   C4A  314  10.447   5.115   8.812  0.1674  0.0056  0.1385
   20loPI   C5A  315  10.566   5.173   8.330 -0.0382  0.0138  0.0304
   20loPI   C6A  316  10.560   5.133   7.848  0.3683  0.1832  0.0139
   20loPI   C1B  317  10.341   4.871  10.318 -0.2082 -0.1072  0.2138
   20loPI   C2B  318  10.528   4.700   9.926  0.0954  0.1972  0.1715
   20loPI   C3B  319  10.582   4.456   9.565  0.2303 -0.1949  0.1059
   20loPI   C4B  320  10.693   4.411   9.112 -0.0426 -0.3481 -0.3071
   21loPI    C1  321   7.922   8.805   9.871 -0.0829  0.1520 -0.0592
   21loPI    C2  322   8.284   8.634   9.874 -0.1326  0.0445 -0.1264
   21loPI    C3  323   8.213   8.956  10.100  0.0043  0.0646 -0.1113
   21loPI   PO4  324   7.785   8.515   9.809  0.3778  0.0776  0.3219
   21loPI   GL1  325   7.586   8.600   9.480 -0.2108 -0.1380 -0.1788
   21loPI   GL2  326   7.461   8.397   9.313 -0.2881  0.2739 -0.0010
   21loPI   C1A  327   7.529   8.816   9.094  0.3009  0.1334 -0.2762
   21loPI   C2A  328   7.456   8.749   8.599 -0.0203  0.0698 -0.0606
   21loPI   C3A  329   7.473   8.590   8.197  0.2365 -0.0986 -0.2093
   21loPI   C4A  330   7.715   8.387   7.843  0.2564  0.0393  0.1603
   21loPI   C5A  331   8.096   8.136   8.007 -0.0070  0.2829  0.3577
   21loPI   C6A  332   8.567   8.271   8.195 -0.0425 -0.0513  0.1254
   21loPI   C1B  333   7.248   8.333   8.981 -0.4641  0.1488 -0.0555
   21loPI   C2B  334   7.075   8.405   8.495  0.0124  0.0605  0.3038
   21loPI   C3B  335   6.881   8.283   8.105  0.0015  0.0928 -0.0003
   21loPI   C4B  336   6.742   8.408   7.819  0.3513 -0.0974  0.1662
   22loPI    C1  337   7.972   2.249  10.431 -0.1607  0.0624  0.0180
   22loPI    C2  338   7.686   2.515  10.518 -0.0937  0.1235  0.0522
   22loPI    C3  339   8.071   2.618  10.549 -0.0678  0.0378  0.0174
   22loPI   PO4  340   7.964   2.165  10.205  0.2613 -0.0300  0.2097
   22loPI   GL1  341   8.132   2.163   9.853  0.0816  0.2036  0.1474
   22loPI   GL2  342   8.413   1.911   9.747  0.4446  0.2309  0.1920
   22loPI   C1A  343   7.914   2.058   9.443  0.0632 -0.1342  0.3494
   22loPI   C2A  344   8.072   2.018   8.949 -0.2876 -0.2053 -0.1993
   22loPI   C3A  345   8.168   1.860   8.534 -0.0129  0.1009  0.3756
   22loPI   C4A  346   8.014   1.741   8.108  0.1095  0.0527  0.2607
   22loPI   C5A  347   7.785   1.975   7.815  0.1549 -0.1999 -0.0975
   22loPI   C6A  348   7.346   2.138   8.074 -0.0210 -0.0226  0.1795
   22loPI   C1B  349   8.413   2.112   9.376  0.0242 -0.2329  0.0002
   22loPI   C2B  350   8.423   2.547   9.157 -0.0332 -0.2732  0.2616
   22loPI   C3B  351   8.464   2.785   8.802  0.3353 -0.1077  0.1051
   22loPI   C4B  352   8.479   2.772   8.339  0.0972  0.3253  0.0852
   23loPI    C1  353   9.981  15.571   9.854  0.1865  0.0496  0.1897
   23loPI    C2  354   9.887  15.712  10.217  0.0180 -0.2040  0.2475
   23loPI    C3  355   9.911  15.318  10.156  0.1550 -0.1606  0.0082
   23loPI   PO4  356  10.242  15.662   9.755  0.3600  0.0983  0.1381
   23loPI   GL1  357  10.528  15.616   9.366 -0.0679  0.0069 -0.3554
   23loPI   GL2  358  10.768  15.322   9.439 -0.0467  0.0731 -0.0873
   23loPI   C1A  359  10.323  15.906   9.154 -0.1745 -0.3157 -0.1726
   23loPI   C2A  360  10.458  15.990   8.796  0.3047  0.0531  0.1063
   23loPI   C3A  361  10.494  16.123   8.361 -0.1549  0.1632 -0.2375
   23loPI   C4A  362  10.457  15.984   7.997 -0.0835  0.2756  0.1070
   23loPI   C5A  363  10.688  15.915   7.612  0.0047 -0.2645  0.3092
   23loPI   C6A  364  10.641  16.042   7.188 -0.0456  0.0913 -0.1820
   23loPI   C1B  365  11.021  15.230   9.236 -0.1245  0.1810  0.2674
   23loPI   C2B  366  11.126  15.278   8.815  0.2245  0.1609 -0.1028
   23loPI   C3B  367  11.335  15.437   8.558  0.1436 -0.3269  0.2423
   23loPI   C4B  368  11.448  15.691   8.147 -0.0249  0.0028  0.0623
   24loPI    C1  369   8.829   6.797  10.829 -0.1255  0.2696  0.1914
   24loPI    C2  370   8.954   6.460  11.004  0.0035  0.3457  0.2468
   24loPI    C3  371   8.968   6.807  11.203  0.1541  0.4333  0.0860
   24loPI   PO4  372   8.802   6.824  10.568 -0.0169 -0.1558  0.0630
   24loPI   GL1  373   8.934   6.727  10.121  0.1536  0.0125  0.2580
   24loPI   GL2  374   8.807   7.048   9.972  0.2128 -0.0212  0.0549
   24loPI   C1A  375   8.991   6.708   9.667 -0.1534 -0.3201 -0.0420
   24loPI   C2A  376   8.948   6.916   9.299  0.1040 -0.2170 -0.1413
   24loPI   C3A  377   8.888   6.602   8.928 -0.3691 -0.2568  0.0599
   24loPI   C4A  378   8.692   6.137   8.821 -0.1175 -0.3645 -0.2066
   24loPI   C5A  379   8.413   5.896   9.102 -0.1468 -0.0514  0.1144
   24loPI   C6A  380   7.921   6.077   9.191  0.0746  0.3433  0.0217
   24loPI   C1B  381   8.647   7.145   9.644 -0.2668  0.4018  0.2324
   24loPI   C2B  382   8.732   7.435   9.307 -0.1578 -0.0316 -0.2361
   24loPI   C3B  383   8.693   7.478   8.784  0.0872  0.1021  0.0356
   24loPI   C4B  384   8.329   7.663   8.556 -0.0847 -0.2349 -0.3134
   25loPI    C1  385  15.749   0.197  11.096  0.0472  0.1452  0.2378
   25loPI    C2  386  16.002  -0.111  11.126 -0.0336  0.0469 -0.0582
   25loPI    C3  387  15.865   0.068  11.456  0.2086 -0.0729  0.1100
   25loPI   PO4  388  15.824   0.307  10.785  0.0355  0.3533 -0.2227
   25loPI   GL1  389  15.819   0.258  10.333 -0.3923  0.0068 -0.1200
   25loPI   GL2  390  15.737  -0.075  10.146 -0.2711 -0.3562  0.0884
   25loPI   C1A  391  15.895   0.589  10.050  0.0132 -0.1267  0.1459
   25loPI   C2A  392  15.979   0.769   9.611  0.1577  0.1075 -0.1079
   25loPI   C3A  393  15.826   0.745   9.086 -0.0207  0.0583 -0.0948
   25loPI   C4A  394  15.892   0.807   8.676 -0.1966  0.1152  0.1888
   25loPI   C5A  395  15.926   0.916   8.146 -0.3534  0.0486 -0.2920
   25loPI   C6A  396  15.901   1.292   7.800  0.0440  0.1157 -0.5415
   25loPI   C1B  397  15.832  -0.180   9.718 -0.1256 -0.0415  0.1259
   25loPI   C2B  398  16.116  -0.233   9.403 -0.1943  0.0231  0.2355
   25loPI   C3B  399  16.333  -0.262   9.112 -0.3330 -0.0786 -0.1690
   25loPI   C4B  400  16.457  -0.210   8.755  0.2713  0.1803  0.0292
   26loPI    C1  401  16.968  11.797  10.006  0.1619  0.0364 -0.0571
   26loPI    C2  402  16.685  11.858  10.281  0.0056 -0.2532 -0.1502
   26loPI    C3  403  17.069  11.842  10.391 -0.0456 -0.2497  0.0341
   26loPI   PO4  404  16.877  11.527   9.811  0.4569 -0.0285  0.0803
   26loPI   GL1  405  16.618  11.280   9.513 -0.3790  0.0574 -0.3300
   26loPI   GL2  406  16.392  11.523   9.499 -0.1487  0.1725 -0.1852
   26loPI   C1A  407  16.761  11.093   9.195  0.2474 -0.0190  0.0228
   26loPI   C2A  408  16.676  11.175   8.779  0.1529  0.3244 -0.2972
   26loPI   C3A  409  16.822  11.280   8.394 -0.0970  0.0270  0.0597
   26loPI   C4A  410  16.652  11.269   7.989 -0.0612 -0.0614  0.1740
   26loPI   C5A  411  16.734  11.329   7.487 -0.3067 -0.0443 -0.0135
   26loPI   C6A  412  17.159  11.356   7.296 -0.0306  0.1894 -0.1196
   26loPI   C1B  413  16.498  11.708   9.120 -0.1244 -0.0697 -0.0896
   26loPI   C2B  414  16.547  11.632   8.692 -0.2969 -0.0539  0.0604
   26loPI   C3B  415  16.575  11.729   8.218 -0.3042  0.0369 -0.3517
   26loPI   C4B  416  16.668  11.947   7.821  0.0628  0.0501  0.1902
   27loPI    C1  417   5.695  13.050   9.494 -0.0984 -0.2099 -0.1257
   27loPI    C2  418   6.066  13.097   9.637 -0.1841  0.0868  0.0066
   27loPI    C3  419   5.779  12.946   9.872 -0.1671 -0.0664 -0.0700
   27loPI   PO4  420   5.721  12.857   9.290 -0.0812  0.0343 -0.1241
   27loPI   GL1  421   5.853  12.584   9.016 -0.2569  0.2759 -0.1463
   27loPI   GL2  422   5.635  12.507   8.898 -0.1253 -0.1246  0.0922
   27loPI   C1A  423   6.226  12.711   8.744  0.1820 -0.1699 -0.2587
   27loPI   C2A  424   6.256  12.933   8.328  0.0055 -0.0320 -0.1073
   27loPI   C3A  425   6.186  13.181   7.961 -0.2038 -0.1744 -0.1393
   27loPI   C4A  426   6.214  13.163   7.555  0.2099 -0.2114 -0.2491
   27loPI   C5A  427   6.144  12.911   7.180 -0.1222 -0.1168 -0.1378
   27loPI   C6A  428   5.778  12.712   6.922 -0.0194 -0.2118  0.2819
   27loPI   C1B  429   5.727  12.735   8.437  0.0603  0.1429  0.1577
   27loPI   C2B  430   5.551  13.017   8.088  0.0063  0.0669 -0.1886
   27loPI   C3B  431   5.725  13.101   7.648 -0.1154  0.1166  0.1765
   27loPI   C4B  432   5.670  13.120   7.194 -0.0604  0.0424 -0.1632
   28loPI    C1  433   2.804   0.801  10.299  0.0119 -0.0476 -0.0044
   28loPI    C2  434   3.102   0.733  10.557  0.0867  0.1064 -0.0491
   28loPI    C3  435   2.890   1.071  10.581  0.0820  0.1130 -0.1777
   28loPI   PO4  436   2.802   0.623  10.149  0.0391 -0.0864  0.2344
   28loPI   GL1  437   3.089   0.601   9.707  0.4672  0.4341  0.2020
   28loPI   GL2  438   3.402   0.645   9.626 -0.0224 -0.0217  0.0483
   28loPI   C1A  439   2.995   0.464   9.341 -0.2000 -0.1057  0.0788
   28loPI   C2A  440   2.988   0.496   8.902  0.4118 -0.1491  0.0397
   28loPI   C3A  441   2.940   0.587   8.496  0.1540  0.0061  0.0880
   28loPI   C4A  442   3.110   0.386   8.186  0.0545  0.2435  0.0686
   28loPI   C5A  443   3.545   0.395   8.023 -0.2244  0.2086 -0.1080
   28loPI   C6A  444   3.737   0.139   7.726 -0.1307  0.0202  0.2295
   28loPI   C1B  445   3.507   0.456   9.159 -0.3704  0.0831  0.2949
   28loPI   C2B  446   3.482   0.430   8.770  0.3065 -0.0071  0.3867
   28loPI   C3B  447   3.479   0.701   8.451 -0.4231 -0.0319  0.0016
   28loPI   C4B  448   3.685   0.943   8.070 -0.0389  0.0736  0.1339
   29loPI    C1  449   6.355   7.965  10.818  0.1735  0.1790  0.0531
   29loPI    C2  450   6.115   8.285  10.808  0.0078  0.0527 -0.0587
   29loPI    C3  451   6.269   8.160  11.156  0.1722  0.3255 -0.0309
   29loPI   PO4  452   6.489   7.957  10.579  0.0041 -0.1688  0.3520
   29loPI   GL1  453   6.548   7.638  10.217  0.0455 -0.0276  0.1560
   29loPI   GL2  454   6.219   7.617  10.124 -0.0921 -0.2217 -0.0516
   29loPI   C1A  455   6.642   7.655   9.827 -0.1298  0.2232  0.3563
   29loPI   C2A  456   6.456   7.561   9.432  0.0527  0.5326 -0.0419
   29loPI   C3A  457   6.432   7.641   9.006  0.0975  0.1584  0.1724
   29loPI   C4A  458   6.324   7.561   8.628  0.0728  0.1946 -0.2930
   29loPI   C5A  459   6.377   7.625   8.256  0.2415  0.1245 -0.2038
   29loPI   C6A  460   6.163   7.399   7.931  0.2018  0.4031  0.1156
   29loPI   C1B  461   6.176   7.828   9.915 -0.0720 -0.0437 -0.0858
   29loPI   C2B  462   6.303   8.016   9.480 -0.0541  0.0927 -0.1507
   29loPI   C3B  463   6.113   8.216   9.121  0.1114  0.0237  0.3179
   29loPI   C4B  464   5.656   8.178   8.909  0.1037 -0.2984  0.1462
   30loPI    C1  465  15.490  14.502  10.035  0.0131  0.2277 -0.0789
   30loPI    C2  466  15.112  14.418  10.135  0.0668  0.1529  0.0639
   30loPI    C3  467  15.375  14.121  10.083  0.1293  0.2090  0.0595
   30loPI   PO4  468  15.506  14.611   9.852  0.0154  0.0650 -0.0994
   30loPI   GL1  469  15.375  14.711   9.494  0.2962 -0.3388 -0.0118
   30loPI   GL2  470  15.013  14.731   9.721  0.4389 -0.1435 -0.0558
   30loPI   C1A  471  15.568  15.027   9.168  0.0480  0.1598 -0.0180
   30loPI   C2A  472  15.792  15.269   8.846  0.0408  0.2128  0.0743
   30loPI   C3A  473  15.645  15.536   8.488 -0.0947  0.1200  0.0932
   30loPI   C4A  474  15.618  15.509   8.080 -0.0290 -0.1053  0.1999
   30loPI   C5A  475  15.377  15.740   7.548 -0.2354  0.0883 -0.3033
   30loPI   C6A  476  15.082  15.758   7.279 -0.2397  0.1035  0.2119
   30loPI   C1B  477  15.104  15.076   9.514  0.0976 -0.1444 -0.1747
   30loPI   C2B  478  15.236  15.358   9.348 -0.1069 -0.1032 -0.1405
   30loPI   C3B  479  15.312  15.430   8.868  0.0118  0.2224  0.0872
   30loPI   C4B  480  15.175  15.342   8.424 -0.1704 -0.1222  0.1584
   31loPI    C1  481   8.723  18.348  10.373 -0.0218 -0.0208  0.1163
   31loPI    C2  482   8.418  18.389  10.628 -0.1002 -0.0099  0.0216
   31loPI    C3  483   8.694  18.106  10.689 -0.1285 -0.0192  0.1082
   31loPI   PO4  484   8.741  18.608  10.176 -0.3539  0.1865  0.1058
   31loPI   GL1  485   8.431  18.831   9.869 -0.0972 -0.1011 -0.0674
   31loPI   GL2  486   8.131  18.684   9.833  0.0295 -0.3060 -0.1256
   31loPI   C1A  487   8.461  18.694   9.448  0.1882 -0.0164  0.0928
   31loPI   C2A  488   8.498  18.833   9.032 -0.3536 -0.3603  0.0478
   31loPI   C3A  489   8.427  18.703   8.644 -0.2165 -0.2194  0.1225
   31loPI   C4A  490   8.199  18.701   8.283 -0.0868 -0.2548  0.0290
   31loPI   C5A  491   8.019  18.490   7.945 -0.0572 -0.0642  0.1653
   31loPI   C6A  492   7.732  18.376   7.692  0.3573  0.0062  0.1178
   31loPI   C1B  493   7.974  18.617   9.434  0.0926  0.0054  0.1575
   31loPI   C2B  494   8.050  18.620   8.897  0.0739 -0.0565 -0.2372
   31loPI   C3B  495   7.720  18.758   8.532  0.1111 -0.3519  0.0136
   31loPI   C4B  496   7.952  19.031   8.032 -0.2230 -0.0878  0.0020
   32loPI    C1  497   2.347  13.608  10.167 -0.3377  0.1190  0.2358
   32loPI    C2  498   2.645  13.819  10.329 -0.2006 -0.0463  0.2033
   32loPI    C3  499   2.580  13.443  10.447 -0.2040 -0.1127 -0.0065
   32loPI   PO4  500   2.336  13.712   9.912 -0.1016 -0.1875  0.0696
   32loPI   GL1  501   2.141  13.652   9.587  0.0412 -0.1245  0.1176
   32loPI   GL2  502   1.973  13.326   9.487 -0.4872  0.1277 -0.3498
   32loPI   C1A  503   2.230  13.545   9.095  0.1284  0.0473  0.2031
   32loPI   C2A  504   2.023  13.591   8.775 -0.0594 -0.1624  0.2631
   32loPI   C3A  505   1.895  13.522   8.320 -0.0466 -0.2801 -0.4345
   32loPI   C4A  506   1.598  13.508   7.896 -0.1415  0.1638  0.0029
   32loPI   C5A  507   1.366  13.498   7.493 -0.1101  0.2338  0.1674
   32loPI   C6A  508   1.321  13.300   7.072  0.2035 -0.0955  0.1599
   32loPI   C1B  509   1.767  13.436   9.180  0.2285  0.1783 -0.4022
   32loPI   C2B  510   1.480  13.341   8.781 -0.3382  0.2154  0.0534
   32loPI   C3B  511   1.350  13.256   8.293 -0.1214  0.2288 -0.1355
   32loPI   C4B  512   1.203  13.164   7.866  0.1931  0.2603 -0.1552
   33loPI    C1  513  17.291  14.428  10.069 -0.1360 -0.0862  0.3069
   33loPI    C2  514  17.539  14.739  10.111 -0.2637  0.0376  0.1592
   33loPI    C3  515  17.504  14.469  10.404 -0.0600  0.0947  0.2378
   33loPI   PO4  516  17.068  14.570   9.985  0.0316 -0.3469 -0.0556
   33loPI   GL1  517  16.818  14.409   9.644 -0.2319  0.0357 -0.0960
   33loPI   GL2  518  17.009  14.196   9.552 -0.0262  0.0341 -0.0112
   33loPI   C1A  519  16.557  14.659   9.387 -0.2794 -0.2076 -0.3104
   33loPI   C2A  520  16.534  14.766   9.014  0.2291  0.3097 -0.0141
   33loPI   C3A  521  16.483  14.753   8.504  0.4002 -0.1850  0.1592
   33loPI   C4A  522  16.415  14.920   8.143 -0.2012  0.0724 -0.1140
   33loPI   C5A  523  16.299  14.832   7.728 -0.0121  0.1687 -0.0532
   33loPI   C6A  524  16.004  14.861   7.507  0.0927 -0.0834 -0.1371
   33loPI   C1B  525  17.041  14.382   9.152 -0.0735 -0.2724  0.0473
   33loPI   C2B  526  17.330  14.579   8.840  0.0753  0.2488 -0.5754
   33loPI   C3B  527  17.247  14.750   8.510 -0.0595 -0.3428 -0.4647
   33loPI   C4B  528  17.327  15.010   8.165 -0.3926  0.0753 -0.1638
   34loPI    C1  529   8.315   8.443  10.548  0.1095  0.0899 -0.1136
   34loPI    C2  530   8.269   8.249  10.201  0.3024 -0.0465 -0.0648
   34loPI    C3  531   8.180   8.066  10.546 -0.0888  0.1597 -0.0514
   34loPI   PO4  532   8.406   8.645  10.444 -0.0617 -0.0859  0.2180
   34loPI   GL1  533   8.716   8.819  10.105 -0.2389 -0.2215  0.1676
   34loPI   GL2  534   8.753   8.502  10.121  0.1265 -0.0691 -0.0312
   34loPI   C1A  535   8.869   8.781   9.646  0.1126  0.0949 -0.0782
   34loPI   C2A  536   8.939   8.534   9.310 -0.1249 -0.0942 -0.2642
   34loPI   C3A  537   9.027   8.342   8.993 -0.2184  0.0704 -0.1230
   34loPI   C4A  538   9.070   8.363   8.590 -0.1398  0.0387  0.1883
   34loPI   C5A  539   8.907   8.736   8.325  0.0530 -0.1041 -0.2708
   34loPI   C6A  540   8.703   9.067   8.393 -0.1247 -0.2243  0.0927
   34loPI   C1B  541   8.692   8.348   9.767  0.2536 -0.0361  0.2208
   34loPI   C2B  542   8.412   8.445   9.399 -0.0792 -0.1325 -0.1647
   34loPI   C3B  543   8.333   8.279   8.971  0.1704  0.1863 -0.1620
   34loPI   C4B  544   8.193   8.196   8.576  0.1829 -0.0045  0.1605
   35loPI    C1  545  14.413   2.616  11.173  0.3104  0.0562 -0.3028
   35loPI    C2  546  14.408   3.012  11.232  0.1742  0.0139 -0.0124
   35loPI    C3  547  14.757   2.817  11.210  0.2387  0.1009  0.2049
   35loPI   PO4  548  14.309   2.538  10.928 -0.0521  0.1082  0.1758
   35loPI   GL1  549  14.443   2.525  10.437 -0.1597 -0.1446  0.3960
   35loPI   GL2  550  14.144   2.410  10.505  0.1629  0.2753  0.2380
   35loPI   C1A  551  14.419   2.509   9.945 -0.0951  0.0391 -0.3241
   35loPI   C2A  552  14.314   2.315   9.624 -0.0058  0.0566  0.0624
   35loPI   C3A  553  14.149   2.325   9.228  0.0798 -0.0676  0.0058
   35loPI   C4A  554  13.913   2.303   8.913  0.5522 -0.0114  0.0283
   35loPI   C5A  555  13.784   2.239   8.495 -0.0472 -0.0610  0.1897
   35loPI   C6A  556  13.463   2.038   8.374 -0.0554 -0.1038 -0.1808
   35loPI   C1B  557  13.922   2.223  10.106  0.2358  0.0467 -0.0625
   35loPI   C2B  558  13.791   2.197   9.664  0.1338  0.0714  0.1989
   35loPI   C3B  559  13.665   2.304   9.320 -0.1415  0.1999  0.0469
   35loPI   C4B  560  13.451   2.332   8.980 -0.1877  0.0997  0.0998
   36loPI    C1  561   4.518   9.084  10.524  0.1277  0.2641  0.1672
   36loPI    C2  562   4.122   9.114  10.577  0.0814 -0.1640  0.0954
   36loPI    C3  563   4.372   9.272  10.846 -0.1330  0.3064  0.0271
   36loPI   PO4  564   4.566   9.174  10.336  0.1557 -0.0783 -0.0737
   36loPI   GL1  565   4.580   9.075  10.002 -0.2604 -0.1500  0.0034
   36loPI   GL2  566   4.895   8.890   9.913  0.0525 -0.1283 -0.3366
   36loPI   C1A  567   4.711   9.208   9.615 -0.1486 -0.0503 -0.3448
   36loPI   C2A  568   4.588   8.975   9.224 -0.0669  0.0990  0.0295
   36loPI   C3A  569   4.672   8.909   8.727  0.0310  0.2902 -0.1149
   36loPI   C4A  570   4.325   8.719   8.517 -0.0067 -0.0122  0.0805
   36loPI   C5A  571   4.260   8.542   8.040  0.2260 -0.1271 -0.2136
   36loPI   C6A  572   4.169   8.346   7.625 -0.0603  0.1061 -0.0706
   36loPI   C1B  573   4.996   8.541   9.626  0.0384 -0.2489 -0.1117
   36loPI   C2B  574   5.238   8.245   9.434 -0.0417  0.3934  0.1150
   36loPI   C3B  575   5.333   7.877   9.116  0.1917 -0.0737 -0.4392
   36loPI   C4B  576   5.430   7.800   8.676  0.0474 -0.0400  0.1114
   37loPI    C1  577  17.600  18.313  10.762  0.0833  0.2357 -0.0120
   37loPI    C2  578  17.594  18.275  11.160 -0.0433  0.0169 -0.0331
   37loPI    C3  579  17.943  18.313  10.968  0.0221  0.0525  0.0923
   37loPI   PO4  580  17.359  18.310  10.713  0.2246  0.0071 -0.1391
   37loPI   GL1  581  17.276  18.378  10.327 -0.1199  0.0230 -0.0314
   37loPI   GL2  582  17.499  18.316  10.046 -0.1008  0.0276 -0.0310
   37loPI   C1A  583  17.060  18.528   9.873  0.2648 -0.0443 -0.1948
   37loPI   C2A  584  17.001  18.673   9.574  0.2846 -0.1783  0.1253
   37loPI   C3A  585  17.104  18.830   9.112 -0.2369 -0.2233  0.0347
   37loPI   C4A  586  17.175  18.895   8.735  0.0362 -0.2210  0.0353
   37loPI   C5A  587  17.320  19.323   8.493  0.0856  0.1297 -0.2253
   37loPI   C6A  588  17.630  19.530   8.203  0.0571  0.0908  0.0974
   37loPI   C1B  589  17.536  18.367   9.574  0.0389 -0.1179 -0.0729
   37loPI   C2B  590  17.445  18.491   9.170 -0.0134 -0.3487 -0.1740
   37loPI   C3B  591  17.471  18.364   8.644  0.0850 -0.0057  0.0225
   37loPI   C4B  592  17.309  18.104   8.218 -0.3211  0.2553  0.2480
   38loPI    C1  593  14.624  14.221  10.147  0.3250 -0.1614  0.1185
   38loPI    C2  594  14.309  14.010  10.273  0.0035  0.1583 -0.1282
   38loPI    C3  595  14.491  14.265  10.522  0.1321 -0.0958  0.0433
   38loPI   PO4  596  14.639  14.304   9.854  0.0142 -0.1229  0.0274
   38loPI   GL1  597  14.359  14.462   9.551 -0.0062  0.1144  0.1552
   38loPI   GL2  598  14.703  14.421   9.343  0.1010 -0.2969 -0.2162
   38loPI   C1A  599  14.305  14.409   9.092  0.2452  0.0450 -0.0564
   38loPI   C2A  600  14.295  14.186   8.721 -0.0092  0.0129 -0.2990
   38loPI   C3A  601  14.497  14.032   8.299  0.1763 -0.1927  0.2289
   38loPI   C4A  602  14.734  14.091   7.988  0.1255 -0.0553 -0.1159
   38loPI   C5A  603  15.004  14.015   7.802  0.0218 -0.4264 -0.1444
   38loPI   C6A  604  15.318  13.772   7.535  0.1348  0.0138  0.1333
   38loPI   C1B  605  14.691  14.101   9.009 -0.0153 -0.0933 -0.1004
   38loPI   C2B  606  14.897  14.119   8.629  0.1490  0.3385  0.4180
   38loPI   C3B  607  15.076  14.379   8.359  0.0271  0.0222 -0.3390
   38loPI   C4B  608  15.048  14.863   8.385  0.3784 -0.0510  0.3994
   39loPI    C1  609   2.401  18.502  10.539  0.0300  0.0774 -0.1413
   39loPI    C2  610   2.720  18.517  10.780  0.0915  0.1985 -0.2288
   39loPI    C3  611   2.352  18.502  10.936  0.1445 -0.1154 -0.1259
   39loPI   PO4  612   2.489  18.720  10.318 -0.0824  0.0281 -0.0281
   39loPI   GL1  613   2.365  18.448   9.962  0.0222 -0.1503 -0.1440
   39loPI   GL2  614   2.579  18.325   9.730  0.1170 -0.0376  0.4368
   39loPI   C1A  615   2.084  18.521   9.660  0.2568  0.2685 -0.0394
   39loPI   C2A  616   2.145  18.586   9.162  0.2145  0.0398 -0.1137
   39loPI   C3A  617   2.062  18.651   8.668 -0.0647 -0.2498 -0.1352
   39loPI   C4A  618   2.015  18.397   8.366  0.0401 -0.2472  0.0686
   39loPI   C5A  619   2.281  18.292   8.097  0.1368  0.0850 -0.0558
   39loPI   C6A  620   2.758  18.137   8.039  0.0926  0.2342 -0.1565
   39loPI   C1B  621   2.624  18.355   9.244 -0.0716 -0.2200  0.0573
   39loPI   C2B  622   2.677  18.686   8.962  0.3101 -0.1623 -0.2352
   39loPI   C3B  623   2.551  18.923   8.606 -0.1638  0.2596  0.1090
   39loPI   C4B  624   2.555  19.143   8.159  0.0904  0.0787 -0.1640
   40loPI    C1  625  15.538  12.033  10.134  0.0725 -0.0756  0.1539
   40loPI    C2  626  15.602  12.427  10.122 -0.1268 -0.0493 -0.2303
   40loPI    C3  627  15.293  12.281  10.329 -0.0520 -0.0058 -0.0865
   40loPI   PO4  628  15.546  11.973   9.916 -0.3139 -0.1499  0.0731
   40loPI   GL1  629  15.590  12.156   9.498 -0.1751  0.0445  0.0771
   40loPI   GL2  630  15.405  12.479   9.365 -0.6400 -0.1467  0.0872
   40loPI   C1A  631  15.599  12.156   9.064  0.1261 -0.0487 -0.1284
   40loPI   C2A  632  15.932  12.320   8.648 -0.0635  0.0808  0.0651
   40loPI   C3A  633  15.873  12.364   8.209  0.0564  0.1077 -0.0240
   40loPI   C4A  634  15.930  12.826   8.073  0.0051 -0.1138  0.2615
   40loPI   C5A  635  15.965  13.285   8.040 -0.0768  0.3816 -0.2655
   40loPI   C6A  636  16.134  13.529   8.345 -0.1516  0.1898 -0.0011
   40loPI   C1B  637  15.375  12.611   8.931  0.1642  0.1370 -0.1573
   40loPI   C2B  638  15.396  12.491   8.500 -0.1018 -0.1831 -0.0602
   40loPI   C3B  639  15.470  12.660   8.159 -0.0251 -0.3200  0.0414
   40loPI   C4B  640  15.561  12.599   7.749  0.0344 -0.3775 -0.1392
   41loPI    C1  641  13.472   5.782  10.612 -0.0099 -0.2523  0.1021
   41loPI    C2  642  13.251   6.062  10.794 -0.0543 -0.1688 -0.0783
   41loPI    C3  643  13.139   5.678  10.807 -0.0293 -0.1707  0.1130
   41loPI   PO4  644  13.530   5.884  10.413 -0.1188 -0.3073 -0.0644
   41loPI   GL1  645  13.450   5.976   9.994 -0.2275 -0.2098 -0.2362
   41loPI   GL2  646  13.197   5.848   9.804  0.0852 -0.0859  0.0938
   41loPI   C1A  647  13.584   6.261   9.679  0.2103 -0.2183 -0.0313
   41loPI   C2A  648  13.485   6.206   9.234  0.0117  0.0861 -0.1262
   41loPI   C3A  649  13.292   6.095   8.845  0.3231  0.3021  0.0699
   41loPI   C4A  650  13.116   5.840   8.561  0.1950 -0.0194  0.0532
   41loPI   C5A  651  13.008   5.627   8.123  0.4458 -0.1579  0.1964
   41loPI   C6A  652  12.936   5.508   7.734 -0.0748 -0.3601  0.1446
   41loPI   C1B  653  13.133   5.776   9.309 -0.4724  0.0382 -0.0286
   41loPI   C2B  654  13.137   5.442   8.964 -0.0544  0.0817  0.0610
   41loPI   C3B  655  12.832   5.383   8.600  0.1779 -0.0430 -0.0299
   41loPI   C4B  656  12.672   5.149   8.227  0.0339  0.0721 -0.0797
   42loPI    C1  657  11.626  17.478  10.632 -0.1299  0.0852  0.0072
   42loPI    C2  658  11.851  17.209  10.824  0.1939  0.3306 -0.0206
   42loPI    C3  659  11.533  17.370  11.006  0.0108 -0.0486  0.0042
   42loPI   PO4  660  11.665  17.389  10.323 -0.2075 -0.0761  0.0144
   42loPI   GL1  661  11.653  17.332   9.950  0.1090 -0.2700  0.3787
   42loPI   GL2  662  11.373  17.360   9.780 -0.1394 -0.1595  0.0866
   42loPI   C1A  663  11.759  17.308   9.524  0.1458  0.0252  0.0253
   42loPI   C2A  664  11.746  17.052   9.187 -0.0193  0.2149  0.1504
   42loPI   C3A  665  11.525  16.623   9.032 -0.1250  0.0863 -0.0207
   42loPI   C4A  666  11.309  16.410   8.729 -0.1130 -0.2686 -0.1053
   42loPI   C5A  667  11.095  16.270   8.372  0.0506  0.0984 -0.2116
   42loPI   C6A  668  11.041  15.950   7.984 -0.2006 -0.2005  0.0518
   42loPI   C1B  669  11.238  17.474   9.370  0.1558  0.0484 -0.0307
   42loPI   C2B  670  11.066  17.419   8.986  0.4031 -0.0907 -0.1576
   42loPI   C3B  671  11.072  17.273   8.555 -0.1112  0.1679  0.5509
   42loPI   C4B  672  11.334  17.082   8.151  0.0213 -0.0016  0.1920
   43loPI    C1  673  13.815   3.801  10.933  0.0235  0.0255 -0.1496
   43loPI    C2  674  13.423   3.836  11.006  0.0098  0.0413 -0.2303
   43loPI    C3  675  13.649   4.164  10.965  0.0304  0.0322 -0.1897
   43loPI   PO4  676  14.005   3.673  10.730  0.3048  0.5889  0.1245
   43loPI   GL1  677  14.022   3.712  10.284 -0.1514  0.1663 -0.2741
   43loPI   GL2  678  14.205   3.915  10.192 -0.2971  0.2040  0.1833
   43loPI   C1A  679  13.677   3.581  10.035  0.1248  0.0101 -0.3878
   43loPI   C2A  680  13.671   3.625   9.653  0.3349 -0.1042 -0.4529
   43loPI   C3A  681  13.820   3.779   9.258  0.1313 -0.3622  0.0014
   43loPI   C4A  682  13.987   3.809   8.886  0.0041  0.1223 -0.1846
   43loPI   C5A  683  14.204   3.619   8.470  0.3481 -0.0552 -0.2729
   43loPI   C6A  684  14.225   3.779   7.992 -0.0261 -0.0795 -0.2155
   43loPI   C1B  685  14.174   3.746   9.761 -0.0093 -0.2010 -0.0795
   43loPI   C2B  686  14.336   3.811   9.338 -0.0611  0.0515 -0.0845
   43loPI   C3B  687  14.497   3.573   8.963  0.0803  0.0565  0.1222
   43loPI   C4B  688  14.929   3.641   8.732  0.3110 -0.3897 -0.1513
   44loPI    C1  689   3.896  16.204  10.344 -0.2339  0.0257  0.1867
   44loPI    C2  690   4.287  16.285  10.354 -0.2349  0.0578  0.0008
   44loPI    C3  691   4.107  16.132  10.676 -0.1160  0.2536  0.1629
   44loPI   PO4  692   3.895  16.085  10.135  0.0550 -0.1246  0.0643
   44loPI   GL1  693   3.906  16.126   9.641 -0.1077 -0.0517 -0.0064
   44loPI   GL2  694   4.119  16.354   9.478 -0.3834 -0.0331  0.3332
   44loPI   C1A  695   3.916  15.891   9.341  0.1515 -0.1395  0.1678
   44loPI   C2A  696   3.734  15.685   8.969 -0.1827 -0.1026 -0.2488
   44loPI   C3A  697   3.549  15.668   8.552 -0.4553  0.2696  0.0482
   44loPI   C4A  698   3.289  15.758   8.141 -0.1726 -0.0500  0.2594
   44loPI   C5A  699   3.006  15.970   7.849  0.2352 -0.1778 -0.2812
   44loPI   C6A  700   2.807  16.375   7.848 -0.4086 -0.0289 -0.0249
   44loPI   C1B  701   4.292  16.188   9.120  0.0564 -0.0143  0.0955
   44loPI   C2B  702   4.255  15.746   8.932  0.1556 -0.3161 -0.1163
   44loPI   C3B  703   4.197  15.543   8.576 -0.4966  0.1663 -0.2586
   44loPI   C4B  704   4.448  15.454   8.155 -0.1498  0.0169 -0.0631
   45loPI    C1  705  18.104   4.535  10.477 -0.2008 -0.0512  0.2708
   45loPI    C2  706  18.326   4.616  10.799  0.1681  0.4141 -0.0858
   45loPI    C3  707  17.932   4.682  10.806  0.0926 -0.0186  0.4124
   45loPI   PO4  708  18.243   4.692  10.275 -0.2134 -0.0023  0.0660
   45loPI   GL1  709  18.316   4.520   9.854 -0.1321 -0.2613  0.0723
   45loPI   GL2  710  18.418   4.282   9.938  0.0219 -0.2000 -0.1193
   45loPI   C1A  711  18.298   4.573   9.381  0.0982 -0.2290 -0.0520
   45loPI   C2A  712  18.191   4.712   8.989  0.2700  0.2573  0.0004
   45loPI   C3A  713  18.271   4.693   8.594 -0.0835 -0.0432 -0.1408
   45loPI   C4A  714  18.244   4.517   8.257 -0.1263 -0.1103 -0.0976
   45loPI   C5A  715  17.951   4.207   8.097 -0.1082  0.2012  0.0747
   45loPI   C6A  716  18.157   3.840   7.988 -0.1927  0.4290 -0.1328
   45loPI   C1B  717  18.200   4.103   9.582 -0.2894 -0.1966  0.0163
   45loPI   C2B  718  18.161   4.073   9.127 -0.1415  0.2611  0.2857
   45loPI   C3B  719  18.016   3.889   8.663 -0.1009 -0.1877  0.2491
   45loPI   C4B  720  17.632   3.899   8.447 -0.0194 -0.4021 -0.0872
   46loPI    C1  721   1.483   7.326  10.146 -0.0093  0.0973  0.1980
   46loPI    C2  722   1.222   7.436  10.429 -0.1741  0.0355  0.0717
   46loPI    C3  723   1.588   7.598  10.421 -0.1888  0.0823  0.2829
   46loPI   PO4  724   1.296   7.245   9.907  0.1326 -0.0266  0.0967
   46loPI   GL1  725   1.131   7.056   9.560  0.2264 -0.0518 -0.1946
   46loPI   GL2  726   0.849   7.263   9.693  0.0490  0.0598 -0.0314
   46loPI   C1A  727   0.997   7.158   9.186  0.3325 -0.3058 -0.3430
   46loPI   C2A  728   1.084   7.029   8.736  0.2144  0.3530  0.1212
   46loPI   C3A  729   1.190   6.745   8.469  0.0320  0.0431 -0.1939
   46loPI   C4A  730   1.263   6.453   8.014 -0.1118  0.1256  0.2638
   46loPI   C5A  731   1.100   6.675   7.757 -0.0070 -0.3216 -0.2176
   46loPI   C6A  732   0.867   6.955   7.465  0.1122 -0.3266 -0.3520
   46loPI   C1B  733   0.503   7.343   9.405 -0.0201 -0.2926 -0.2770
   46loPI   C2B  734   0.380   7.598   9.042 -0.0998 -0.2684  0.0382
   46loPI   C3B  735   0.363   7.750   8.691  0.0093  0.0074  0.2126
   46loPI   C4B  736   0.145   7.838   8.427 -0.0687 -0.1329  0.2767
   47loPI    C1  737   2.263   4.664  10.985 -0.0799 -0.1043 -0.0216
   47loPI    C2  738   2.600   4.756  11.180  0.0370 -0.1013 -0.2222
   47loPI    C3  739   2.257   4.718  11.381  0.1146  0.1105 -0.0459
   47loPI   PO4  740   2.405   4.858  10.704 -0.0876  0.3326 -0.0092
   47loPI   GL1  741   2.507   4.928  10.243  0.1569 -0.3152  0.0903
   47loPI   GL2  742   2.444   4.639  10.118  0.3249  0.1494 -0.2135
   47loPI   C1A  743   2.729   5.162   9.921 -0.0638 -0.1702  0.0430
   47loPI   C2A  744   2.892   5.168   9.509  0.4847 -0.0979  0.1240
   47loPI   C3A  745   2.789   5.070   9.133  0.0217  0.0406  0.0887
   47loPI   C4A  746   2.388   4.878   8.777  0.0816 -0.0779  0.0347
   47loPI   C5A  747   2.068   4.669   8.724 -0.0245  0.2314 -0.2728
   47loPI   C6A  748   1.687   4.864   8.862  0.1423 -0.1456  0.1091
   47loPI   C1B  749   2.662   4.673   9.859 -0.2449 -0.0690 -0.0160
   47loPI   C2B  750   3.072   4.795   9.757 -0.0045 -0.1456 -0.2681
   47loPI   C3B  751   3.152   4.689   9.331 -0.2223  0.2133  0.1096
   47loPI   C4B  752   3.303   4.545   9.017 -0.2070  0.0948 -0.1758
   48loPI    C1  753   9.319  10.800  10.446 -0.0571  0.0555 -0.1210
   48loPI    C2  754   9.381  10.909  10.066  0.2755 -0.0621 -0.1037
   48loPI    C3  755   9.066  11.052  10.267  0.0874 -0.0128 -0.4276
   48loPI   PO4  756   9.361  10.480  10.373 -0.0448 -0.0200  0.0452
   48loPI   GL1  757   9.196  10.424   9.991 -0.2661 -0.0681  0.0107
   48loPI   GL2  758   9.464  10.129   9.943  0.1395  0.0616 -0.1651
   48loPI   C1A  759   9.125  10.325   9.500  0.0090 -0.0501  0.2267
   48loPI   C2A  760   8.900   9.939   9.242 -0.3454 -0.1667  0.1622
   48loPI   C3A  761   8.732   9.859   8.745 -0.5459 -0.4719 -0.2116
   48loPI   C4A  762   9.011   9.689   8.475  0.0344 -0.2031  0.3429
   48loPI   C5A  763   9.162   9.413   8.280  0.0995  0.3077 -0.1021
   48loPI   C6A  764   9.129   9.103   8.028  0.0858 -0.1079  0.1459
   48loPI   C1B  765   9.584  10.015   9.582  0.2352 -0.0731  0.0361
   48loPI   C2B  766   9.451   9.970   9.238  0.1081 -0.3702  0.0032
   48loPI   C3B  767   9.239   9.978   8.860  0.1413 -0.1745  0.0317
   48loPI   C4B  768   9.293  10.215   8.504 -0.1346  0.1524  0.0526
   49loPI    C1  769   1.363  11.224   9.947  0.1284  0.1854 -0.0486
   49loPI    C2  770   1.195  11.574  10.044  0.0255  0.0952  0.1032
   49loPI    C3  771   1.552  11.476  10.193  0.0552  0.1357  0.0591
   49loPI   PO4  772   1.336  11.141   9.727 -0.1199  0.2223  0.1368
   49loPI   GL1  773   1.569  11.064   9.364  0.1818 -0.2635  0.4271
   49loPI   GL2  774   1.362  11.337   9.288  0.1629  0.1397 -0.0813
   49loPI   C1A  775   1.492  10.742   9.123 -0.1851  0.0238  0.1902
   49loPI   C2A  776   1.553  10.759   8.755  0.4799 -0.0213  0.1033
   49loPI   C3A  777   1.355  10.808   8.305 -0.1486 -0.0024 -0.0187
   49loPI   C4A  778   1.167  10.735   7.962  0.2535 -0.0392  0.1347
   49loPI   C5A  779   0.954  10.487   7.638  0.2945  0.1613 -0.0486
   49loPI   C6A  780   0.503  10.605   7.502 -0.2911  0.0147  0.1812
   49loPI   C1B  781   1.162  11.186   8.817 -0.0251  0.2335 -0.0712
   49loPI   C2B  782   0.927  10.906   8.489  0.2169  0.0237  0.0823
   49loPI   C3B  783   0.462  10.824   8.467 -0.0594 -0.0428 -0.1394
   49loPI   C4B  784   0.225  10.662   8.100  0.0690  0.1331  0.2938
   50loPI    C1  785  13.935   0.427  11.255 -0.1547  0.3061 -0.1963
   50loPI    C2  786  13.997   0.199  11.578 -0.0973  0.0412 -0.3910
   50loPI    C3  787  13.823   0.557  11.616 -0.0611  0.0263 -0.0635
   50loPI   PO4  788  13.962   0.275  11.011 -0.1152 -0.2620 -0.1357
   50loPI   GL1  789  14.010   0.288  10.510  0.1570 -0.0152  0.1007
   50loPI   GL2  790  13.990   0.541  10.396  0.0671  0.0803 -0.2120
   50loPI   C1A  791  14.102   0.257   9.959 -0.0208  0.0658 -0.0168
   50loPI   C2A  792  14.087   0.432   9.592 -0.1401 -0.0534 -0.1073
   50loPI   C3A  793  14.028   0.396   9.273 -0.0708  0.1134 -0.1173
   50loPI   C4A  794  13.902   0.539   8.896  0.0481 -0.0006  0.1773
   50loPI   C5A  795  13.631   0.490   8.495  0.1912  0.0212  0.1144
   50loPI   C6A  796  13.386   0.822   8.289  0.0746 -0.0109  0.0471
   50loPI   C1B  797  14.145   0.749  10.016  0.2922  0.1484 -0.0525
   50loPI   C2B  798  14.180   0.891   9.559 -0.0387 -0.2064 -0.1412
   50loPI   C3B  799  14.153   0.876   9.195 -0.0575  0.0668  0.1341
   50loPI   C4B  800  14.156   0.967   8.734  0.0175 -0.1248  0.0576
   51loPI    C1  801   8.636  13.647   9.682  0.2788 -0.0891 -0.1571
   51loPI    C2  802   8.946  13.557   9.918  0.2345  0.1204 -0.0163
   51loPI    C3  803   8.607  13.347   9.945  0.2719  0.0644  0.0194
   51loPI   PO4  804   8.738  13.611   9.449  0.0061  0.1500  0.2754
   51loPI   GL1  805   8.870  13.846   9.220  0.2324  0.1044 -0.1454
   51loPI   GL2  806   9.164  14.007   9.233  0.0129 -0.0088  0.0313
   51loPI   C1A  807   9.009  13.787   8.759 -0.1196 -0.3499 -0.1564
   51loPI   C2A  808   9.095  13.693   8.308 -0.0512  0.0526  0.0468
   51loPI   C3A  809   9.100  13.906   7.919 -0.3002 -0.0544 -0.2556
   51loPI   C4A  810   8.857  14.100   7.667  0.4205  0.2448 -0.0122
   51loPI   C5A  811   8.637  14.547   7.776  0.1413 -0.2806  0.0578
   51loPI   C6A  812   8.341  14.818   7.843 -0.4242  0.0890  0.1289
   51loPI   C1B  813   9.125  14.242   8.874 -0.0937 -0.2071  0.0427
   51loPI   C2B  814   9.175  14.353   8.463  0.1189 -0.1919  0.2578
   51loPI   C3B  815   9.123  14.423   8.038 -0.1478 -0.0758  0.0358
   51loPI   C4B  816   9.224  14.631   7.722 -0.1164  0.2602  0.1135
   52loPI    C1  817   5.737   1.155  10.211 -0.0695 -0.0347  0.0657
   52loPI    C2  818   6.074   1.304  10.367  0.0163 -0.0332 -0.1186
   52loPI    C3  819   5.792   1.154  10.607  0.2774 -0.3114  0.0215
   52loPI   PO4  820   5.684   1.306   9.963  0.0394 -0.2477 -0.0582
   52loPI   GL1  821   5.853   1.521   9.766 -0.0202  0.3117  0.1120
   52loPI   GL2  822   6.216   1.537   9.652 -0.1827  0.2639  0.0854
   52loPI   C1A  823   5.813   1.825   9.412 -0.3374  0.2183  0.1874
   52loPI   C2A  824   5.950   1.488   9.149 -0.1565 -0.2179  0.2070
   52loPI   C3A  825   5.964   1.480   8.661 -0.1095  0.2590  0.0582
   52loPI   C4A  826   6.078   1.441   8.245  0.0836 -0.1391  0.0592
   52loPI   C5A  827   6.211   1.568   7.850  0.0394  0.1432  0.2653
   52loPI   C6A  828   6.513   1.797   7.588 -0.3590 -0.1184 -0.0039
   52loPI   C1B  829   6.404   1.233   9.369  0.0295 -0.3205  0.1292
   52loPI   C2B  830   6.379   1.098   8.936  0.0751 -0.1876  0.0063
   52loPI   C3B  831   6.482   1.221   8.524  0.1668 -0.0230  0.1835
   52loPI   C4B  832   6.539   1.296   8.094 -0.0815 -0.2345  0.0084
   53loPI    C1  833   7.760  11.309   9.813  0.0552 -0.1304 -0.0385
   53loPI    C2  834   7.442  11.325  10.055  0.1238  0.2221  0.0334
   53loPI    C3  835   7.811  11.321  10.210  0.1627  0.2049 -0.0594
   53loPI   PO4  836   7.739  11.422   9.567  0.2137  0.1586 -0.0933
   53loPI   GL1  837   7.516  11.598   9.150 -0.1868  0.1197 -0.0864
   53loPI   GL2  838   7.150  11.733   9.103  0.0595  0.0272  0.1992
   53loPI   C1A  839   7.693  11.245   8.899 -0.5518  0.0650  0.3963
   53loPI   C2A  840   7.566  11.051   8.450  0.1434 -0.0464  0.3003
   53loPI   C3A  841   7.296  10.954   8.033 -0.2359  0.2389  0.4387
   53loPI   C4A  842   7.101  10.618   7.702 -0.3078  0.1727  0.2122
   53loPI   C5A  843   6.999  10.423   7.329 -0.1272 -0.2128 -0.0679
   53loPI   C6A  844   6.854  10.111   6.988  0.1614 -0.1319  0.0087
   53loPI   C1B  845   7.338  11.689   8.714 -0.1799 -0.1079 -0.0790
   53loPI   C2B  846   7.457  11.663   8.327  0.2219 -0.2018 -0.0774
   53loPI   C3B  847   7.486  11.780   7.921  0.0338  0.0877 -0.1256
   53loPI   C4B  848   7.469  11.883   7.538 -0.1548  0.3271 -0.2608
   54loPI    C1  849   0.213  18.105  10.965  0.1161  0.3803  0.1279
   54loPI    C2  850   0.552  17.894  10.979  0.1623  0.4421 -0.0335
   54loPI    C3  851   0.344  17.961  11.314 -0.0854 -0.2339 -0.0362
   54loPI   PO4  852   0.250  18.199  10.666 -0.2799 -0.0635 -0.2000
   54loPI   GL1  853   0.032  18.118  10.335 -0.2814  0.1041 -0.1019
   54loPI   GL2  854   0.418  18.037  10.258  0.2302 -0.2440 -0.1110
   54loPI   C1A  855   0.070  18.221   9.887  0.0004  0.0327  0.0187
   54loPI   C2A  856   0.177  18.150   9.440  0.2386 -0.3597 -0.0227
   54loPI   C3A  857   0.060  17.976   9.082 -0.1839 -0.1661  0.0630
   54loPI   C4A  858  -0.002  17.994   8.654  0.2427  0.0267 -0.1043
   54loPI   C5A  859   0.039  17.901   8.194  0.0562  0.2412  0.4067
   54loPI   C6A  860   0.021  18.118   7.878 -0.0095  0.0558  0.2416
   54loPI   C1B  861   0.532  18.310   9.958  0.1430 -0.2029 -0.0720
   54loPI   C2B  862   0.585  18.450   9.555  0.0299  0.1875  0.0058
   54loPI   C3B  863   0.769  18.614   9.175  0.0945 -0.0399  0.1173
   54loPI   C4B  864   0.748  18.438   8.741  0.0405  0.0915  0.3124
   55loPI    C1  865   8.888  16.624  10.085  0.0348 -0.2490  0.0810
   55loPI    C2  866   9.075  16.802  10.390  0.1721 -0.1870 -0.0385
   55loPI    C3  867   8.755  16.573  10.459  0.2134 -0.1888  0.1540
   55loPI   PO4  868   8.800  16.828   9.924  0.0375 -0.1596 -0.2814
   55loPI   GL1  869   8.773  16.954   9.538 -0.1460  0.4082  0.4968
   55loPI   GL2  870   8.417  17.167   9.504  0.1615  0.1365 -0.2942
   55loPI   C1A  871   8.912  17.247   9.225 -0.1780 -0.4131 -0.2223
   55loPI   C2A  872   9.106  17.325   8.982 -0.2058  0.3032  0.1313
   55loPI   C3A  873   9.249  17.160   8.597  0.3546 -0.2096 -0.0902
   55loPI   C4A  874   9.391  17.193   8.215  0.0837  0.1056 -0.2461
   55loPI   C5A  875   9.132  17.033   7.885  0.0082  0.1532 -0.0153
   55loPI   C6A  876   9.013  16.752   7.615 -0.1056 -0.0475 -0.1739
   55loPI   C1B  877   8.494  16.993   9.108  0.0858  0.4152  0.3844
   55loPI   C2B  878   8.655  17.228   8.829  0.0135 -0.0102 -0.1254
   55loPI   C3B  879   8.743  17.296   8.462 -0.2169 -0.4072  0.2356
   55loPI   C4B  880   8.973  17.523   8.068 -0.0796 -0.0889 -0.1371
   56loPI    C1  881   8.006   7.260  10.631 -0.1329 -0.0929  0.2476
   56loPI    C2  882   8.378   7.135  10.709 -0.0229  0.0619 -0.0163
   56loPI    C3  883   8.138   7.247  11.009  0.1509 -0.0153  0.1539
   56loPI   PO4  884   8.082   7.251  10.343  0.4963 -0.1617  0.0111
   56loPI   GL1  885   7.898   7.250   9.980 -0.0833  0.0307 -0.0177
   56loPI   GL2  886   7.768   7.579  10.124  0.5968  0.1350  0.2053
   56loPI   C1A  887   7.962   7.079   9.614 -0.0025 -0.4075 -0.1004
   56loPI   C2A  888   7.759   7.112   9.284  0.1593 -0.1144 -0.0485
   56loPI   C3A  889   7.519   7.079   8.834 -0.0644  0.2614  0.0705
   56loPI   C4A  890   7.462   7.408   8.675  0.1302 -0.0144 -0.1969
   56loPI   C5A  891   7.429   7.699   8.310  0.0218 -0.0423 -0.1528
   56loPI   C6A  892   7.399   8.115   8.153 -0.3406  0.0732  0.1332
   56loPI   C1B  893   7.612   7.564   9.615  0.1036 -0.3941  0.0219
   56loPI   C2B  894   7.783   7.610   9.160  0.2351 -0.1288 -0.0518
   56loPI   C3B  895   7.983   7.855   8.799  0.0051 -0.0538  0.0221
   56loPI   C4B  896   7.865   7.862   8.469  0.0608 -0.0113  0.2039
   57loPI    C1  897  18.038   9.339  10.005 -0.0427 -0.1576  0.0083
   57loPI    C2  898  17.965   8.956  10.096  0.2953 -0.2418 -0.0570
   57loPI    C3  899  18.114   9.203  10.373 -0.1155 -0.0987  0.0453
   57loPI   PO4  900  18.163   9.216   9.664  0.0332  0.1985 -0.2093
   57loPI   GL1  901  18.020   8.998   9.278 -0.1223  0.2874 -0.0206
   57loPI   GL2  902  18.276   8.828   9.139  0.0182 -0.0439 -0.1783
   57loPI   C1A  903  17.751   9.176   8.868  0.1126  0.1596  0.1809
   57loPI   C2A  904  17.868   9.262   8.418 -0.1920  0.2551 -0.0150
   57loPI   C3A  905  17.969   9.208   7.995  0.1057 -0.0281  0.0448
   57loPI   C4A  906  17.719   9.151   7.708 -0.0069  0.2392  0.2458
   57loPI   C5A  907  17.397   9.375   7.661  0.2067  0.0875  0.0479
   57loPI   C6A  908  17.127   9.710   7.671 -0.0657  0.0070 -0.1273
   57loPI   C1B  909  18.257   8.954   8.682  0.1511  0.2435 -0.0265
   57loPI   C2B  910  18.366   9.018   8.239 -0.2897  0.1585  0.2001
   57loPI   C3B  911  18.596   9.019   7.857 -0.0306  0.1641 -0.1113
   57loPI   C4B  912  18.709   9.094   7.470  0.1469 -0.0851  0.2664
   58loPI    C1  913   6.005   0.698  10.353  0.0513 -0.0750 -0.1947
   58loPI    C2  914   5.974   0.320  10.480  0.0329 -0.0168 -0.0231
   58loPI    C3  915   5.829   0.618  10.704  0.0171  0.0896 -0.1737
   58loPI   PO4  916   5.990   0.690  10.117  0.0814 -0.1352 -0.2472
   58loPI   GL1  917   6.005   0.615   9.691 -0.2897  0.0021 -0.0305
   58loPI   GL2  918   5.898   0.966   9.563 -0.0010 -0.0364 -0.0302
   58loPI   C1A  919   5.991   0.460   9.295 -0.1211  0.0264  0.0935
   58loPI   C2A  920   5.842   0.475   8.769 -0.1745  0.0065 -0.0242
   58loPI   C3A  921   5.906   0.532   8.267 -0.0958  0.3194  0.3230
   58loPI   C4A  922   5.955   0.442   7.815 -0.0338 -0.0607 -0.1208
   58loPI   C5A  923   5.982   0.054   7.569  0.1907 -0.1107 -0.1686
   58loPI   C6A  924   6.075  -0.111   7.123  0.5003 -0.0718 -0.1182
   58loPI   C1B  925   5.953   0.939   9.104 -0.1236 -0.1597 -0.2401
   58loPI   C2B  926   5.987   0.961   8.622  0.0081  0.2931 -0.0005
   58loPI   C3B  927   5.772   1.008   8.299  0.1132 -0.2797  0.3741
   58loPI   C4B  928   5.501   0.967   7.950 -0.1043  0.1556 -0.2853
   59loPI    C1  929   0.269   5.209  10.237 -0.2005 -0.0904  0.2652
   59loPI    C2  930   0.406   5.568  10.349 -0.0877 -0.0113 -0.1119
   59loPI    C3  931   0.021   5.475  10.405 -0.0368  0.0208  0.3333
   59loPI   PO4  932   0.315   5.118   9.908 -0.0228 -0.1436 -0.3331
   59loPI   GL1  933   0.752   5.084   9.755  0.1405 -0.2411  0.1675
   59loPI   GL2  934   0.861   5.396   9.497  0.0801  0.0707  0.0336
   59loPI   C1A  935   0.829   4.846   9.446  0.1857 -0.0169  0.2570
   59loPI   C2A  936   0.932   4.739   9.011  0.0065  0.2620 -0.2369
   59loPI   C3A  937   1.214   4.663   8.648 -0.1686 -0.1910  0.1226
   59loPI   C4A  938   1.453   4.910   8.374  0.0318 -0.0987  0.2278
   59loPI   C5A  939   1.814   5.038   8.413 -0.1592  0.0647 -0.1067
   59loPI   C6A  940   1.898   5.330   8.661 -0.0182  0.1856 -0.4090
   59loPI   C1B  941   0.911   5.250   9.087 -0.1263 -0.0535 -0.2632
   59loPI   C2B  942   0.959   5.233   8.685 -0.1520 -0.0969 -0.0105
   59loPI   C3B  943   0.984   5.023   8.240 -0.1438  0.2253  0.0306
   59loPI   C4B  944   0.644   4.891   7.910  0.0861 -0.3534  0.1070
   60loPI    C1  945  13.338  13.287  10.323  0.1303  0.2676 -0.2020
   60loPI    C2  946  13.653  13.412  10.536  0.1647 -0.0346 -0.0707
   60loPI    C3  947  13.292  13.394  10.706  0.1220  0.0777 -0.1488
   60loPI   PO4  948  13.397  13.117  10.073 -0.1242 -0.1098 -0.3549
   60loPI   GL1  949  13.418  13.265   9.623 -0.1381 -0.1613  0.1917
   60loPI   GL2  950  13.526  13.085   9.388  0.2631  0.1684 -0.1491
   60loPI   C1A  951  13.294  13.554   9.442  0.0424  0.1845  0.3579
   60loPI   C2A  952  13.219  13.592   9.008  0.0647 -0.3212 -0.3369
   60loPI   C3A  953  13.251  13.471   8.645  0.0066  0.0705  0.2422
   60loPI   C4A  954  13.300  13.414   8.257 -0.0821  0.1401 -0.0160
   60loPI   C5A  955  13.460  13.605   7.952  0.0951  0.2080  0.0584
   60loPI   C6A  956  13.777  13.645   7.667  0.2046  0.0526 -0.2041
   60loPI   C1B  957  13.489  13.216   8.986  0.2596  0.2653  0.2766
   60loPI   C2B  958  13.615  13.151   8.589 -0.0077 -0.1442 -0.0808
   60loPI   C3B  959  13.809  13.394   8.269  0.3441 -0.1072  0.2082
   60loPI   C4B  960  13.800  13.200   7.898  0.3134  0.2042 -0.1373
   61loPI    C1  961   8.817   6.037  10.666 -0.0543 -0.0220 -0.0162
   61loPI    C2  962   8.720   5.673  10.802  0.2614 -0.1157 -0.0336
   61loPI    C3  963   8.893   5.938  11.046  0.0321  0.0256 -0.0210
   61loPI   PO4  964   8.953   5.991  10.381  0.0323 -0.0192 -0.0854
   61loPI   GL1  965   8.809   5.953   9.998  0.0923 -0.2765  0.1889
   61loPI   GL2  966   9.097   6.230  10.000 -0.0228 -0.1308  0.1395
   61loPI   C1A  967   8.726   5.786   9.545  0.1043  0.0790  0.0071
   61loPI   C2A  968   8.796   5.629   9.222 -0.1385 -0.0573  0.2746
   61loPI   C3A  969   8.853   5.592   8.744  0.2224  0.3003 -0.2827
   61loPI   C4A  970   8.954   5.858   8.464 -0.2169  0.0629  0.1723
   61loPI   C5A  971   8.901   6.312   8.262  0.0797 -0.1234  0.0599
   61loPI   C6A  972   9.147   6.555   7.943  0.0148 -0.0611  0.4848
   61loPI   C1B  973   9.382   6.198   9.667  0.0438 -0.1994  0.2480
   61loPI   C2B  974   9.723   5.979   9.462  0.0703  0.1679  0.1032
   61loPI   C3B  975   9.688   5.766   8.987  0.1551  0.0172 -0.0315
   61loPI   C4B  976  10.012   5.553   8.865 -0.0409  0.0110  0.0547
   62loPI    C1  977   7.708   9.117  10.379 -0.1399  0.0773  0.0166
   62loPI    C2  978   7.449   8.857  10.539  0.0310 -0.1188 -0.0205
   62loPI    C3  979   7.584   9.165  10.756 -0.2731  0.0171 -0.0187
   62loPI   PO4  980   7.665   9.187  10.201  0.3677 -0.0701  0.1222
   62loPI   GL1  981   7.561   9.186   9.805 -0.1284  0.1904  0.1648
   62loPI   GL2  982   7.339   8.996   9.619 -0.0501 -0.0544 -0.3419
   62loPI   C1A  983   7.803   9.136   9.502  0.1069 -0.3197 -0.0040
   62loPI   C2A  984   8.026   8.877   9.323  0.0850  0.0949  0.1044
   62loPI   C3A  985   8.007   8.686   8.908 -0.1071  0.2651 -0.2461
   62loPI   C4A  986   7.940   8.711   8.470  0.3016  0.1751 -0.0321
   62loPI   C5A  987   7.824   8.914   8.084  0.0039 -0.2148 -0.1265
   62loPI   C6A  988   7.685   9.208   7.754  0.4551 -0.2316 -0.0517
   62loPI   C1B  989   7.310   9.254   9.182 -0.1856  0.3100 -0.0437
   62loPI   C2B  990   7.182   9.277   8.776 -0.1483 -0.0338 -0.1797
   62loPI   C3B  991   7.220   9.546   8.442  0.0546  0.0527 -0.2140
   62loPI   C4B  992   7.486   9.618   8.040  0.0786 -0.2382  0.1075
   63loPI    C1  993   5.169   0.792  10.227 -0.1851  0.0040  0.1531
   63loPI    C2  994   5.356   0.853  10.576  0.1564 -0.0281 -0.0202
   63loPI    C3  995   5.500   0.586  10.315 -0.2086 -0.1486 -0.1056
   63loPI   PO4  996   5.165   1.001  10.134 -0.1013  0.2124  0.2499
   63loPI   GL1  997   5.217   1.207   9.763  0.1150  0.2353  0.0243
   63loPI   GL2  998   4.987   1.241   9.735 -0.1751  0.0202 -0.0265
   63loPI   C1A  999   5.411   1.258   9.350 -0.0666 -0.0412 -0.2115
   63loPI   C2A 1000   5.535   1.376   8.879 -0.2422  0.1367 -0.0611
   63loPI   C3A 1001   5.519   1.597   8.445 -0.1773  0.2143  0.1755
   63loPI   C4A 1002   5.587   1.445   8.074  0.1948 -0.5635 -0.1829
   63loPI   C5A 1003   5.744   1.338   7.619  0.1250  0.2045 -0.3293
   63loPI   C6A 1004   5.735   0.939   7.451  0.0370  0.2152  0.0644
   63loPI   C1B 1005   4.922   1.376   9.425  0.0608 -0.2123 -0.1848
   63loPI   C2B 1006   5.005   1.457   9.043  0.0357  0.2446 -0.1307
   63loPI   C3B 1007   5.118   1.757   8.689 -0.0589  0.1188  0.1349
   63loPI   C4B 1008   5.096   1.789   8.199 -0.1552  0.3661 -0.0644
   64loPI    C1 1009  17.287   5.152  10.031  0.0975  0.2561  0.0693
   64loPI    C2 1010  16.943   5.033  10.195  0.0806  0.2782  0.0497
   64loPI    C3 1011  17.215   5.224  10.418  0.0809  0.2596  0.0656
   64loPI   PO4 1012  17.407   4.967   9.875  0.2332 -0.0994  0.0746
   64loPI   GL1 1013  17.754   4.967   9.477  0.0114  0.0280 -0.1624
   64loPI   GL2 1014  18.024   5.062   9.483 -0.2408  0.1342 -0.2865
   64loPI   C1A 1015  17.730   4.932   9.069 -0.1621 -0.0098  0.2747
   64loPI   C2A 1016  17.798   4.896   8.679 -0.0809 -0.2531  0.2570
   64loPI   C3A 1017  17.783   4.768   8.243 -0.0833  0.1299  0.3081
   64loPI   C4A 1018  17.447   4.366   8.106  0.0775  0.2568 -0.1319
   64loPI   C5A 1019  16.923   4.401   8.247 -0.4996  0.1001 -0.0569
   64loPI   C6A 1020  16.562   4.597   8.173  0.0496  0.1173  0.0794
   64loPI   C1B 1021  18.265   5.181   9.178  0.2296  0.0179  0.3440
   64loPI   C2B 1022  18.212   5.142   8.776 -0.1452 -0.0142 -0.2325
   64loPI   C3B 1023  18.223   5.122   8.336 -0.1892 -0.1443  0.0240
   64loPI   C4B 1024  18.130   5.261   7.945  0.1540  0.0529  0.0942
   65loPI    C1 1025   6.706   5.227  10.541  0.0070 -0.1169  0.2304
   65loPI    C2 1026   6.862   5.593  10.582 -0.3686  0.0560  0.1553
   65loPI    C3 1027   6.794   5.367  10.905  0.1910 -0.0939  0.1783
   65loPI   PO4 1028   6.837   5.111  10.376  0.3292 -0.1569  0.0051
   65loPI   GL1 1029   6.834   5.013  10.014  0.2661  0.0039 -0.0981
   65loPI   GL2 1030   6.510   4.857   9.994 -0.2285 -0.1225 -0.2194
   65loPI   C1A 1031   6.687   5.262   9.696  0.2452 -0.0004  0.0198
   65loPI   C2A 1032   6.354   5.273   9.431  0.1637  0.2308  0.1457
   65loPI   C3A 1033   6.042   5.547   9.296 -0.1724  0.1931  0.1586
   65loPI   C4A 1034   5.619   5.555   9.218  0.0798 -0.2379  0.0455
   65loPI   C5A 1035   5.204   5.344   9.111 -0.1041  0.3023  0.0116
   65loPI   C6A 1036   5.096   5.193   9.412  0.1113 -0.0775  0.1114
   65loPI   C1B 1037   6.306   4.859   9.636 -0.1843  0.1683  0.1566
   65loPI   C2B 1038   6.198   4.850   9.194  0.0302 -0.0689  0.0718
   65loPI   C3B 1039   6.135   4.622   8.873 -0.2785  0.0710  0.1482
   65loPI   C4B 1040   6.323   4.801   8.528  0.2742  0.1846  0.0765
   66loPI    C1 1041  14.447   0.319  11.326  0.0624 -0.1955 -0.0024
   66loPI    C2 1042  14.313   0.655  11.497 -0.0364 -0.0389 -0.3777
   66loPI    C3 1043  14.566   0.416  11.695  0.0801  0.2846 -0.1286
   66loPI   PO4 1044  14.480   0.398  11.038  0.1486 -0.0962 -0.0835
   66loPI   GL1 1045  14.465   0.517  10.543 -0.1444 -0.2421  0.0525
   66loPI   GL2 1046  14.510   0.835  10.618 -0.0050 -0.1940 -0.2719
   66loPI   C1A 1047  14.555   0.418  10.164 -0.0074  0.0069 -0.2606
   66loPI   C2A 1048  14.588   0.448   9.776  0.2926  0.2238  0.0677
   66loPI   C3A 1049  14.642   0.560   9.323  0.1255  0.0751 -0.0938
   66loPI   C4A 1050  14.528   0.717   8.938  0.0455  0.2371 -0.2422
   66loPI   C5A 1051  14.387   0.479   8.642  0.3529  0.2358  0.1370
   66loPI   C6A 1052  14.539   0.083   8.465 -0.0412 -0.4137 -0.0359
   66loPI   C1B 1053  14.591   1.009  10.222 -0.4089  0.3657  0.0526
   66loPI   C2B 1054  14.598   0.989   9.813  0.1508 -0.0676 -0.3550
   66loPI   C3B 1055  14.560   1.062   9.363 -0.4371 -0.0979 -0.1963
   66loPI   C4B 1056  14.630   1.202   8.968  0.1104  0.1046 -0.0692
   67loPI    C1 1057  17.294   7.973  10.047  0.1340 -0.1493  0.0472
   67loPI    C2 1058  17.426   7.629  10.203  0.2135 -0.0728  0.1509
   67loPI    C3 1059  17.036   7.718  10.216  0.1720 -0.2249 -0.0086
   67loPI   PO4 1060  17.393   8.035   9.713 -0.2286  0.2813  0.2213
   67loPI   GL1 1061  17.288   8.046   9.300  0.2518  0.2913  0.0233
   67loPI   GL2 1062  16.901   8.075   9.230 -0.1768 -0.3502  0.2006
   67loPI   C1A 1063  17.292   7.791   8.856  0.0392 -0.2396  0.1493
   67loPI   C2A 1064  17.544   7.861   8.504 -0.1612  0.2827 -0.2193
   67loPI   C3A 1065  17.604   7.892   8.097  0.2284  0.2505  0.0320
   67loPI   C4A 1066  17.822   7.811   7.637 -0.1471 -0.0285  0.0584
   67loPI   C5A 1067  17.974   7.485   7.441  0.0183  0.4104 -0.0576
   67loPI   C6A 1068  17.829   7.058   7.440 -0.1518  0.0649 -0.2215
   67loPI   C1B 1069  16.948   8.122   8.920 -0.0869 -0.1107  0.0581
   67loPI   C2B 1070  16.947   8.078   8.503 -0.0153 -0.1450  0.2607
   67loPI   C3B 1071  17.105   8.037   8.105 -0.0238  0.0717 -0.2457
   67loPI   C4B 1072  17.099   8.065   7.709 -0.0236  0.2092 -0.1125
   68loPI    C1 1073   4.564   9.627  10.173  0.0216  0.1566 -0.0471
   68loPI    C2 1074   4.329   9.643  10.496  0.1063 -0.1895  0.0352
   68loPI    C3 1075   4.727   9.634  10.538  0.1222 -0.0812 -0.0856
   68loPI   PO4 1076   4.358   9.690   9.960 -0.1356  0.0416 -0.2193
   68loPI   GL1 1077   4.466   9.673   9.502 -0.3219  0.3250  0.0316
   68loPI   GL2 1078   4.265   9.405   9.571  0.1284 -0.0422 -0.0145
   68loPI   C1A 1079   4.909   9.815   9.274 -0.2519  0.1039 -0.0621
   68loPI   C2A 1080   4.931   9.661   8.841  0.2197 -0.0293 -0.0544
   68loPI   C3A 1081   5.028   9.754   8.454 -0.1233  0.0208 -0.2446
   68loPI   C4A 1082   4.715   9.803   8.164  0.0554 -0.0308 -0.2048
   68loPI   C5A 1083   4.559   9.533   7.855  0.3043  0.1387 -0.0777
   68loPI   C6A 1084   4.236   9.456   7.686  0.2220  0.0778  0.1456
   68loPI   C1B 1085   4.459   9.411   9.073  0.0235  0.0568 -0.3816
   68loPI   C2B 1086   4.578   9.375   8.604  0.0059  0.1120 -0.0435
   68loPI   C3B 1087   4.500   9.214   8.260  0.0364  0.1794 -0.1891
   68loPI   C4B 1088   4.637   9.061   7.913  0.4718 -0.0162  0.1357
   69loPI    C1 1089   7.341  10.860   9.953 -0.1324 -0.3345 -0.0144
   69loPI    C2 1090   7.732  10.840  10.034 -0.1520 -0.0892  0.1525
   69loPI    C3 1091   7.469  10.647  10.266 -0.1530  0.0113  0.2359
   69loPI   PO4 1092   7.314  10.955   9.670 -0.3427  0.1048 -0.0446
   69loPI   GL1 1093   7.566  10.897   9.335  0.2367  0.1116 -0.0175
   69loPI   GL2 1094   7.699  10.684   9.282 -0.1856 -0.0625  0.2552
   69loPI   C1A 1095   7.387  10.822   8.872  0.0366 -0.0134 -0.1847
   69loPI   C2A 1096   7.229  10.660   8.537  0.0851  0.0893  0.4183
   69loPI   C3A 1097   7.439  10.502   8.243 -0.1167  0.1982 -0.0500
   69loPI   C4A 1098   7.483  10.266   7.838 -0.0058  0.1784  0.1711
   69loPI   C5A 1099   7.328   9.784   7.561  0.1101  0.1727 -0.0173
   69loPI   C6A 1100   7.096   9.677   7.268  0.0842  0.0285  0.3852
   69loPI   C1B 1101   7.916  10.616   8.875  0.0433  0.1631  0.0510
   69loPI   C2B 1102   8.299  10.579   8.607 -0.0091 -0.1609  0.4510
   69loPI   C3B 1103   8.475  10.477   8.162 -0.2405  0.0955  0.0990
   69loPI   C4B 1104   8.580  10.537   7.781 -0.1660 -0.0688  0.0797
   70loPI    C1 1105  15.457   3.869  10.780 -0.0911  0.1644  0.1077
   70loPI    C2 1106  15.812   3.693  10.724 -0.1161  0.1807 -0.1107
   70loPI    C3 1107  15.718   3.846  11.082 -0.1254 -0.3179  0.1069
   70loPI   PO4 1108  15.437   3.921  10.452  0.5104 -0.5333 -0.1447
   70loPI   GL1 1109  15.423   3.907  10.035 -0.2723  0.3036  0.4472
   70loPI   GL2 1110  15.695   3.795   9.862 -0.1905  0.0483 -0.5770
   70loPI   C1A 1111  15.231   3.675   9.595 -0.3026  0.3728  0.0331
   70loPI   C2A 1112  14.984   3.421   9.264  0.1762 -0.3893 -0.2590
   70loPI   C3A 1113  14.846   3.142   8.852  0.0155 -0.2153  0.6708
   70loPI   C4A 1114  14.590   3.091   8.489 -0.0990  0.2146  0.0940
   70loPI   C5A 1115  14.221   3.147   8.309 -0.2505  0.2572 -0.1000
   70loPI   C6A 1116  13.880   3.212   8.443 -0.1442 -0.2299  0.1805
   70loPI   C1B 1117  15.677   3.663   9.441  0.2131  0.0693  0.0657
   70loPI   C2B 1118  15.336   3.644   9.043 -0.1441 -0.1223  0.2298
   70loPI   C3B 1119  15.329   3.638   8.530  0.3552 -0.1893  0.0469
   70loPI   C4B 1120  15.112   3.386   8.226  0.2666 -0.0737 -0.1293
   71loPI    C1 1121  17.202   8.974   9.769 -0.1873  0.1312  0.0402
   71loPI    C2 1122  16.869   8.828   9.936 -0.0841 -0.0198  0.1154
   71loPI    C3 1123  16.926   9.223   9.918 -0.2256  0.0043  0.1838
   71loPI   PO4 1124  17.153   8.892   9.521 -0.1763 -0.1469  0.1129
   71loPI   GL1 1125  17.084   8.631   9.148  0.0355  0.1215  0.0336
   71loPI   GL2 1126  16.822   8.581   9.000 -0.0648  0.0175  0.0065
   71loPI   C1A 1127  17.268   8.902   8.836  0.3413  0.2685 -0.1622
   71loPI   C2A 1128  17.291   8.917   8.395 -0.0692  0.1896 -0.0102
   71loPI   C3A 1129  17.402   8.926   8.032  0.0819  0.2706 -0.0266
   71loPI   C4A 1130  17.350   8.858   7.570 -0.0330 -0.0528  0.1603
   71loPI   C5A 1131  17.263   8.745   7.144 -0.0628 -0.1279 -0.2500
   71loPI   C6A 1132  17.015   8.507   6.766  0.0498 -0.1402 -0.0164
   71loPI   C1B 1133  16.909   8.570   8.559 -0.3932 -0.1352 -0.3754
   71loPI   C2B 1134  17.031   8.564   8.067 -0.2022 -0.0381 -0.3708
   71loPI   C3B 1135  16.930   8.622   7.682  0.2762 -0.0583 -0.1534
   71loPI   C4B 1136  16.595   8.927   7.621 -0.0932  0.2181 -0.3110
   72loPI    C1 1137  15.210  15.745  10.812  0.0843 -0.0949 -0.0009
   72loPI    C2 1138  14.839  15.885  10.867  0.0182 -0.3035  0.0995
   72loPI    C3 1139  15.125  15.965  11.135  0.1059  0.0484 -0.0921
   72loPI   PO4 1140  15.246  15.884  10.565 -0.1259 -0.1126  0.1173
   72loPI   GL1 1141  15.157  15.877  10.090  0.0094  0.0982  0.3457
   72loPI   GL2 1142  15.327  15.607  10.173  0.0693 -0.1097 -0.2150
   72loPI   C1A 1143  14.782  16.054   9.848  0.0907  0.0908  0.0454
   72loPI   C2A 1144  14.486  15.999   9.503  0.1044 -0.1257 -0.1160
   72loPI   C3A 1145  14.624  15.850   9.167 -0.3288  0.1531  0.1772
   72loPI   C4A 1146  14.828  15.792   8.710  0.0619 -0.0287  0.0324
   72loPI   C5A 1147  14.845  15.989   8.350  0.3043 -0.0090 -0.0726
   72loPI   C6A 1148  15.133  16.238   8.136  0.2175  0.0609  0.2878
   72loPI   C1B 1149  15.404  15.622   9.715  0.5632 -0.2630  0.0799
   72loPI   C2B 1150  15.577  15.922   9.469  0.1962  0.0121 -0.0628
   72loPI   C3B 1151  15.959  16.046   9.362 -0.1718  0.0228 -0.2623
   72loPI   C4B 1152  16.020  16.178   8.944 -0.1180 -0.2978 -0.3540
   73loPI    C1 1153   7.706   6.599  10.662  0.0523 -0.4659 -0.2066
   73loPI    C2 1154   8.024   6.477  10.872  0.0796 -0.1441 -0.0539
   73loPI    C3 1155   8.066   6.759  10.591 -0.1134  0.1002  0.1573
   73loPI   PO4 1156   7.565   6.484  10.550  0.0660 -0.0231  0.2770
   73loPI   GL1 1157   7.447   6.520  10.075  0.3136  0.2780  0.0315
   73loPI   GL2 1158   7.178   6.310   9.982  0.2295 -0.1100  0.3269
   73loPI   C1A 1159   7.571   6.622   9.701  0.0854 -0.0999  0.3145
   73loPI   C2A 1160   7.836   6.542   9.298  0.2365  0.0008  0.1273
   73loPI   C3A 1161   8.090   6.749   9.054  0.1255 -0.0439  0.0466
   73loPI   C4A 1162   8.070   6.913   8.678  0.3246 -0.4746 -0.0405
   73loPI   C5A 1163   8.315   7.124   8.376 -0.4342  0.1396 -0.2966
   73loPI   C6A 1164   8.674   6.935   8.096 -0.0473  0.1710 -0.1251
   73loPI   C1B 1165   7.244   6.291   9.473  0.0649 -0.0255 -0.0602
   73loPI   C2B 1166   7.065   6.435   9.049  0.1535  0.3144  0.0032
   73loPI   C3B 1167   7.183   6.630   8.615  0.1543  0.0149  0.0257
   73loPI   C4B 1168   7.318   6.804   8.344  0.1495  0.0776  0.2511
   74loPI    C1 1169   3.107   3.048  10.561  0.2717 -0.0181 -0.1978
   74loPI    C2 1170   3.228   2.729  10.769  0.2376  0.1450  0.0765
   74loPI    C3 1171   2.861   2.737  10.611  0.1794  0.1143  0.2084
   74loPI   PO4 1172   3.325   3.104  10.360 -0.0899  0.1160  0.0786
   74loPI   GL1 1173   3.214   3.142   9.958 -0.1142 -0.1060 -0.4263
   74loPI   GL2 1174   3.002   3.300   9.833  0.2278 -0.2596  0.0527
   74loPI   C1A 1175   3.338   2.872   9.608  0.1863  0.3673  0.0283
   74loPI   C2A 1176   3.263   2.870   9.085 -0.1815  0.0355  0.0504
   74loPI   C3A 1177   3.067   2.781   8.576 -0.1577  0.0580 -0.0811
   74loPI   C4A 1178   2.925   2.763   8.192 -0.0201 -0.1076  0.0667
   74loPI   C5A 1179   2.757   2.415   7.888 -0.2673 -0.1087  0.1936
   74loPI   C6A 1180   2.836   2.089   7.711  0.0829 -0.1742  0.0087
   74loPI   C1B 1181   3.064   3.289   9.424  0.0131 -0.1284  0.0153
   74loPI   C2B 1182   3.400   3.400   9.222 -0.0881 -0.1375 -0.0603
   74loPI   C3B 1183   3.815   3.456   9.295  0.0354  0.0637  0.0405
   74loPI   C4B 1184   4.082   3.468   9.638  0.1533  0.3009 -0.0795
   75loPI    C1 1185   5.002   4.107  10.871 -0.0248  0.0597  0.1875
   75loPI    C2 1186   5.150   3.850  10.603  0.0476  0.1379  0.1523
   75loPI    C3 1187   4.934   3.715  10.911 -0.1260  0.0565 -0.0035
   75loPI   PO4 1188   4.894   4.327  10.740 -0.1606 -0.1364 -0.1391
   75loPI   GL1 1189   4.744   4.369  10.285 -0.0053 -0.0700 -0.1219
   75loPI   GL2 1190   4.424   4.259  10.285 -0.2190 -0.1906  0.0291
   75loPI   C1A 1191   4.812   4.556   9.914 -0.0223 -0.2593 -0.4523
   75loPI   C2A 1192   4.841   4.753   9.466 -0.0203 -0.1259  0.3229
   75loPI   C3A 1193   4.802   5.039   9.029 -0.1403 -0.1466 -0.4129
   75loPI   C4A 1194   4.961   5.345   8.645  0.0222  0.2103  0.0476
   75loPI   C5A 1195   5.140   5.708   8.598  0.0975 -0.1635  0.0235
   75loPI   C6A 1196   5.283   6.018   8.402 -0.1998  0.3457  0.4513
   75loPI   C1B 1197   4.283   4.438   9.864  0.1528  0.1521  0.1005
   75loPI   C2B 1198   4.297   4.562   9.444 -0.4745  0.2251  0.3487
   75loPI   C3B 1199   4.265   4.760   9.148  0.0348 -0.0437 -0.1230
   75loPI   C4B 1200   4.267   4.977   8.782 -0.0516  0.2226 -0.1759
   76loPI    C1 1201  10.752   9.635  10.470 -0.1645 -0.1474 -0.3948
   76loPI    C2 1202  10.704  10.030  10.502  0.1529 -0.1409  0.1449
   76loPI    C3 1203  10.388   9.787  10.535 -0.0477  0.0612 -0.2133
   76loPI   PO4 1204  10.873   9.640  10.231  0.3558 -0.0105  0.0025
   76loPI   GL1 1205  10.898   9.522   9.738 -0.0513 -0.0764 -0.1566
   76loPI   GL2 1206  11.050   9.291   9.858 -0.0335  0.1155  0.0081
   76loPI   C1A 1207  11.024   9.734   9.344  0.1530 -0.1856  0.0193
   76loPI   C2A 1208  11.053   9.940   9.037  0.1056  0.1375 -0.3532
   76loPI   C3A 1209  10.892   9.891   8.616 -0.1175  0.1015 -0.2427
   76loPI   C4A 1210  10.666   9.688   8.303 -0.3235 -0.0428  0.1132
   76loPI   C5A 1211  10.651   9.562   7.904  0.0564 -0.3305 -0.1150
   76loPI   C6A 1212  10.495   9.243   7.593  0.3956 -0.3819 -0.1560
   76loPI   C1B 1213  11.123   9.275   9.386  0.0564 -0.1604  0.0978
   76loPI   C2B 1214  10.963   9.060   9.006 -0.1701  0.1175  0.0314
   76loPI   C3B 1215  11.064   8.961   8.597 -0.1273 -0.0857 -0.0630
   76loPI   C4B 1216  11.090   8.756   8.154 -0.2227 -0.2444 -0.3989
   77loPI    C1 1217   5.739  14.954   9.974 -0.0980  0.0787 -0.0959
   77loPI    C2 1218   5.594  14.735  10.275  0.0132 -0.0849 -0.1599
   77loPI    C3 1219   5.962  14.664  10.135  0.0665  0.1707 -0.1542
   77loPI   PO4 1220   5.523  15.033   9.774  0.0346  0.2497 -0.0326
   77loPI   GL1 1221   5.432  14.791   9.437 -0.0262 -0.1645  0.0665
   77loPI   GL2 1222   5.413  14.537   9.369 -0.0690  0.1002 -0.2721
   77loPI   C1A 1223   5.107  14.998   9.205  0.0109  0.1515 -0.0861
   77loPI   C2A 1224   4.942  15.011   8.780 -0.0215 -0.0506  0.1151
   77loPI   C3A 1225   4.578  14.901   8.510  0.1115  0.1702  0.1056
   77loPI   C4A 1226   4.242  14.984   8.239  0.1677  0.1100  0.0899
   77loPI   C5A 1227   4.124  15.196   7.835  0.1382 -0.0736 -0.1126
   77loPI   C6A 1228   4.302  15.578   7.676  0.0901  0.0885  0.0080
   77loPI   C1B 1229   5.389  14.670   8.907  0.0211 -0.0189 -0.3408
   77loPI   C2B 1230   5.435  14.918   8.474  0.0445  0.2604  0.2788
   77loPI   C3B 1231   5.713  15.036   8.064  0.0530  0.0535 -0.1717
   77loPI   C4B 1232   5.669  15.338   7.702  0.3295  0.1045  0.0211
   78loPI    C1 1233   0.277   5.976  10.087  0.2662  0.0019 -0.0753
   78loPI    C2 1234   0.418   6.336  10.189 -0.0778  0.0513  0.2480
   78loPI    C3 1235   0.225   6.112  10.459 -0.1477 -0.2409 -0.0374
   78loPI   PO4 1236   0.184   5.962   9.814 -0.2047  0.2134  0.0577
   78loPI   GL1 1237   0.204   5.892   9.475 -0.0422  0.2380  0.1489
   78loPI   GL2 1238   0.274   5.513   9.385 -0.0267  0.1554  0.1728
   78loPI   C1A 1239   0.117   5.863   9.030  0.0195 -0.2001 -0.3045
   78loPI   C2A 1240   0.126   5.870   8.628 -0.1463  0.2490 -0.2149
   78loPI   C3A 1241   0.155   5.766   8.226 -0.1112 -0.0739  0.2110
   78loPI   C4A 1242   0.309   5.738   7.742  0.0557 -0.0876 -0.0423
   78loPI   C5A 1243   0.484   5.458   7.449  0.3697  0.1410  0.1245
   78loPI   C6A 1244   0.782   5.083   7.253 -0.4990 -0.0247 -0.0237
   78loPI   C1B 1245   0.177   5.388   8.942  0.1563  0.0614 -0.1758
   78loPI   C2B 1246   0.113   5.304   8.569 -0.4420 -0.1066 -0.1474
   78loPI   C3B 1247  -0.007   5.321   8.149 -0.3797 -0.2884  0.3549
   78loPI   C4B 1248   0.239   5.199   7.748  0.1755 -0.2382 -0.1000
   79loPI    C1 1249  16.597  13.259  10.000  0.0879 -0.0210  0.0665
   79loPI    C2 1250  16.733  13.130  10.353  0.1131 -0.1114  0.0237
   79loPI    C3 1251  16.424  12.946  10.179  0.1035 -0.0696 -0.0033
   79loPI   PO4 1252  16.899  13.341   9.911  0.1036 -0.1871  0.1714
   79loPI   GL1 1253  17.118  13.345   9.497  0.2047 -0.0077 -0.0036
   79loPI   GL2 1254  16.893  13.098   9.446 -0.2037 -0.1339  0.1438
   79loPI   C1A 1255  16.972  13.695   9.355  0.0941 -0.1789  0.0365
   79loPI   C2A 1256  16.882  13.929   9.074  0.2174 -0.0340 -0.2401
   79loPI   C3A 1257  16.977  13.944   8.610 -0.0349  0.2100  0.0205
   79loPI   C4A 1258  16.895  13.970   8.175  0.0240  0.1403 -0.0822
   79loPI   C5A 1259  17.033  14.186   7.736 -0.3112 -0.2371  0.2181
   79loPI   C6A 1260  17.119  14.503   7.457 -0.0800  0.0349 -0.0411
   79loPI   C1B 1261  16.843  13.226   8.959  0.0467  0.2266 -0.0126
   79loPI   C2B 1262  16.477  13.220   8.643 -0.0184 -0.2292  0.1464
   79loPI   C3B 1263  16.061  13.081   8.552  0.1443  0.1716  0.0259
   79loPI   C4B 1264  15.724  12.812   8.702  0.2888  0.5386  0.2388
   80loPI    C1 1265  12.560  11.147   9.923  0.0716 -0.0088 -0.0510
   80loPI    C2 1266  12.259  11.410   9.931  0.0668 -0.0134 -0.0779
   80loPI    C3 1267  12.508  11.381  10.243 -0.1380 -0.2170  0.0694
   80loPI   PO4 1268  12.655  11.272   9.656  0.2058  0.0679  0.3209
   80loPI   GL1 1269  12.643  11.146   9.250  0.1379 -0.3309  0.0811
   80loPI   GL2 1270  12.403  11.168   9.065  0.1787 -0.0139 -0.3198
   80loPI   C1A 1271  12.904  11.163   8.871  0.0466  0.2061 -0.0307
   80loPI   C2A 1272  12.916  10.969   8.467  0.1096  0.2079 -0.0761
   80loPI   C3A 1273  12.772  10.788   8.054 -0.0880 -0.2124 -0.0015
   80loPI   C4A 1274  12.489  10.674   7.813 -0.1152 -0.0367 -0.1181
   80loPI   C5A 1275  12.708  10.287   7.538  0.0900 -0.1273 -0.0303
   80loPI   C6A 1276  12.912  10.055   7.223 -0.4470  0.2272 -0.0812
   80loPI   C1B 1277  12.117  11.127   8.684  0.1832  0.0671 -0.2893
   80loPI   C2B 1278  12.008  11.392   8.300 -0.1044  0.1978  0.0562
   80loPI   C3B 1279  12.052  11.404   7.823 -0.1946  0.0080  0.0316
   80loPI   C4B 1280  11.725  11.489   7.549 -0.2812 -0.2076  0.3526
   81loPI    C1 1281  10.156  16.574  10.123 -0.2976 -0.0370 -0.0475
   81loPI    C2 1282  10.054  16.800  10.437  0.3210  0.1532  0.0309
   81loPI    C3 1283  10.278  16.473  10.491  0.0588 -0.0643 -0.1686
   81loPI   PO4 1284   9.884  16.475   9.885 -0.1910 -0.2516 -0.3979
   81loPI   GL1 1285   9.641  16.734   9.541 -0.0384 -0.1891 -0.0307
   81loPI   GL2 1286   9.249  16.742   9.523 -0.0835 -0.2091  0.0876
   81loPI   C1A 1287   9.983  16.864   9.327 -0.0199 -0.2989  0.1563
   81loPI   C2A 1288  10.043  17.024   8.878 -0.0346 -0.0392 -0.1446
   81loPI   C3A 1289  10.049  16.937   8.413  0.1996  0.3398  0.3966
   81loPI   C4A 1290   9.802  16.868   8.103  0.3838 -0.0101  0.0419
   81loPI   C5A 1291   9.709  16.618   7.756  0.1660 -0.0335 -0.0999
   81loPI   C6A 1292   9.826  16.433   7.428  0.1919 -0.2283 -0.0362
   81loPI   C1B 1293   9.091  16.824   9.115  0.0293  0.1778 -0.1771
   81loPI   C2B 1294   8.931  16.811   8.761 -0.1493  0.1712  0.0701
   81loPI   C3B 1295   9.133  16.740   8.392 -0.1084  0.1080 -0.0949
   81loPI   C4B 1296   9.103  16.433   8.076 -0.0317 -0.0468 -0.1083
   82loPI    C1 1297   5.888  10.770   9.924  0.0532 -0.1280 -0.0465
   82loPI    C2 1298   5.604  10.831  10.199  0.0672 -0.1785 -0.0208
   82loPI    C3 1299   5.938  11.052  10.203 -0.0977  0.0809 -0.2263
   82loPI   PO4 1300   5.841  10.401   9.915 -0.2148 -0.0333  0.0214
   82loPI   GL1 1301   5.730  10.274   9.450  0.0159 -0.2438  0.1043
   82loPI   GL2 1302   5.576  10.095   9.310 -0.1746 -0.2051  0.1883
   82loPI   C1A 1303   5.929  10.252   9.011  0.1389  0.0622 -0.3074
   82loPI   C2A 1304   5.835  10.256   8.504  0.3085 -0.0032  0.1476
   82loPI   C3A 1305   5.914  10.541   8.175 -0.2377  0.2727  0.0581
   82loPI   C4A 1306   6.186  10.617   7.808  0.3196 -0.0241  0.1341
   82loPI   C5A 1307   6.228  10.824   7.389  0.1786 -0.0584 -0.1414
   82loPI   C6A 1308   5.994  11.062   7.228 -0.0090  0.0300 -0.1684
   82loPI   C1B 1309   5.347   9.984   9.028 -0.0549  0.0077 -0.0032
   82loPI   C2B 1310   5.449   9.902   8.609 -0.0465  0.0788  0.0118
   82loPI   C3B 1311   5.734   9.849   8.269  0.2359  0.0602 -0.0794
   82loPI   C4B 1312   5.836   9.792   7.961 -0.3646 -0.1121 -0.1871
   83loPI    C1 1313  13.151  11.440   9.542  0.0793 -0.1320 -0.0058
   83loPI    C2 1314  13.176  11.129   9.792  0.2847 -0.0253  0.1091
   83loPI    C3 1315  13.155  11.067   9.397  0.0638 -0.1912  0.1448
   83loPI   PO4 1316  12.969  11.595   9.440  0.2293 -0.2357 -0.0731
   83loPI   GL1 1317  12.758  11.654   9.051  0.3011 -0.0638  0.2385
   83loPI   GL2 1318  12.512  11.638   9.151  0.2272 -0.1316  0.1942
   83loPI   C1A 1319  12.709  11.953   8.709 -0.0979 -0.4013  0.4070
   83loPI   C2A 1320  12.809  11.893   8.271 -0.2445  0.0474 -0.0676
   83loPI   C3A 1321  12.958  11.634   7.836  0.0728 -0.0539 -0.2123
   83loPI   C4A 1322  12.872  11.267   7.517  0.1590  0.0783  0.1979
   83loPI   C5A 1323  12.771  10.781   7.419 -0.0140  0.0468 -0.0012
   83loPI   C6A 1324  12.422  10.631   7.193 -0.2851 -0.0927  0.1667
   83loPI   C1B 1325  12.486  11.499   8.706 -0.0457  0.0411 -0.4065
   83loPI   C2B 1326  12.564  11.340   8.367  0.2113 -0.1908  0.0549
   83loPI   C3B 1327  12.463  11.212   7.983 -0.2701  0.1418  0.2287
   83loPI   C4B 1328  12.369  11.050   7.537 -0.1575  0.3757 -0.0329
   84loPI    C1 1329   9.077   7.521  10.394  0.0813  0.1184 -0.0162
   84loPI    C2 1330   9.313   7.710  10.656  0.0392  0.1956 -0.0339
   84loPI    C3 1331   9.305   7.826  10.273 -0.1152  0.2703 -0.0087
   84loPI   PO4 1332   9.176   7.169  10.337  0.0060  0.3841  0.0226
   84loPI   GL1 1333   9.456   6.964  10.159  0.1816  0.0743  0.1499
   84loPI   GL2 1334   9.420   6.637   9.991  0.2796  0.1240 -0.0218
   84loPI   C1A 1335   9.282   7.142   9.702 -0.2000 -0.4153  0.2112
   84loPI   C2A 1336   9.309   7.199   9.256  0.0755  0.1917  0.0746
   84loPI   C3A 1337   9.014   7.120   8.864 -0.0076 -0.3032 -0.0193
   84loPI   C4A 1338   8.988   7.208   8.408 -0.0838  0.0457  0.0758
   84loPI   C5A 1339   9.307   7.114   8.133  0.0774 -0.0175  0.1159
   84loPI   C6A 1340   9.689   7.180   8.152 -0.2527  0.1544 -0.0518
   84loPI   C1B 1341   9.440   6.654   9.461  0.1241  0.0387 -0.1257
   84loPI   C2B 1342   9.452   6.740   9.048  0.0251 -0.0899 -0.0415
   84loPI   C3B 1343   9.676   6.447   8.715  0.0799  0.0608  0.0001
   84loPI   C4B 1344  10.140   6.476   8.489 -0.0201 -0.1465  0.2181
   85loPI    C1 1345  10.283   1.459  10.978  0.1852  0.2139  0.3035
   85loPI    C2 1346   9.890   1.386  10.991  0.1908  0.0890 -0.0960
   85loPI    C3 1347  10.060   1.614  11.272 -0.2003  0.3041 -0.0261
   85loPI   PO4 1348  10.313   1.551  10.674 -0.0230 -0.0071 -0.0213
   85loPI   GL1 1349  10.160   1.655  10.241 -0.0296 -0.0329 -0.0744
   85loPI   GL2 1350  10.153   1.410  10.088 -0.1844 -0.1968 -0.0446
   85loPI   C1A 1351  10.162   1.914   9.898 -0.0942  0.0165  0.3467
   85loPI   C2A 1352  10.250   1.954   9.533 -0.1285 -0.0109  0.1018
   85loPI   C3A 1353  10.413   2.135   9.259  0.2850 -0.2489 -0.1573
   85loPI   C4A 1354  10.377   1.955   8.816  0.3171 -0.4232 -0.1237
   85loPI   C5A 1355  10.451   2.166   8.382 -0.0399  0.2112 -0.2109
   85loPI   C6A 1356  10.687   2.426   8.095  0.2676 -0.0064 -0.0892
   85loPI   C1B 1357  10.486   1.588   9.850  0.0326 -0.1583  0.2622
   85loPI   C2B 1358  10.728   1.479   9.559 -0.0265 -0.0409  0.2704
   85loPI   C3B 1359  10.897   1.330   9.115  0.0741  0.0063  0.0293
   85loPI   C4B 1360  10.655   1.017   8.742  0.0963  0.2437 -0.0438
   86loPI    C1 1361   8.542  12.710   9.893 -0.1188  0.0012 -0.0644
   86loPI    C2 1362   8.298  12.592  10.187  0.0551  0.2326  0.1772
   86loPI    C3 1363   8.693  12.539  10.221  0.0411 -0.2148 -0.2470
   86loPI   PO4 1364   8.490  12.615   9.693 -0.0089 -0.0753 -0.1957
   86loPI   GL1 1365   8.645  12.719   9.344  0.1050  0.1507  0.2184
   86loPI   GL2 1366   8.946  12.626   9.387 -0.1554  0.1913  0.1893
   86loPI   C1A 1367   8.818  12.965   9.010  0.2490 -0.1677  0.1423
   86loPI   C2A 1368   8.848  12.838   8.604 -0.0510 -0.0505  0.3358
   86loPI   C3A 1369   8.768  12.775   8.176  0.2387 -0.0880  0.0684
   86loPI   C4A 1370   8.940  12.920   7.830  0.0334 -0.2243  0.1953
   86loPI   C5A 1371   8.970  13.155   7.456  0.2823  0.3482  0.1840
   86loPI   C6A 1372   8.754  13.409   7.105 -0.2833  0.1470 -0.2721
   86loPI   C1B 1373   9.118  12.448   9.016  0.2078  0.0229  0.2718
   86loPI   C2B 1374   9.138  12.394   8.495 -0.2759 -0.1545  0.1013
   86loPI   C3B 1375   9.120  12.385   8.051  0.2190 -0.2078  0.0124
   86loPI   C4B 1376   8.986  12.445   7.621  0.0704 -0.0265 -0.1169
   87loPI    C1 1377   2.387   7.602  10.315  0.0693  0.0450  0.1571
   87loPI    C2 1378   2.279   7.828  10.004  0.1558  0.0481  0.1288
   87loPI    C3 1379   2.028   7.778  10.312  0.1769  0.2684  0.1834
   87loPI   PO4 1380   2.674   7.554  10.238 -0.1221  0.0958  0.2790
   87loPI   GL1 1381   2.892   7.213  10.036 -0.0857  0.1923  0.2365
   87loPI   GL2 1382   2.903   7.497   9.817  0.2668  0.1008 -0.1922
   87loPI   C1A 1383   2.767   7.056   9.652  0.1432  0.3440  0.2278
   87loPI   C2A 1384   2.758   6.951   9.281  0.2547  0.1986  0.0895
   87loPI   C3A 1385   2.997   6.833   8.900  0.0945 -0.0908  0.1006
   87loPI   C4A 1386   2.722   6.848   8.424  0.0898 -0.0185  0.2495
   87loPI   C5A 1387   2.506   7.106   8.096 -0.1384  0.0989 -0.1671
   87loPI   C6A 1388   2.400   7.306   7.751  0.2040  0.1179  0.1784
   87loPI   C1B 1389   3.138   7.314   9.541 -0.4037  0.0757  0.2284
   87loPI   C2B 1390   3.119   7.296   9.093 -0.1423 -0.1279  0.1098
   87loPI   C3B 1391   3.197   7.302   8.738 -0.3597 -0.0002  0.1149
   87loPI   C4B 1392   3.543   7.382   8.336  0.0007 -0.0912 -0.1687
   88loPI    C1 1393   7.392  18.377  10.440 -0.1989 -0.1268 -0.0528
   88loPI    C2 1394   7.395  18.024  10.628 -0.0372 -0.2115 -0.2112
   88loPI    C3 1395   7.448  18.362  10.836 -0.0107 -0.2929 -0.0846
   88loPI   PO4 1396   7.359  18.330  10.157 -0.0675 -0.4253  0.0328
   88loPI   GL1 1397   7.150  18.317   9.825 -0.1891  0.0601 -0.4052
   88loPI   GL2 1398   6.876  18.245   9.668 -0.2109 -0.1113  0.0095
   88loPI   C1A 1399   7.501  18.365   9.493 -0.4550 -0.1433  0.3264
   88loPI   C2A 1400   7.540  18.258   9.024 -0.1495  0.0988 -0.0450
   88loPI   C3A 1401   7.445  18.165   8.633 -0.0705 -0.1193  0.0429
   88loPI   C4A 1402   7.568  17.850   8.418 -0.0890  0.1442  0.1777
   88loPI   C5A 1403   7.661  17.491   8.211  0.0575  0.0472 -0.1502
   88loPI   C6A 1404   7.655  17.071   8.129 -0.0893 -0.1220 -0.0845
   88loPI   C1B 1405   7.083  18.266   9.263 -0.3619 -0.0906 -0.0602
   88loPI   C2B 1406   7.050  18.316   8.847 -0.0602 -0.0760 -0.2470
   88loPI   C3B 1407   6.711  18.450   8.471 -0.0747  0.0605  0.3409
   88loPI   C4B 1408   6.479  18.576   7.981  0.3245 -0.3680  0.0935
   89loPI    C1 1409   9.443  11.425  10.025 -0.0414 -0.0097  0.0813
   89loPI    C2 1410   9.789  11.259  10.137 -0.0169 -0.0582 -0.0637
   89loPI    C3 1411   9.494  11.305  10.403  0.0952 -0.0295  0.0572
   89loPI   PO4 1412   9.298  11.254   9.667  0.2921  0.1175  0.3811
   89loPI   GL1 1413   9.458  11.193   9.279  0.0335 -0.0319  0.1106
   89loPI   GL2 1414   9.138  11.098   9.187 -0.0412  0.2764  0.0946
   89loPI   C1A 1415   9.464  10.741   9.085  0.0276 -0.1498  0.0824
   89loPI   C2A 1416   9.331  10.683   8.657 -0.1236  0.2622 -0.0676
   89loPI   C3A 1417   9.585  10.720   8.253  0.0321 -0.2283  0.1225
   89loPI   C4A 1418  10.024  10.815   8.178 -0.1681 -0.0623 -0.1504
   89loPI   C5A 1419  10.450  10.824   8.028  0.0096  0.2791  0.1401
   89loPI   C6A 1420  10.908  10.835   7.952  0.1158 -0.1853 -0.1373
   89loPI   C1B 1421   9.215  11.107   8.778  0.1066  0.0259 -0.2204
   89loPI   C2B 1422   9.244  11.114   8.353 -0.2340  0.0274  0.0774
   89loPI   C3B 1423   9.272  10.967   7.929  0.0116 -0.0540 -0.2362
   89loPI   C4B 1424   9.541  10.748   7.712 -0.1647 -0.1680  0.0667
   90loPI    C1 1425   9.247   2.072  10.456 -0.1057 -0.0022 -0.0752
   90loPI    C2 1426   9.501   2.093  10.764 -0.0525 -0.1971 -0.1045
   90loPI    C3 1427   9.204   2.358  10.732  0.1985  0.0879 -0.1170
   90loPI   PO4 1428   9.434   2.034  10.259 -0.0174  0.2881 -0.0593
   90loPI   GL1 1429   9.442   2.313   9.892  0.0004 -0.0177  0.2070
   90loPI   GL2 1430   9.722   2.348   9.978 -0.1465 -0.0533 -0.2405
   90loPI   C1A 1431   9.460   2.138   9.463  0.0939 -0.1655 -0.3238
   90loPI   C2A 1432   9.461   2.121   9.109  0.1903 -0.1181  0.0308
   90loPI   C3A 1433   9.227   2.003   8.791 -0.3551  0.2855  0.1147
   90loPI   C4A 1434   9.043   1.903   8.456 -0.0889  0.1908 -0.3369
   90loPI   C5A 1435   8.919   2.285   8.292 -0.4742  0.2644 -0.1854
   90loPI   C6A 1436   8.916   2.553   7.983 -0.0283  0.2309 -0.0022
   90loPI   C1B 1437   9.897   2.276   9.618 -0.0641  0.1868 -0.1108
   90loPI   C2B 1438   9.956   2.188   9.151  0.0140 -0.2248 -0.1621
   90loPI   C3B 1439   9.821   2.214   8.769 -0.1822 -0.1833 -0.0901
   90loPI   C4B 1440   9.714   2.253   8.370 -0.0461  0.1096  0.0995
   91loPI    C1 1441  15.276  10.430   9.575  0.1387  0.0048  0.0410
   91loPI    C2 1442  15.155  10.523   9.945 -0.0431 -0.1989  0.0350
   91loPI    C3 1443  15.528  10.391   9.883  0.0254 -0.0513  0.1273
   91loPI   PO4 1444  15.231  10.617   9.424  0.1954 -0.0628 -0.1863
   91loPI   GL1 1445  15.448  10.682   9.049  0.0381  0.0871  0.1692
   91loPI   GL2 1446  15.692  10.407   8.891  0.0901 -0.0179 -0.2951
   91loPI   C1A 1447  15.364  10.866   8.651  0.2233  0.3380 -0.0871
   91loPI   C2A 1448  15.443  11.109   8.323  0.4315  0.1404 -0.0085
   91loPI   C3A 1449  15.396  10.994   7.839  0.0134 -0.0084 -0.1326
   91loPI   C4A 1450  15.265  11.075   7.430  0.3341  0.3190  0.0481
   91loPI   C5A 1451  15.143  11.413   7.186  0.5138 -0.0941 -0.1086
   91loPI   C6A 1452  15.322  11.663   6.903  0.1923  0.0255  0.0090
   91loPI   C1B 1453  15.733  10.440   8.530  0.2072 -0.3783  0.0435
   91loPI   C2B 1454  16.058  10.481   8.187  0.1677  0.1534  0.3040
   91loPI   C3B 1455  16.538  10.495   8.216 -0.0088 -0.0447 -0.0826
   91loPI   C4B 1456  16.965  10.339   8.091  0.0390  0.1127 -0.0500
   92loPI    C1 1457  12.208   3.142  11.106 -0.0293  0.0020 -0.2013
   92loPI    C2 1458  12.454   2.868  11.260 -0.1265 -0.0626 -0.1601
   92loPI    C3 1459  12.538   3.257  11.301 -0.0491 -0.0834 -0.1171
   92loPI   PO4 1460  12.229   3.090  10.803 -0.0288  0.1130  0.1540
   92loPI   GL1 1461  12.145   2.910  10.437  0.3536  0.5932  0.0866
   92loPI   GL2 1462  12.513   3.019  10.269 -0.0340 -0.0753  0.0359
   92loPI   C1A 1463  12.070   2.737   9.805  0.2206  0.1295 -0.1763
   92loPI   C2A 1464  12.115   2.866   9.395 -0.2065 -0.1617  0.1082
   92loPI   C3A 1465  12.118   2.815   8.884  0.3083  0.0494 -0.0155
   92loPI   C4A 1466  12.192   3.031   8.612 -0.3029 -0.0292  0.4562
   92loPI   C5A 1467  12.283   2.869   8.231 -0.2592 -0.1174  0.1216
   92loPI   C6A 1468  12.084   2.617   7.956  0.1238  0.0765  0.1111
   92loPI   C1B 1469  12.455   2.628  10.233  0.1593 -0.2637 -0.0510
   92loPI   C2B 1470  12.431   2.325   9.852  0.0716  0.0836 -0.3782
   92loPI   C3B 1471  12.452   2.421   9.456 -0.2303  0.2705  0.1546
   92loPI   C4B 1472  12.472   2.451   9.011  0.2411 -0.2608  0.1704
   93loPI    C1 1473  10.370  11.063   9.882  0.4025  0.2166  0.0527
   93loPI    C2 1474  10.217  11.087  10.251  0.2388 -0.0680  0.0063
   93loPI    C3 1475  10.268  11.419  10.034 -0.6353  0.0186 -0.1039
   93loPI   PO4 1476  10.579  10.939   9.750  0.1748 -0.0009 -0.0290
   93loPI   GL1 1477  10.426  10.927   9.338 -0.1147  0.0282 -0.1981
   93loPI   GL2 1478  10.217  10.686   9.534 -0.1087 -0.1020 -0.2251
   93loPI   C1A 1479  10.371  10.827   8.994 -0.1170  0.1828 -0.3097
   93loPI   C2A 1480  10.221  11.078   8.642 -0.0121  0.2185 -0.2215
   93loPI   C3A 1481  10.332  11.152   8.418 -0.3605 -0.0193 -0.1995
   93loPI   C4A 1482  10.187  11.226   7.986  0.0554 -0.3651 -0.1582
   93loPI   C5A 1483  10.150  11.354   7.538  0.1390  0.0886 -0.2650
   93loPI   C6A 1484   9.890  11.600   7.304  0.0434 -0.0747  0.0609
   93loPI   C1B 1485  10.351  10.411   9.202 -0.1607 -0.0459  0.2428
   93loPI   C2B 1486  10.735  10.383   8.887 -0.2939 -0.1951 -0.3094
   93loPI   C3B 1487  11.114  10.330   8.623  0.0213  0.0640 -0.3060
   93loPI   C4B 1488  11.408  10.146   8.486 -0.1509  0.2657 -0.2726
   94loPI    C1 1489  16.505   5.419  10.342  0.0363  0.0186 -0.0022
   94loPI    C2 1490  16.866   5.577  10.413  0.1232 -0.1475 -0.0688
   94loPI    C3 1491  16.756   5.238  10.595  0.1068 -0.2423 -0.2537
   94loPI   PO4 1492  16.525   5.252  10.105  0.1246 -0.1725 -0.1020
   94loPI   GL1 1493  16.562   4.952   9.845  0.0349  0.3372 -0.0026
   94loPI   GL2 1494  16.893   5.010   9.676 -0.3573  0.1586  0.2803
   94loPI   C1A 1495  16.342   4.913   9.494  0.2122  0.1294 -0.0728
   94loPI   C2A 1496  16.287   4.744   9.046  0.0299 -0.0476 -0.2284
   94loPI   C3A 1497  16.253   4.838   8.613 -0.0121  0.0487  0.0211
   94loPI   C4A 1498  16.168   4.822   8.290 -0.1370 -0.0177  0.0882
   94loPI   C5A 1499  15.833   4.944   8.042  0.1024  0.3236  0.0479
   94loPI   C6A 1500  15.669   4.964   7.620  0.0150 -0.1565 -0.2690
   94loPI   C1B 1501  16.820   4.937   9.328  0.1869  0.1070  0.2035
   94loPI   C2B 1502  16.767   4.956   8.904 -0.0266  0.0822  0.0752
   94loPI   C3B 1503  16.786   5.047   8.411  0.1366  0.3054  0.1198
   94loPI   C4B 1504  16.751   5.050   7.995 -0.2503 -0.2613  0.1477
   95loPI    C1 1505  14.146   7.734  10.334  0.0491 -0.0850  0.0944
   95loPI    C2 1506  14.527   7.835  10.405 -0.0306  0.1908  0.1419
   95loPI    C3 1507  14.348   7.557  10.630  0.1214  0.1091  0.1631
   95loPI   PO4 1508  14.191   7.848  10.065  0.0566  0.1341 -0.1526
   95loPI   GL1 1509  14.368   7.749   9.617 -0.1940  0.2159 -0.2443
   95loPI   GL2 1510  14.679   7.820   9.541  0.0111 -0.0248  0.1989
   95loPI   C1A 1511  14.134   7.555   9.318  0.1069  0.0508  0.0397
   95loPI   C2A 1512  13.837   7.571   8.998 -0.1658  0.0687 -0.0982
   95loPI   C3A 1513  13.556   7.457   8.577 -0.1834 -0.3175 -0.0599
   95loPI   C4A 1514  13.346   7.180   8.368 -0.0924 -0.2132 -0.0881
   95loPI   C5A 1515  13.028   7.191   7.924 -0.1586  0.1969  0.2625
   95loPI   C6A 1516  12.685   7.118   7.846  0.2638  0.0899 -0.0017
   95loPI   C1B 1517  14.392   7.914   9.144  0.1966 -0.0392  0.2946
   95loPI   C2B 1518  14.317   7.726   8.732  0.5847  0.2314 -0.0090
   95loPI   C3B 1519  14.290   7.396   8.368  0.1548  0.1277  0.4858
   95loPI   C4B 1520  14.007   7.238   8.231  0.2734 -0.0973 -0.0085
   96loPI    C1 1521  10.588  13.919  10.106  0.1216  0.0793  0.3683
   96loPI    C2 1522  10.371  13.654  10.313 -0.0141  0.1308  0.2929
   96loPI    C3 1523  10.271  14.042  10.316 -0.0743  0.1187  0.0555
   96loPI   PO4 1524  10.650  13.704   9.889  0.4688  0.1581  0.2146
   96loPI   GL1 1525  10.802  13.519   9.482 -0.0487 -0.1914 -0.0397
   96loPI   GL2 1526  10.567  13.420   9.270 -0.1761  0.0237 -0.1566
   96loPI   C1A 1527  10.955  13.534   9.036  0.1311  0.3155  0.1022
   96loPI   C2A 1528  10.949  13.557   8.558 -0.3816 -0.2842  0.0236
   96loPI   C3A 1529  11.111  13.439   8.179 -0.2162 -0.1268 -0.0396
   96loPI   C4A 1530  11.335  13.332   7.857  0.1215  0.2023 -0.1432
   96loPI   C5A 1531  11.456  13.795   7.611 -0.0163  0.0690 -0.2674
   96loPI   C6A 1532  11.055  14.026   7.529 -0.3918  0.1390  0.2287
   96loPI   C1B 1533  10.467  13.440   8.838 -0.2174  0.0597  0.0923
   96loPI   C2B 1534  10.466  13.594   8.487 -0.0857  0.0599  0.0164
   96loPI   C3B 1535  10.560  13.651   8.011  0.0339  0.1513  0.0389
   96loPI   C4B 1536  10.908  13.657   7.803 -0.3201  0.0748  0.1647
   97loPI    C1 1537  15.505   6.847  10.428  0.1193 -0.3230 -0.0103
   97loPI    C2 1538  15.891   6.948  10.408  0.0632 -0.0572  0.2022
   97loPI    C3 1539  15.777   6.641  10.637  0.1216  0.0174  0.3327
   97loPI   PO4 1540  15.575   7.041   9.993  0.0387 -0.4233  0.0368
   97loPI   GL1 1541  15.799   7.195   9.580  0.1902 -0.2348 -0.2995
   97loPI   GL2 1542  16.080   7.410   9.570  0.0760 -0.1037  0.2004
   97loPI   C1A 1543  15.816   7.025   9.128 -0.0593 -0.2924 -0.1644
   97loPI   C2A 1544  15.895   7.162   8.741 -0.1664  0.0168  0.0569
   97loPI   C3A 1545  15.888   7.328   8.319  0.0787 -0.1356  0.2051
   97loPI   C4A 1546  15.799   7.177   7.978  0.0072  0.1356 -0.0132
   97loPI   C5A 1547  15.770   6.988   7.580  0.0254 -0.3119 -0.1296
   97loPI   C6A 1548  15.688   6.744   7.176  0.1894  0.1126  0.0797
   97loPI   C1B 1549  16.075   7.606   9.180  0.2054 -0.1215 -0.0679
   97loPI   C2B 1550  15.942   7.670   8.703  0.0994  0.0762 -0.3579
   97loPI   C3B 1551  16.016   7.838   8.322  0.3178  0.0735 -0.2707
   97loPI   C4B 1552  16.099   7.809   7.934 -0.3020 -0.1676  0.1336
   98loPI    C1 1553  16.349  18.243  10.870  0.2400 -0.0533  0.2408
   98loPI    C2 1554  16.098  18.057  11.120  0.0498  0.1055  0.1701
   98loPI    C3 1555  16.493  18.038  11.182  0.0182 -0.0939  0.3176
   98loPI   PO4 1556  16.203  18.252  10.702 -0.1521 -0.0711  0.1957
   98loPI   GL1 1557  16.148  18.339  10.276 -0.0271  0.0953 -0.1329
   98loPI   GL2 1558  16.276  18.596  10.376  0.3519  0.0383 -0.0160
   98loPI   C1A 1559  16.148  18.109   9.854 -0.1930 -0.0571  0.0920
   98loPI   C2A 1560  16.090  17.926   9.474 -0.0516 -0.3472  0.0454
   98loPI   C3A 1561  16.076  17.877   9.074 -0.0777  0.1159  0.2353
   98loPI   C4A 1562  15.910  17.834   8.672  0.1292 -0.0510 -0.2484
   98loPI   C5A 1563  15.747  17.993   8.294  0.1251  0.0294  0.0430
   98loPI   C6A 1564  15.749  18.086   7.898 -0.2670 -0.0930  0.0980
   98loPI   C1B 1565  16.203  18.842  10.076  0.2581 -0.2083 -0.1584
   98loPI   C2B 1566  15.988  18.947   9.692  0.0082  0.1055  0.0612
   98loPI   C3B 1567  15.934  18.910   9.297 -0.0227 -0.2032 -0.0674
   98loPI   C4B 1568  15.887  18.880   8.951 -0.3053  0.0114  0.0859
   99loPI    C1 1569  11.106  12.608   9.785 -0.0988  0.0726  0.3155
   99loPI    C2 1570  10.760  12.744   9.934 -0.0551  0.1408  0.3553
   99loPI    C3 1571  11.022  12.560  10.173 -0.1402 -0.0689  0.2896
   99loPI   PO4 1572  11.170  12.787   9.603 -0.0034  0.0693  0.1982
   99loPI   GL1 1573  11.182  13.032   9.158  0.1612 -0.1632  0.0171
   99loPI   GL2 1574  11.043  12.702   9.028  0.0438 -0.5882 -0.0695
   99loPI   C1A 1575  11.106  13.101   8.794 -0.0422  0.0443 -0.2317
   99loPI   C2A 1576  11.249  13.047   8.432  0.1790 -0.0233 -0.0419
   99loPI   C3A 1577  11.462  12.844   8.130 -0.0765 -0.1722 -0.1187
   99loPI   C4A 1578  11.608  12.511   7.934 -0.0085  0.3814  0.0330
   99loPI   C5A 1579  11.228  12.255   7.722  0.0866 -0.1344 -0.0704
   99loPI   C6A 1580  11.350  11.880   7.470 -0.1079 -0.0466 -0.2572
   99loPI   C1B 1581  11.388  12.662   8.843  0.0358  0.0298 -0.0320
   99loPI   C2B 1582  11.523  12.450   8.417 -0.0331  0.1052 -0.0168
   99loPI   C3B 1583  11.417  12.117   8.188  0.1633 -0.0681 -0.2557
   99loPI   C4B 1584  11.330  11.758   7.928  0.2337 -0.0075 -0.2834
  100loPI    C1 1585  14.055  11.090  10.027  0.0064  0.0509 -0.1221
  100loPI    C2 1586  13.865  10.782  10.198 -0.1011  0.1712 -0.0222
  100loPI    C3 1587  13.814  11.153  10.341 -0.1063  0.2590 -0.2474
  100loPI   PO4 1588  14.109  11.035   9.687  0.3194  0.2280  0.1349
  100loPI   GL1 1589  13.981  11.047   9.286  0.0544 -0.5413  0.1804
  100loPI   GL2 1590  13.649  10.965   9.280  0.1954 -0.1148  0.0807
  100loPI   C1A 1591  13.880  10.991   8.838  0.1098 -0.1237  0.0562
  100loPI   C2A 1592  13.917  10.917   8.452 -0.1134 -0.0995 -0.1394
  100loPI   C3A 1593  13.820  10.872   8.019 -0.2317  0.0631  0.2065
  100loPI   C4A 1594  13.613  10.625   7.798  0.1823  0.1569 -0.0175
  100loPI   C5A 1595  13.637  10.224   7.676  0.1524 -0.1174 -0.3047
  100loPI   C6A 1596  13.728   9.853   7.498 -0.0521  0.5147 -0.2402
  100loPI   C1B 1597  13.351  10.723   9.024  0.1319 -0.0580 -0.3341
  100loPI   C2B 1598  13.046  10.468   8.771  0.0352 -0.0679 -0.2288
  100loPI   C3B 1599  12.949  10.466   8.348 -0.3324  0.2347  0.4216
  100loPI   C4B 1600  13.143  10.479   7.861 -0.1490 -0.1398  0.3851
  101loPI    C1 1601   4.078  14.378   9.664  0.1573 -0.0121  0.0176
  101loPI    C2 1602   3.961  14.709   9.856 -0.0290 -0.0302 -0.0622
  101loPI    C3 1603   4.099  14.396  10.063 -0.4052 -0.1198  0.0602
  101loPI   PO4 1604   4.206  14.636   9.452  0.0828 -0.1889 -0.0221
  101loPI   GL1 1605   4.482  14.867   9.246  0.2978 -0.1327  0.1594
  101loPI   GL2 1606   4.424  15.066   9.390  0.0669 -0.0483 -0.2642
  101loPI   C1A 1607   4.242  14.845   8.906  0.2304 -0.1461  0.0312
  101loPI   C2A 1608   4.056  14.618   8.562 -0.1379 -0.0240  0.4126
  101loPI   C3A 1609   3.914  14.575   8.132  0.2762  0.1905  0.2522
  101loPI   C4A 1610   3.977  14.648   7.659 -0.1002 -0.0515 -0.3199
  101loPI   C5A 1611   4.179  14.555   7.241 -0.3195 -0.0582 -0.2355
  101loPI   C6A 1612   3.926  14.168   6.978  0.2750 -0.0301 -0.0485
  101loPI   C1B 1613   4.572  15.305   9.001  0.0981 -0.0127 -0.0920
  101loPI   C2B 1614   4.725  15.428   8.553 -0.0496 -0.2770  0.2525
  101loPI   C3B 1615   4.914  15.216   8.182  0.3273  0.2891 -0.0283
  101loPI   C4B 1616   5.197  15.116   7.856 -0.3838  0.3441 -0.0790
  102loPI    C1 1617  18.628  17.016  10.739  0.2163 -0.0833  0.1545
  102loPI    C2 1618  18.865  16.711  10.635 -0.0010 -0.2086  0.0188
  102loPI    C3 1619  18.627  16.679  10.955 -0.0312 -0.1858 -0.0013
  102loPI   PO4 1620  18.791  17.219  10.592 -0.0219  0.1229 -0.3271
  102loPI   GL1 1621  18.690  17.467  10.217 -0.0435  0.0600  0.2377
  102loPI   GL2 1622  18.716  17.666  10.055  0.1792  0.2742  0.0093
  102loPI   C1A 1623  18.531  17.338   9.786  0.1090  0.0819  0.1069
  102loPI   C2A 1624  18.473  17.430   9.352  0.1389 -0.0510 -0.2661
  102loPI   C3A 1625  18.504  17.517   8.939  0.0543 -0.0490 -0.1071
  102loPI   C4A 1626  18.448  17.550   8.542  0.1606  0.3669 -0.0177
  102loPI   C5A 1627  18.574  17.384   8.230  0.1322  0.3926 -0.1483
  102loPI   C6A 1628  18.503  17.132   7.790  0.1577  0.2349 -0.0467
  102loPI   C1B 1629  18.873  17.716   9.689 -0.0804  0.0730  0.1524
  102loPI   C2B 1630  19.034  17.604   9.273  0.1138 -0.1586 -0.0098
  102loPI   C3B 1631  18.967  17.594   8.808 -0.2395 -0.1789  0.1940
  102loPI   C4B 1632  19.055  17.467   8.352 -0.1238 -0.0937 -0.0238
  103loPI    C1 1633  16.372   4.350  10.627 -0.0747  0.0435 -0.0659
  103loPI    C2 1634  16.253   3.990  10.753  0.0003 -0.0390 -0.2287
  103loPI    C3 1635  16.388   4.259  11.016  0.1036 -0.1895 -0.1262
  103loPI   PO4 1636  16.298   4.318  10.364  0.0513  0.0644  0.1042
  103loPI   GL1 1637  16.534   4.342   9.998 -0.1971 -0.0928 -0.0524
  103loPI   GL2 1638  16.767   4.103   9.976 -0.2468  0.0522  0.2582
  103loPI   C1A 1639  16.273   4.376   9.571 -0.2657  0.0623 -0.1328
  103loPI   C2A 1640  16.206   4.280   9.188  0.0522 -0.1028  0.2450
  103loPI   C3A 1641  16.175   4.199   8.789 -0.1151  0.0468 -0.0456
  103loPI   C4A 1642  16.119   4.329   8.407 -0.0067  0.1263  0.0389
  103loPI   C5A 1643  16.072   4.337   8.036  0.0300  0.0428  0.0696
  103loPI   C6A 1644  16.235   4.118   7.685  0.0694 -0.0035 -0.0942
  103loPI   C1B 1645  16.677   4.035   9.460  0.0273  0.0060 -0.3217
  103loPI   C2B 1646  16.658   3.718   9.250 -0.1229 -0.2653 -0.0602
  103loPI   C3B 1647  16.631   3.772   8.862  0.3425  0.1389 -0.1690
  103loPI   C4B 1648  16.759   3.649   8.347 -0.0018 -0.0414 -0.2018
  104loPI    C1 1649   4.450  12.458   9.664  0.1379  0.1208  0.1437
  104loPI    C2 1650   4.262  12.341   9.997 -0.0560  0.3905  0.1331
  104loPI    C3 1651   4.567  12.598  10.020  0.0813  0.2312  0.1193
  104loPI   PO4 1652   4.439  12.301   9.489  0.2768 -0.0383 -0.2565
  104loPI   GL1 1653   4.539  12.372   9.139 -0.0552  0.0330 -0.1532
  104loPI   GL2 1654   4.933  12.566   9.109 -0.2236  0.1958  0.1585
  104loPI   C1A 1655   4.764  12.234   8.792 -0.0550  0.2262 -0.4229
  104loPI   C2A 1656   4.720  12.094   8.288 -0.1310 -0.0195  0.0962
  104loPI   C3A 1657   4.707  12.105   7.855 -0.0960 -0.1079  0.2545
  104loPI   C4A 1658   4.875  12.423   7.515 -0.2414 -0.1163  0.0398
  104loPI   C5A 1659   4.737  12.611   7.222 -0.0538  0.2217  0.0412
  104loPI   C6A 1660   4.283  12.580   7.080 -0.1356 -0.1472 -0.1898
  104loPI   C1B 1661   5.125  12.556   8.698 -0.1475  0.0725 -0.0180
  104loPI   C2B 1662   5.163  12.625   8.284  0.0791 -0.1449 -0.0575
  104loPI   C3B 1663   5.133  12.334   7.915  0.3098  0.0301 -0.3902
  104loPI   C4B 1664   5.392  12.170   7.587 -0.3924  0.2120  0.0271
  105loPI    C1 1665   1.118  16.700  10.675 -0.0255  0.2410 -0.1973
  105loPI    C2 1666   1.051  16.368  10.888 -0.0254  0.2237 -0.2244
  105loPI    C3 1667   1.132  16.713  11.074 -0.1417  0.2342 -0.1927
  105loPI   PO4 1668   0.971  16.733  10.374  0.0775  0.1348 -0.0919
  105loPI   GL1 1669   0.954  16.611   9.948  0.1051 -0.1967  0.0292
  105loPI   GL2 1670   1.023  16.399   9.705  0.0375 -0.0251  0.3274
  105loPI   C1A 1671   0.864  16.857   9.624 -0.0621 -0.1528  0.0415
  105loPI   C2A 1672   0.825  16.824   9.165  0.0949  0.2042  0.1496
  105loPI   C3A 1673   0.762  16.754   8.742 -0.1302  0.1458  0.2369
  105loPI   C4A 1674   0.551  16.885   8.380  0.0755  0.1534 -0.0449
  105loPI   C5A 1675   0.307  17.065   8.043 -0.2244 -0.1628  0.0396
  105loPI   C6A 1676   0.127  17.482   7.770  0.0546  0.2302 -0.1881
  105loPI   C1B 1677   0.712  16.291   9.292  0.1473 -0.3048 -0.3074
  105loPI   C2B 1678   0.660  16.314   8.884  0.1225  0.2507  0.3268
  105loPI   C3B 1679   0.658  16.372   8.432  0.1762 -0.4054  0.1006
  105loPI   C4B 1680   0.646  16.526   8.070  0.2024 -0.1556  0.1348
  106loPI    C1 1681   3.597   1.396  10.325 -0.3470 -0.1606 -0.0600
  106loPI    C2 1682   3.250   1.432  10.520 -0.3659 -0.1498 -0.0957
  106loPI    C3 1683   3.436   1.078  10.507 -0.1952 -0.0759  0.2284
  106loPI   PO4 1684   3.615   1.387  10.057 -0.2117  0.3235 -0.0718
  106loPI   GL1 1685   3.620   1.466   9.734  0.1796  0.3154  0.1686
  106loPI   GL2 1686   3.494   1.791   9.791  0.0467 -0.3143  0.1235
  106loPI   C1A 1687   3.629   1.080   9.390  0.4875 -0.0544 -0.3153
  106loPI   C2A 1688   3.669   0.973   8.888  0.1114  0.2336  0.3571
  106loPI   C3A 1689   3.979   0.798   8.505  0.0843  0.2236 -0.2002
  106loPI   C4A 1690   4.292   0.753   8.070  0.2800 -0.0429  0.0356
  106loPI   C5A 1691   4.608   0.472   7.955 -0.1303  0.0087  0.1094
  106loPI   C6A 1692   4.744   0.368   7.567 -0.0589 -0.0278  0.0140
  106loPI   C1B 1693   3.514   1.927   9.339  0.1508  0.1629  0.1527
  106loPI   C2B 1694   3.477   2.095   8.981  0.1438 -0.0473 -0.0035
  106loPI   C3B 1695   3.191   1.918   8.637  0.0520 -0.0551  0.0322
  106loPI   C4B 1696   3.007   1.682   8.424  0.2065  0.0215 -0.0258
  107loPI    C1 1697   3.774  13.192  10.469 -0.2118 -0.1338 -0.0154
  107loPI    C2 1698   3.784  13.432  10.789  0.2055 -0.0761 -0.0655
  107loPI    C3 1699   3.874  13.045  10.827  0.0360 -0.1173 -0.0758
  107loPI   PO4 1700   3.546  13.346  10.298 -0.0743 -0.0724 -0.0892
  107loPI   GL1 1701   3.317  13.459   9.861  0.1365  0.0497 -0.1592
  107loPI   GL2 1702   3.535  13.484   9.688  0.2662 -0.3947 -0.1984
  107loPI   C1A 1703   3.143  13.390   9.371  0.0459  0.5716  0.1432
  107loPI   C2A 1704   3.109  13.481   8.865  0.1459  0.0568 -0.2028
  107loPI   C3A 1705   3.163  13.491   8.403 -0.4963  0.0619 -0.1067
  107loPI   C4A 1706   3.097  13.619   7.923 -0.1346  0.0044  0.0332
  107loPI   C5A 1707   3.185  13.666   7.492  0.0199  0.0781 -0.0358
  107loPI   C6A 1708   3.029  13.722   7.183 -0.0997 -0.2096 -0.0000
  107loPI   C1B 1709   3.623  13.271   9.345  0.0597  0.2815  0.0534
  107loPI   C2B 1710   3.555  13.315   9.003  0.2559  0.0598  0.0118
  107loPI   C3B 1711   3.545  13.251   8.591  0.0443  0.0845 -0.0046
  107loPI   C4B 1712   3.518  13.183   8.131 -0.1388  0.1165  0.1247
  108loPI    C1 1713   1.018  15.456  10.077 -0.1069 -0.2321  0.0134
  108loPI    C2 1714   1.013  15.148  10.332  0.1514  0.0438  0.3617
  108loPI    C3 1715   1.201  15.487  10.431  0.0444  0.2456 -0.0991
  108loPI   PO4 1716   1.032  15.336   9.815 -0.0737  0.0562 -0.1342
  108loPI   GL1 1717   0.695  15.334   9.523 -0.0013  0.0422  0.1004
  108loPI   GL2 1718   1.034  15.352   9.326 -0.2405 -0.0850 -0.2355
  108loPI   C1A 1719   0.424  15.237   9.143 -0.1144 -0.2893 -0.1917
  108loPI   C2A 1720   0.398  15.374   8.717 -0.1077 -0.2804 -0.2685
  108loPI   C3A 1721   0.669  15.268   8.323  0.0695  0.0493 -0.1886
  108loPI   C4A 1722   0.614  15.554   8.066  0.2767  0.0390  0.0798
  108loPI   C5A 1723   0.341  15.998   8.097 -0.2294 -0.0554  0.0816
  108loPI   C6A 1724   0.296  16.258   7.901  0.1270 -0.0893 -0.5224
  108loPI   C1B 1725   1.316  15.589   9.028 -0.1881 -0.0328  0.2759
  108loPI   C2B 1726   1.421  15.722   8.640 -0.2135 -0.0664  0.0158
  108loPI   C3B 1727   1.393  16.016   8.294 -0.1006  0.0863  0.1954
  108loPI   C4B 1728   1.397  16.362   8.002  0.1255 -0.1332  0.1186
  109loPI    C1 1729  17.166  17.443  10.670 -0.0572  0.2338  0.0960
  109loPI    C2 1730  16.838  17.454  10.442  0.0812 -0.2675 -0.1421
  109loPI    C3 1731  16.935  17.118  10.636  0.1301  0.0602  0.4249
  109loPI   PO4 1732  17.355  17.486  10.542  0.0364  0.0998  0.0938
  109loPI   GL1 1733  17.662  17.257  10.221 -0.0311 -0.0734 -0.1681
  109loPI   GL2 1734  17.905  17.288  10.149 -0.0005 -0.1854  0.1285
  109loPI   C1A 1735  17.528  17.356   9.830 -0.2773  0.1718 -0.2950
  109loPI   C2A 1736  17.330  17.459   9.469 -0.0001  0.0531  0.3441
  109loPI   C3A 1737  17.369  17.539   9.024 -0.3083  0.3922  0.1054
  109loPI   C4A 1738  17.206  17.494   8.645 -0.1956 -0.3222 -0.2559
  109loPI   C5A 1739  17.159  17.532   8.230 -0.0047 -0.1434 -0.2055
  109loPI   C6A 1740  17.131  17.348   7.809 -0.1841  0.0597  0.0939
  109loPI   C1B 1741  17.961  17.474   9.735 -0.1068 -0.0326 -0.0133
  109loPI   C2B 1742  17.866  17.539   9.291 -0.0416 -0.0080 -0.0479
  109loPI   C3B 1743  17.833  17.540   8.861  0.3136  0.0291  0.2341
  109loPI   C4B 1744  17.723  17.460   8.414 -0.0028 -0.0816  0.0128
  110loPI    C1 1745  10.054  12.782  10.009 -0.1119  0.1495 -0.0893
  110loPI    C2 1746  10.125  12.458  10.232  0.0034  0.0722 -0.2363
  110loPI    C3 1747   9.926  12.769  10.387  0.1786  0.0641  0.0085
  110loPI   PO4 1748  10.303  12.818   9.726  0.2424 -0.1481  0.1422
  110loPI   GL1 1749  10.199  13.040   9.290  0.1077 -0.3181 -0.1615
  110loPI   GL2 1750  10.180  12.742   9.183  0.2713 -0.2485  0.0832
  110loPI   C1A 1751  10.051  13.136   8.889  0.0204 -0.3989  0.0866
  110loPI   C2A 1752   9.880  12.961   8.469 -0.1213 -0.0914  0.0492
  110loPI   C3A 1753   9.716  13.104   8.175 -0.0572  0.0433 -0.0939
  110loPI   C4A 1754   9.763  13.251   7.717 -0.0120 -0.3439  0.2932
  110loPI   C5A 1755  10.002  13.539   7.589  0.0906 -0.0303 -0.0048
  110loPI   C6A 1756  10.500  13.547   7.533 -0.1060 -0.1547  0.2965
  110loPI   C1B 1757  10.231  12.547   8.801 -0.1629 -0.3196  0.0285
  110loPI   C2B 1758  10.208  12.592   8.373 -0.1040 -0.1315 -0.1675
  110loPI   C3B 1759  10.142  12.871   8.037 -0.1547 -0.3536 -0.1465
  110loPI   C4B 1760  10.015  12.795   7.587  0.0362 -0.0488 -0.0478
  111loPI    C1 1761  16.237   5.171  10.677 -0.0942  0.2971 -0.0195
  111loPI    C2 1762  15.914   5.295  10.879 -0.2184  0.0296 -0.0491
  111loPI    C3 1763  16.225   5.140  11.076 -0.2739 -0.0840 -0.0504
  111loPI   PO4 1764  16.091   5.141  10.420  0.0782 -0.1995 -0.0731
  111loPI   GL1 1765  15.998   5.353  10.013  0.0450 -0.0972 -0.0977
  111loPI   GL2 1766  16.058   5.144   9.774 -0.2892 -0.2149 -0.2090
  111loPI   C1A 1767  15.939   5.583   9.650  0.2727 -0.0392 -0.1297
  111loPI   C2A 1768  16.003   5.685   9.236 -0.2456 -0.0289  0.2332
  111loPI   C3A 1769  16.005   5.762   8.741 -0.0478  0.2311 -0.2990
  111loPI   C4A 1770  15.905   6.107   8.438  0.3486 -0.0915 -0.4489
  111loPI   C5A 1771  16.100   6.163   7.983  0.0488  0.0855 -0.0662
  111loPI   C6A 1772  16.267   6.142   7.522  0.1973 -0.2780 -0.2965
  111loPI   C1B 1773  15.866   5.215   9.270  0.2745  0.1626  0.1678
  111loPI   C2B 1774  15.947   5.212   8.868 -0.1591 -0.0445  0.1597
  111loPI   C3B 1775  16.151   5.326   8.469 -0.1915 -0.2102  0.1660
  111loPI   C4B 1776  16.286   5.276   8.014 -0.1208  0.3468 -0.0517
  112loPI    C1 1777   0.733   9.475  10.165 -0.0494  0.0626 -0.1128
  112loPI    C2 1778   0.719   9.161   9.917 -0.0389 -0.0454  0.0220
  112loPI    C3 1779   0.789   9.105  10.307 -0.0733  0.1217  0.0529
  112loPI   PO4 1780   0.466   9.601  10.047 -0.2475  0.2136 -0.1334
  112loPI   GL1 1781   0.416   9.512   9.657 -0.0250 -0.1551  0.0015
  112loPI   GL2 1782   0.514   9.204   9.476 -0.1276 -0.0836  0.0714
  112loPI   C1A 1783   0.732   9.710   9.311 -0.1835  0.1183 -0.4200
  112loPI   C2A 1784   0.776   9.817   8.856 -0.1175 -0.0142 -0.0522
  112loPI   C3A 1785   0.956   9.846   8.389  0.0521  0.2587 -0.4752
  112loPI   C4A 1786   0.890   9.727   8.036  0.0483 -0.1065 -0.0796
  112loPI   C5A 1787   0.649   9.956   7.676  0.0576  0.1791 -0.1397
  112loPI   C6A 1788   0.290   9.962   7.471 -0.1926 -0.4018  0.1278
  112loPI   C1B 1789   0.668   9.329   8.980  0.1374  0.2277  0.3595
  112loPI   C2B 1790   0.614   9.158   8.545  0.2070 -0.2898 -0.0601
  112loPI   C3B 1791   0.629   9.316   8.199 -0.2732 -0.0110  0.0456
  112loPI   C4B 1792   0.874   9.250   7.859  0.1825 -0.0663 -0.2451
  113loPI    C1 1793  15.721   6.128  10.390  0.2582  0.2235 -0.0714
  113loPI    C2 1794  15.326   6.195  10.394  0.2612  0.2397 -0.0308
  113loPI    C3 1795  15.520   6.118  10.736  0.2714  0.1022 -0.0672
  113loPI   PO4 1796  15.760   6.306  10.184 -0.1440  0.3191 -0.0520
  113loPI   GL1 1797  15.861   6.352   9.867  0.0214  0.3224  0.0155
  113loPI   GL2 1798  16.075   6.092   9.693 -0.1027  0.0860  0.0247
  113loPI   C1A 1799  15.615   6.512   9.461  0.1818 -0.0252 -0.1289
  113loPI   C2A 1800  15.206   6.466   9.470  0.2810 -0.2166 -0.0649
  113loPI   C3A 1801  14.953   6.442   9.027 -0.2325  0.0619  0.1564
  113loPI   C4A 1802  14.880   6.465   8.508  0.2496  0.0415  0.1561
  113loPI   C5A 1803  14.640   6.557   8.091 -0.0680  0.1295 -0.1159
  113loPI   C6A 1804  14.637   6.613   7.592 -0.0974  0.2008  0.3365
  113loPI   C1B 1805  16.088   6.356   9.304 -0.2629 -0.3725  0.4212
  113loPI   C2B 1806  15.826   6.517   8.955 -0.1407  0.0229  0.2200
  113loPI   C3B 1807  15.777   6.635   8.524 -0.0602 -0.3300  0.2920
  113loPI   C4B 1808  15.939   6.643   8.086  0.3161  0.3190  0.1687
  114loPI    C1 1809   1.739   5.137  10.736 -0.0516  0.1845  0.0408
  114loPI    C2 1810   2.038   5.084  10.996 -0.0768  0.0596  0.0453
  114loPI    C3 1811   1.795   5.399  11.033 -0.1361 -0.0066  0.2286
  114loPI   PO4 1812   1.674   4.925  10.705  0.0366 -0.2074  0.2174
  114loPI   GL1 1813   1.671   4.884  10.196 -0.1521  0.2364 -0.1226
  114loPI   GL2 1814   1.510   5.199  10.219  0.0477 -0.1063 -0.1401
  114loPI   C1A 1815   2.030   4.832   9.881  0.1682 -0.0950 -0.1779
  114loPI   C2A 1816   2.198   4.453   9.722  0.1932  0.0037  0.0295
  114loPI   C3A 1817   2.194   4.166   9.332 -0.0883  0.2013 -0.2679
  114loPI   C4A 1818   2.304   4.255   8.880 -0.1143  0.3425 -0.3889
  114loPI   C5A 1819   2.359   4.228   8.492  0.0011 -0.1098  0.2810
  114loPI   C6A 1820   2.826   4.268   8.257  0.2191 -0.1381 -0.0464
  114loPI   C1B 1821   1.909   5.353   9.929  0.0517  0.0651  0.1623
  114loPI   C2B 1822   2.139   5.312   9.613 -0.0034  0.1473 -0.0852
  114loPI   C3B 1823   2.412   4.992   9.545  0.0171 -0.0003  0.2446
  114loPI   C4B 1824   2.530   4.546   9.294  0.1106 -0.0253  0.0616
  115loPI    C1 1825  15.742   9.464   9.960  0.1522 -0.0333  0.2191
  115loPI    C2 1826  15.395   9.323   9.820  0.2018  0.1592 -0.1090
  115loPI    C3 1827  15.403   9.530  10.162 -0.0015  0.1316 -0.0858
  115loPI   PO4 1828  15.939   9.450   9.782 -0.0954  0.1072  0.2654
  115loPI   GL1 1829  15.885   9.187   9.398 -0.2919  0.0295  0.0575
  115loPI   GL2 1830  16.133   9.068   9.184 -0.3688  0.0427  0.3474
  115loPI   C1A 1831  15.631   9.098   8.980 -0.0071  0.1732  0.0103
  115loPI   C2A 1832  15.199   8.927   8.714  0.0774  0.2782 -0.0346
  115loPI   C3A 1833  15.087   8.580   8.408 -0.0777 -0.1272 -0.2997
  115loPI   C4A 1834  14.999   8.413   8.114 -0.0776  0.0124  0.0159
  115loPI   C5A 1835  14.852   8.298   7.612 -0.3659  0.2130 -0.1213
  115loPI   C6A 1836  14.549   8.170   7.198 -0.0041 -0.3268 -0.0970
  115loPI   C1B 1837  16.374   8.822   8.846 -0.1100 -0.3279 -0.0367
  115loPI   C2B 1838  16.504   8.877   8.464 -0.2729 -0.0677  0.0850
  115loPI   C3B 1839  16.735   9.002   8.178  0.1680 -0.1338  0.2341
  115loPI   C4B 1840  16.959   9.152   7.874 -0.0325 -0.1192  0.1966
  116loPI    C1 1841   0.357   8.728   9.946  0.1592  0.0515 -0.0562
  116loPI    C2 1842   0.699   8.552   9.836  0.0743 -0.0727 -0.1238
  116loPI    C3 1843   0.628   8.629  10.222  0.1777 -0.0475 -0.1095
  116loPI   PO4 1844   0.256   8.891   9.765 -0.2238  0.1966 -0.0206
  116loPI   GL1 1845  -0.112   8.942   9.525 -0.2398 -0.0009 -0.1344
  116loPI   GL2 1846  -0.048   9.362   9.473  0.1087 -0.2401  0.2449
  116loPI   C1A 1847   0.174   8.981   9.129  0.2735 -0.1483  0.0684
  116loPI   C2A 1848   0.454   8.774   8.874 -0.1198 -0.0378  0.1734
  116loPI   C3A 1849   0.695   8.597   8.536  0.0964  0.1536 -0.0349
  116loPI   C4A 1850   0.696   8.410   8.047 -0.2036 -0.3769  0.2867
  116loPI   C5A 1851   0.713   8.206   7.750  0.1589 -0.0153 -0.0028
  116loPI   C6A 1852   0.849   7.829   7.634  0.0703  0.1102  0.0467
  116loPI   C1B 1853  -0.209   9.278   9.011 -0.2441  0.4225 -0.1911
  116loPI   C2B 1854  -0.334   9.419   8.614 -0.1834 -0.4060 -0.4578
  116loPI   C3B 1855  -0.416   9.549   8.150  0.1048 -0.2112 -0.1503
  116loPI   C4B 1856  -0.422   9.662   7.824 -0.0196  0.1392 -0.0663
  117loPI    C1 1857  15.748  11.503  10.113 -0.0985 -0.0814 -0.0237
  117loPI    C2 1858  15.959  11.398  10.437  0.2287  0.3634 -0.0835
  117loPI    C3 1859  15.721  11.719  10.449 -0.0184  0.1871 -0.1871
  117loPI   PO4 1860  15.776  11.257   9.928 -0.1513 -0.0328  0.3460
  117loPI   GL1 1861  15.816  11.397   9.459  0.0696  0.1462  0.1750
  117loPI   GL2 1862  15.922  11.728   9.685 -0.4767  0.1667  0.2870
  117loPI   C1A 1863  15.597  11.630   9.218 -0.1481 -0.1854 -0.1469
  117loPI   C2A 1864  15.318  11.608   8.858  0.0225  0.2335 -0.1943
  117loPI   C3A 1865  15.292  11.650   8.430  0.1942 -0.0219  0.2900
  117loPI   C4A 1866  15.033  11.269   8.106 -0.1619 -0.1594 -0.3019
  117loPI   C5A 1867  14.853  11.095   7.723  0.0897 -0.0994  0.2400
  117loPI   C6A 1868  14.516  10.988   7.464 -0.0091 -0.0675 -0.0908
  117loPI   C1B 1869  16.035  11.909   9.287  0.0195  0.2516  0.1621
  117loPI   C2B 1870  16.025  11.790   8.885 -0.2883  0.3002  0.1021
  117loPI   C3B 1871  15.670  11.899   8.649  0.2694  0.3899  0.0506
  117loPI   C4B 1872  15.601  12.020   8.306 -0.1261  0.2325 -0.1839
  118loPI    C1 1873   7.675   8.334  10.422 -0.0497 -0.0852  0.3026
  118loPI    C2 1874   7.916   8.628  10.300  0.0001 -0.1987  0.1239
  118loPI    C3 1875   7.819   8.597  10.686  0.0743 -0.0075  0.1593
  118loPI   PO4 1876   7.770   8.110  10.153  0.0742  0.0683  0.0318
  118loPI   GL1 1877   8.023   7.874   9.798 -0.0959  0.0025 -0.1916
  118loPI   GL2 1878   8.108   8.168   9.711 -0.0490 -0.1264 -0.1001
  118loPI   C1A 1879   8.178   7.494   9.617 -0.0506  0.2690  0.1016
  118loPI   C2A 1880   8.245   7.335   9.226  0.2054 -0.0006 -0.2433
  118loPI   C3A 1881   8.186   7.363   8.888  0.2031  0.1517 -0.4555
  118loPI   C4A 1882   7.952   7.395   8.594 -0.1805  0.0740  0.0781
  118loPI   C5A 1883   7.729   7.094   8.359 -0.2050  0.0477  0.0198
  118loPI   C6A 1884   7.803   6.906   7.895  0.0817  0.1993 -0.2040
  118loPI   C1B 1885   8.252   7.927   9.374 -0.1422 -0.0022 -0.1579
  118loPI   C2B 1886   8.391   7.790   9.070 -0.2906  0.0665  0.0785
  118loPI   C3B 1887   8.692   7.982   8.728  0.3218 -0.1580 -0.2236
  118loPI   C4B 1888   8.944   7.842   8.383  0.3415 -0.1311  0.1478
  119loPI    C1 1889  14.593   3.914  10.967 -0.0558  0.1743 -0.1795
  119loPI    C2 1890  14.231   3.866  11.129 -0.0387 -0.1197 -0.2234
  119loPI    C3 1891  14.556   3.742  11.326  0.0294  0.0360 -0.2363
  119loPI   PO4 1892  14.502   3.836  10.669 -0.1422  0.1162  0.2702
  119loPI   GL1 1893  14.506   3.537  10.393 -0.1519  0.1101  0.0829
  119loPI   GL2 1894  14.244   3.334  10.490  0.2359  0.0293 -0.2621
  119loPI   C1A 1895  14.649   3.607   9.980  0.2016  0.0236 -0.0723
  119loPI   C2A 1896  14.716   3.459   9.654  0.2565 -0.0818  0.4088
  119loPI   C3A 1897  14.546   3.232   9.359 -0.1198  0.1056 -0.0188
  119loPI   C4A 1898  14.336   3.025   8.983 -0.1560  0.1275 -0.0217
  119loPI   C5A 1899  14.193   2.695   8.783 -0.1879 -0.1336  0.0306
  119loPI   C6A 1900  14.033   2.711   8.409  0.0203  0.0406 -0.3959
  119loPI   C1B 1901  14.144   3.298  10.066 -0.2269 -0.2719 -0.0004
  119loPI   C2B 1902  14.108   3.284   9.660 -0.0415 -0.0967 -0.1017
  119loPI   C3B 1903  13.934   3.321   9.252  0.0336 -0.2085 -0.1441
  119loPI   C4B 1904  13.967   3.312   8.902  0.2830 -0.0079  0.3589
  120loPI    C1 1905   2.058   8.315  10.363  0.0786 -0.1695 -0.1002
  120loPI    C2 1906   1.861   8.133  10.660  0.0325 -0.0648 -0.0661
  120loPI    C3 1907   1.963   8.519  10.694 -0.1875  0.0153 -0.2863
  120loPI   PO4 1908   1.953   8.249  10.063 -0.4018 -0.0395  0.0467
  120loPI   GL1 1909   1.996   8.175   9.688 -0.0614  0.0295  0.2207
  120loPI   GL2 1910   2.329   8.162   9.597  0.1353 -0.0496 -0.1504
  120loPI   C1A 1911   2.153   8.134   9.145  0.3756 -0.1776  0.0959
  120loPI   C2A 1912   2.111   8.373   8.735  0.0935 -0.1081 -0.0790
  120loPI   C3A 1913   2.181   8.262   8.272 -0.1280  0.0177  0.0241
  120loPI   C4A 1914   2.153   8.094   7.845 -0.0039  0.1453 -0.2345
  120loPI   C5A 1915   2.492   7.800   7.649 -0.3291 -0.1207  0.0855
  120loPI   C6A 1916   2.786   7.667   7.938 -0.0033  0.1157  0.1649
  120loPI   C1B 1917   2.626   7.775   9.523  0.0011 -0.3524  0.1915
  120loPI   C2B 1918   2.604   7.405   9.325  0.4533 -0.0389 -0.1199
  120loPI   C3B 1919   2.647   7.246   8.871  0.0542  0.0452 -0.2460
  120loPI   C4B 1920   2.517   7.345   8.498  0.0529  0.1173 -0.3798
  121loPI    C1 1921  11.405  15.759  10.462  0.1252 -0.0992  0.0568
  121loPI    C2 1922  11.091  15.532  10.363 -0.0185  0.0899  0.0717
  121loPI    C3 1923  11.050  15.822  10.634  0.3149 -0.2729  0.5276
  121loPI   PO4 1924  11.571  15.673  10.211  0.2464  0.1295  0.0837
  121loPI   GL1 1925  11.633  15.838   9.822  0.2867  0.1890  0.0975
  121loPI   GL2 1926  11.617  16.128   9.942 -0.0233  0.1427 -0.3355
  121loPI   C1A 1927  11.669  15.963   9.457 -0.3396 -0.3782  0.1917
  121loPI   C2A 1928  11.705  16.115   8.968 -0.2726 -0.2653  0.1287
  121loPI   C3A 1929  11.818  16.403   8.698  0.2052  0.2073  0.1677
  121loPI   C4A 1930  12.111  16.470   8.312  0.2473  0.1928 -0.2876
  121loPI   C5A 1931  12.142  16.908   8.183 -0.0695 -0.0437  0.1168
  121loPI   C6A 1932  12.453  17.061   7.867 -0.1265 -0.2408  0.1938
  121loPI   C1B 1933  11.529  16.467   9.515 -0.1138 -0.0109 -0.1819
  121loPI   C2B 1934  11.258  16.129   9.241 -0.1660  0.0695  0.1073
  121loPI   C3B 1935  11.104  15.980   8.825  0.0342 -0.0309  0.0889
  121loPI   C4B 1936  10.964  15.748   8.424  0.0070  0.1318  0.0648
  122loPI    C1 1937  12.196  12.783   9.700  0.0171 -0.0363  0.1412
  122loPI    C2 1938  12.067  13.131   9.849  0.2642  0.2113 -0.2061
  122loPI    C3 1939  12.433  12.998   9.940  0.2053  0.0863 -0.1485
  122loPI   PO4 1940  12.148  12.902   9.370 -0.4064 -0.2028 -0.3568
  122loPI   GL1 1941  12.265  12.735   9.025  0.0412  0.2380 -0.1648
  122loPI   GL2 1942  11.842  12.574   9.092 -0.1503 -0.3431  0.2176
  122loPI   C1A 1943  12.435  13.023   8.850  0.1880 -0.1763 -0.0768
  122loPI   C2A 1944  12.232  13.095   8.417 -0.0397 -0.1084  0.2001
  122loPI   C3A 1945  12.315  13.410   8.071  0.0149 -0.0015 -0.0613
  122loPI   C4A 1946  12.485  13.425   7.761  0.0836 -0.2097  0.2458
  122loPI   C5A 1947  12.683  13.510   7.378  0.1254  0.2090  0.1025
  122loPI   C6A 1948  12.754  13.219   7.066  0.2768 -0.1186  0.0716
  122loPI   C1B 1949  11.961  12.580   8.674 -0.1139 -0.3557 -0.3529
  122loPI   C2B 1950  12.006  12.746   8.194 -0.0018 -0.0896 -0.2493
  122loPI   C3B 1951  12.168  12.871   7.908  0.1859 -0.2698  0.0907
  122loPI   C4B 1952  12.421  12.804   7.555  0.0869  0.0145  0.0839
  123loPI    C1 1953  18.160   4.160  10.863  0.3380  0.1514 -0.1155
  123loPI    C2 1954  18.430   4.188  11.157  0.3190 -0.1889 -0.0615
  123loPI    C3 1955  18.093   3.982  11.215  0.1371  0.0658 -0.1958
  123loPI   PO4 1956  18.287   4.029  10.595 -0.3964  0.0518 -0.3819
  123loPI   GL1 1957  18.197   3.751  10.224 -0.2422  0.4017 -0.2423
  123loPI   GL2 1958  18.054   4.004  10.189  0.0118 -0.2023  0.1750
  123loPI   C1A 1959  17.963   3.628   9.758  0.0987  0.0229  0.3412
  123loPI   C2A 1960  18.033   3.662   9.364  0.3514 -0.1973  0.0526
  123loPI   C3A 1961  17.818   3.463   8.999 -0.1732  0.2247 -0.1947
  123loPI   C4A 1962  17.743   3.426   8.520 -0.2576  0.0152  0.4023
  123loPI   C5A 1963  17.577   3.015   8.356  0.1970  0.0080 -0.1712
  123loPI   C6A 1964  17.749   2.510   8.402  0.0880  0.1621 -0.0550
  123loPI   C1B 1965  17.736   4.119   9.820  0.0169 -0.3334 -0.0940
  123loPI   C2B 1966  17.770   4.427   9.420  0.1008  0.1029  0.0608
  123loPI   C3B 1967  17.779   4.456   9.005 -0.0533  0.3004  0.1179
  123loPI   C4B 1968  17.745   4.361   8.560  0.0920  0.3184  0.0176
  124loPI    C1 1969   5.989  18.527  10.264 -0.0647  0.1944  0.0229
  124loPI    C2 1970   6.172  18.218  10.439 -0.0112  0.1102 -0.1792
  124loPI    C3 1971   5.956  18.473  10.659  0.2530  0.1451  0.0447
  124loPI   PO4 1972   6.169  18.544  10.035 -0.3549 -0.0537  0.1172
  124loPI   GL1 1973   5.998  18.663   9.556 -0.2399  0.2875 -0.1787
  124loPI   GL2 1974   6.067  18.319   9.573 -0.2696  0.0395  0.2680
  124loPI   C1A 1975   5.629  18.629   9.382  0.1185  0.0821 -0.2041
  124loPI   C2A 1976   5.293  18.494   9.071  0.2575  0.2994  0.1620
  124loPI   C3A 1977   5.365  18.390   8.607  0.0967  0.0790 -0.0941
  124loPI   C4A 1978   5.292  18.604   8.199 -0.1916 -0.0127  0.1569
  124loPI   C5A 1979   5.545  18.765   7.839  0.1102 -0.3236  0.0584
  124loPI   C6A 1980   5.589  18.999   7.402 -0.5593  0.1169 -0.0541
  124loPI   C1B 1981   6.030  18.465   9.105  0.1602  0.0630 -0.0458
  124loPI   C2B 1982   5.789  18.630   8.904  0.2367  0.0794  0.0843
  124loPI   C3B 1983   5.745  18.706   8.448 -0.0801 -0.0528  0.1009
  124loPI   C4B 1984   5.950  18.610   8.028 -0.1217 -0.1909  0.0042
  125loPI    C1 1985   6.157  17.265  10.399 -0.1373  0.1879  0.0881
  125loPI    C2 1986   5.819  17.056  10.355 -0.0422  0.0667 -0.0806
  125loPI    C3 1987   6.079  16.958  10.643 -0.0580  0.0350 -0.0771
  125loPI   PO4 1988   6.217  17.255  10.101 -0.0513 -0.0491 -0.1807
  125loPI   GL1 1989   6.282  17.468   9.591 -0.2600  0.0542 -0.2022
  125loPI   GL2 1990   6.432  17.659   9.817  0.1827  0.2022 -0.0965
  125loPI   C1A 1991   6.527  17.430   9.272 -0.1426  0.1140 -0.1775
  125loPI   C2A 1992   6.885  17.375   8.889 -0.2006  0.0164 -0.0876
  125loPI   C3A 1993   6.962  16.970   8.693 -0.1880  0.1651 -0.0971
  125loPI   C4A 1994   7.343  16.748   8.464 -0.2073  0.1301  0.0894
  125loPI   C5A 1995   7.519  16.572   8.137  0.0680  0.2692 -0.1474
  125loPI   C6A 1996   7.650  16.471   7.754  0.1095 -0.4072 -0.0404
  125loPI   C1B 1997   6.435  17.992   9.533  0.2164  0.0006 -0.1980
  125loPI   C2B 1998   6.197  18.035   9.159 -0.1100  0.1207 -0.0222
  125loPI   C3B 1999   6.082  17.924   8.812 -0.1760 -0.1206  0.1000
  125loPI   C4B 2000   6.009  17.736   8.547 -0.2899  0.2640 -0.1954
  126loPI    C1 2001  18.525   8.485  10.027 -0.0098 -0.0130 -0.1214
  126loPI    C2 2002  18.176   8.341  10.158  0.0808  0.0205  0.1648
  126loPI    C3 2003  18.516   8.154  10.252  0.1349 -0.0747 -0.2050
  126loPI   PO4 2004  18.556   8.492   9.788 -0.0275  0.2739 -0.0372
  126loPI   GL1 2005  18.469   8.327   9.444  0.0572 -0.1049 -0.1002
  126loPI   GL2 2006  18.731   8.525   9.326  0.0561  0.4087  0.2984
  126loPI   C1A 2007  18.331   8.167   9.020  0.1314 -0.1982  0.0758
  126loPI   C2A 2008  18.514   8.120   8.619  0.0115 -0.1570 -0.2186
  126loPI   C3A 2009  18.456   8.079   8.220 -0.4856  0.3179 -0.0168
  126loPI   C4A 2010  18.575   8.162   7.774 -0.0034 -0.1236 -0.1741
  126loPI   C5A 2011  18.325   8.035   7.390 -0.0665  0.0777 -0.0899
  126loPI   C6A 2012  18.035   7.813   7.106 -0.0168 -0.0530  0.2153
  126loPI   C1B 2013  18.625   8.643   8.819  0.1390  0.3040  0.1864
  126loPI   C2B 2014  18.404   8.563   8.449 -0.1084 -0.0111 -0.0925
  126loPI   C3B 2015  18.387   8.514   7.994  0.0541  0.0492  0.3237
  126loPI   C4B 2016  18.321   8.532   7.632  0.1625 -0.1923  0.3111
  127loPI    C1 2017   2.703  11.832   9.924 -0.1568  0.2818 -0.2861
  127loPI    C2 2018   2.339  11.931  10.058 -0.1312  0.1570 -0.1204
  127loPI    C3 2019   2.645  11.899  10.314 -0.1314 -0.3119 -0.1709
  127loPI   PO4 2020   2.565  11.607   9.743  0.1635 -0.2686 -0.1049
  127loPI   GL1 2021   2.378  11.385   9.472  0.0953 -0.3378  0.0114
  127loPI   GL2 2022   2.075  11.583   9.469  0.0619 -0.0699 -0.2639
  127loPI   C1A 2023   2.419  11.400   8.971 -0.2949 -0.1377 -0.0572
  127loPI   C2A 2024   2.183  11.324   8.628 -0.0351  0.3873 -0.2813
  127loPI   C3A 2025   2.225  11.189   8.270 -0.2304 -0.0519  0.0232
  127loPI   C4A 2026   2.119  11.067   7.877  0.4428  0.2821 -0.1186
  127loPI   C5A 2027   2.035  11.380   7.586 -0.2324  0.0337  0.2129
  127loPI   C6A 2028   1.812  11.615   7.280  0.0770  0.0616 -0.4005
  127loPI   C1B 2029   1.909  11.615   9.012 -0.1764  0.0561  0.0805
  127loPI   C2B 2030   1.849  11.733   8.565 -0.0375 -0.0866  0.1629
  127loPI   C3B 2031   1.788  11.644   8.115 -0.1276  0.1882 -0.1702
  127loPI   C4B 2032   1.620  11.786   7.690  0.1998 -0.0303  0.1453
  128loPI    C1 2033  17.430   9.379  10.004  0.0801  0.1404  0.0051
  128loPI    C2 2034  17.468   9.007  10.146 -0.4319  0.0793  0.0002
  128loPI    C3 2035  17.601   9.317  10.360 -0.2327 -0.0868  0.1208
  128loPI   PO4 2036  17.590   9.454   9.792 -0.0355  0.0440 -0.1657
  128loPI   GL1 2037  17.766   9.429   9.395  0.1074  0.1577  0.1554
  128loPI   GL2 2038  17.472   9.201   9.278 -0.2362 -0.1899 -0.3044
  128loPI   C1A 2039  18.062   9.592   9.070  0.0264  0.0679  0.0050
  128loPI   C2A 2040  17.954   9.837   8.694  0.1487 -0.3360 -0.1720
  128loPI   C3A 2041  17.755   9.833   8.329 -0.3081 -0.0974  0.1746
  128loPI   C4A 2042  17.747   9.772   7.938 -0.2737  0.0483  0.0564
  128loPI   C5A 2043  17.956  10.139   7.655 -0.0591  0.2403  0.1482
  128loPI   C6A 2044  17.921  10.230   7.245 -0.1522  0.2573  0.2152
  128loPI   C1B 2045  17.248   9.397   8.994  0.0942  0.3071 -0.0546
  128loPI   C2B 2046  17.476   9.690   8.978 -0.0375 -0.3225 -0.1622
  128loPI   C3B 2047  17.441   9.961   8.711 -0.4873  0.1558  0.1841
  128loPI   C4B 2048  17.215   9.980   8.365  0.1328  0.0767 -0.3786
  129loPI    C1 2049  16.932   4.467  10.618  0.2645  0.2119 -0.0947
  129loPI    C2 2050  16.994   4.855  10.691 -0.2695  0.3108 -0.1227
  129loPI    C3 2051  16.714   4.655  10.895 -0.0069 -0.0617 -0.1166
  129loPI   PO4 2052  16.860   4.467  10.366  0.4970 -0.1686 -0.0680
  129loPI   GL1 2053  16.989   4.598   9.942  0.0984 -0.1329  0.0133
  129loPI   GL2 2054  17.239   4.492   9.899 -0.0494  0.0728  0.1712
  129loPI   C1A 2055  16.854   4.458   9.629  0.0838  0.0222  0.1050
  129loPI   C2A 2056  16.705   4.487   9.255  0.1062  0.3919 -0.0776
  129loPI   C3A 2057  16.655   4.469   8.668 -0.0721 -0.1160 -0.0433
  129loPI   C4A 2058  16.556   4.109   8.459 -0.3207  0.0023  0.1229
  129loPI   C5A 2059  16.354   3.918   8.136  0.2635  0.0644  0.0686
  129loPI   C6A 2060  16.020   3.613   7.917  0.0983 -0.0886 -0.0328
  129loPI   C1B 2061  17.344   4.201   9.500  0.0713  0.0985  0.0546
  129loPI   C2B 2062  17.029   4.067   9.047  0.4107  0.0654  0.1175
  129loPI   C3B 2063  17.070   4.081   8.617  0.0250 -0.1007 -0.1840
  129loPI   C4B 2064  17.136   3.936   8.218 -0.0361 -0.2003  0.0415
  130loPI    C1 2065   0.415  11.614   9.833 -0.1144 -0.0957  0.1203
  130loPI    C2 2066   0.408  11.416  10.180 -0.0170 -0.1285  0.1041
  130loPI    C3 2067   0.067  11.554  10.021 -0.0520 -0.0387  0.2549
  130loPI   PO4 2068   0.683  11.706   9.849 -0.2562 -0.0173  0.0379
  130loPI   GL1 2069   1.034  11.510   9.570  0.0914 -0.1362 -0.0154
  130loPI   GL2 2070   1.077  11.789   9.548 -0.1309 -0.1905  0.2829
  130loPI   C1A 2071   0.809  11.306   9.204  0.1196  0.1783 -0.4440
  130loPI   C2A 2072   0.589  11.202   8.833 -0.0854 -0.2872 -0.0205
  130loPI   C3A 2073   0.181  11.228   8.551 -0.0358  0.0183  0.0346
  130loPI   C4A 2074   0.055  11.109   8.169 -0.0867  0.0774  0.2450
  130loPI   C5A 2075  -0.270  11.031   7.788  0.1184  0.0822 -0.3667
  130loPI   C6A 2076  -0.637  11.224   7.594  0.0011 -0.0636 -0.3051
  130loPI   C1B 2077   0.985  11.779   9.109  0.2729 -0.0866 -0.0979
  130loPI   C2B 2078   0.846  11.562   8.683 -0.1689 -0.0829 -0.1327
  130loPI   C3B 2079   0.647  11.306   8.316 -0.2393 -0.0282  0.0088
  130loPI   C4B 2080   0.683  10.946   8.001  0.3181 -0.3309  0.0067
  131loPI    C1 2081   1.528   4.138  10.770 -0.0523  0.2526 -0.3657
  131loPI    C2 2082   1.720   4.461  10.907  0.1429 -0.0469  0.0912
  131loPI    C3 2083   1.510   4.232  11.158  0.0013 -0.2749 -0.2280
  131loPI   PO4 2084   1.618   4.106  10.556  0.1591 -0.1474  0.1035
  131loPI   GL1 2085   1.835   4.333  10.172  0.2283  0.0706  0.1161
  131loPI   GL2 2086   1.788   4.090   9.984  0.5934  0.3273 -0.0081
  131loPI   C1A 2087   1.633   4.587   9.789 -0.3498 -0.2313  0.0787
  131loPI   C2A 2088   1.530   4.559   9.321  0.0373 -0.0124  0.2409
  131loPI   C3A 2089   1.575   4.347   8.898  0.2920 -0.1234  0.1879
  131loPI   C4A 2090   1.625   4.426   8.464  0.1837 -0.0035  0.1393
  131loPI   C5A 2091   1.893   4.569   8.126  0.0182  0.0226  0.1888
  131loPI   C6A 2092   1.959   4.518   7.646  0.3274  0.0293  0.2411
  131loPI   C1B 2093   1.846   3.930   9.551 -0.1890  0.0917  0.2950
  131loPI   C2B 2094   1.822   3.858   9.060  0.5577  0.0831 -0.0499
  131loPI   C3B 2095   1.898   3.980   8.665  0.0854 -0.0925  0.1707
  131loPI   C4B 2096   1.773   3.982   8.297  0.1143  0.0156 -0.3445
  132loPI    C1 2097   9.095  11.854   9.992  0.0765 -0.1077 -0.2791
  132loPI    C2 2098   8.720  11.880  10.129  0.1358 -0.2631 -0.0810
  132loPI    C3 2099   8.941  11.558  10.214  0.3486 -0.1266 -0.1107
  132loPI   PO4 2100   9.125  11.807   9.706  0.1422  0.2498  0.0234
  132loPI   GL1 2101   9.046  11.774   9.336 -0.0380  0.2329 -0.1833
  132loPI   GL2 2102   9.293  12.012   9.192 -0.0125 -0.1380  0.0352
  132loPI   C1A 2103   9.337  11.560   8.996 -0.0887  0.0895  0.1122
  132loPI   C2A 2104   9.371  11.550   8.538  0.2210 -0.0784 -0.1922
  132loPI   C3A 2105   9.434  11.615   8.074  0.0477  0.0649 -0.0900
  132loPI   C4A 2106   9.838  11.669   7.786  0.0730 -0.1066  0.1195
  132loPI   C5A 2107   9.898  12.060   7.611 -0.1243  0.1034 -0.3310
  132loPI   C6A 2108   9.609  12.438   7.506 -0.1663  0.0016 -0.0058
  132loPI   C1B 2109   9.456  11.996   8.805  0.4009 -0.2668 -0.3187
  132loPI   C2B 2110   9.505  12.013   8.304  0.5278 -0.2171 -0.0506
  132loPI   C3B 2111   9.473  12.093   7.887  0.1212 -0.2756  0.0673
  132loPI   C4B 2112   9.429  11.973   7.571 -0.1475  0.1740  0.1013
  133loPI    C1 2113   5.906   7.830  10.768 -0.1832  0.2281 -0.1631
  133loPI    C2 2114   5.543   7.698  10.875 -0.0054  0.0431  0.2311
  133loPI    C3 2115   5.719   7.991  11.083  0.0539  0.1661  0.0115
  133loPI   PO4 2116   5.925   7.923  10.489  0.3172  0.1724  0.2000
  133loPI   GL1 2117   5.705   8.221  10.107  0.1308  0.0397  0.1605
  133loPI   GL2 2118   5.674   7.812  10.083  0.2408  0.0161 -0.4104
  133loPI   C1A 2119   5.761   8.121   9.654 -0.1236 -0.2932 -0.0319
  133loPI   C2A 2120   5.757   7.878   9.310  0.0927  0.2801 -0.1897
  133loPI   C3A 2121   5.787   7.640   8.900  0.0968  0.1356 -0.0622
  133loPI   C4A 2122   5.904   7.891   8.550  0.0244 -0.0736 -0.0717
  133loPI   C5A 2123   5.751   7.948   8.249 -0.2164  0.0303  0.0667
  133loPI   C6A 2124   5.336   8.025   8.033 -0.1436 -0.1119 -0.1612
  133loPI   C1B 2125   5.834   7.507   9.709  0.0216  0.3502  0.0552
  133loPI   C2B 2126   6.012   7.426   9.273 -0.0816  0.2868 -0.0935
  133loPI   C3B 2127   5.965   7.211   8.862  0.1670  0.2640 -0.1652
  133loPI   C4B 2128   6.038   6.808   8.811 -0.0488  0.0509 -0.1568
  134loPI    C1 2129  10.296  13.336   9.707  0.1598  0.1018  0.0474
  134loPI    C2 2130  10.089  13.291  10.046  0.1890  0.2945  0.0923
  134loPI    C3 2131  10.488  13.260  10.050  0.1735  0.0698  0.0325
  134loPI   PO4 2132  10.199  13.536   9.541 -0.4131  0.2575  0.0820
  134loPI   GL1 2133   9.920  13.434   9.248 -0.0873  0.1572  0.0420
  134loPI   GL2 2134   9.640  13.454   9.307 -0.0228  0.3455 -0.1207
  134loPI   C1A 2135   9.995  13.626   8.805  0.0552 -0.0827 -0.2029
  134loPI   C2A 2136   9.922  13.452   8.455 -0.2697  0.0307  0.0250
  134loPI   C3A 2137  10.155  13.364   8.084  0.2355 -0.2547 -0.3326
  134loPI   C4A 2138  10.318  13.189   7.757 -0.3118  0.0224 -0.0066
  134loPI   C5A 2139  10.571  12.763   7.717 -0.1265  0.2384  0.0110
  134loPI   C6A 2140  10.872  12.590   7.311  0.1957  0.0662  0.0223
  134loPI   C1B 2141   9.598  13.248   8.908  0.0223 -0.2341 -0.0025
  134loPI   C2B 2142   9.392  13.354   8.547 -0.2246  0.2592 -0.1040
  134loPI   C3B 2143   9.537  13.624   8.207 -0.0347 -0.1030 -0.0955
  134loPI   C4B 2144   9.544  13.706   7.829 -0.0103 -0.2263  0.2927
  135loPI    C1 2145  10.078  18.278  10.566  0.0869  0.0260 -0.0174
  135loPI    C2 2146  10.364  18.397  10.820 -0.0426 -0.0874  0.1843
  135loPI    C3 2147  10.000  18.562  10.835  0.0654  0.2018 -0.2069
  135loPI   PO4 2148  10.186  18.419  10.303  0.0835  0.3466 -0.1941
  135loPI   GL1 2149  10.016  18.573   9.962  0.0453 -0.0564 -0.0535
  135loPI   GL2 2150  10.023  18.320   9.849  0.1979  0.2448  0.0676
  135loPI   C1A 2151   9.891  18.812   9.616  0.1119 -0.1064  0.0240
  135loPI   C2A 2152   9.543  18.945   9.404 -0.1830  0.0000 -0.3041
  135loPI   C3A 2153   9.512  19.005   9.027  0.2582 -0.1211 -0.1273
  135loPI   C4A 2154   9.922  19.048   8.828 -0.0649 -0.0986 -0.2314
  135loPI   C5A 2155  10.019  19.448   8.649 -0.0335 -0.0863 -0.0699
  135loPI   C6A 2156  10.187  19.800   8.446 -0.1485 -0.0245  0.1015
  135loPI   C1B 2157  10.157  18.270   9.546 -0.0526 -0.0102  0.3564
  135loPI   C2B 2158  10.257  18.284   9.103  0.2167 -0.5659 -0.1390
  135loPI   C3B 2159  10.300  18.229   8.721  0.1114  0.1386  0.2578
  135loPI   C4B 2160  10.562  18.374   8.335 -0.1659  0.3780  0.3094
  136loPI    C1 2161   4.403   0.087  10.174 -0.0934 -0.1060  0.1000
  136loPI    C2 2162   4.384   0.427  10.384 -0.0795  0.1196 -0.2559
  136loPI    C3 2163   4.644   0.142  10.489 -0.1757  0.1640  0.1185
  136loPI   PO4 2164   4.425   0.171   9.956  0.5067 -0.0860 -0.0300
  136loPI   GL1 2165   4.165  -0.021   9.688 -0.3053 -0.0608  0.1293
  136loPI   GL2 2166   4.146   0.231   9.541  0.0255 -0.0086  0.0159
  136loPI   C1A 2167   4.242  -0.252   9.332  0.0353 -0.0023 -0.0114
  136loPI   C2A 2168   4.036  -0.513   9.005 -0.0644 -0.0840  0.3354
  136loPI   C3A 2169   3.829  -0.919   8.807  0.0565  0.4326  0.0677
  136loPI   C4A 2170   3.688  -0.853   8.334 -0.1975 -0.1097  0.2268
  136loPI   C5A 2171   3.639  -0.984   7.816 -0.1412 -0.4856  0.1632
  136loPI   C6A 2172   3.427  -0.790   7.399  0.3853  0.0347  0.1580
  136loPI   C1B 2173   4.436   0.157   9.186 -0.0849  0.0196 -0.0646
  136loPI   C2B 2174   4.582   0.350   8.799  0.2608 -0.2367 -0.0549
  136loPI   C3B 2175   4.400   0.401   8.438  0.0907 -0.3695  0.1826
  136loPI   C4B 2176   4.178   0.293   7.902  0.2014 -0.1186 -0.0297
  137loPI    C1 2177   7.788   4.858  10.539 -0.0010 -0.0313  0.0306
  137loPI    C2 2178   7.883   5.165  10.777 -0.2864  0.0701  0.0179
  137loPI    C3 2179   7.577   4.926  10.872 -0.3435  0.0553 -0.1984
  137loPI   PO4 2180   7.808   4.948  10.310 -0.1706  0.2523 -0.1748
  137loPI   GL1 2181   7.502   5.052  10.003 -0.2519 -0.5266 -0.1308
  137loPI   GL2 2182   7.864   5.120   9.845  0.3968 -0.1598  0.0392
  137loPI   C1A 2183   7.220   5.050   9.690 -0.1792  0.0684  0.1472
  137loPI   C2A 2184   7.150   5.393   9.407  0.1174 -0.3609  0.4566
  137loPI   C3A 2185   7.083   5.451   8.964  0.1082  0.0191 -0.5279
  137loPI   C4A 2186   7.136   5.238   8.590 -0.2291  0.6072 -0.1425
  137loPI   C5A 2187   6.912   4.870   8.390  0.0072 -0.1467  0.0149
  137loPI   C6A 2188   6.942   4.571   8.132  0.3241  0.3284 -0.1826
  137loPI   C1B 2189   7.665   4.803   9.580  0.1446 -0.1250 -0.2941
  137loPI   C2B 2190   7.512   4.811   9.155  0.5585  0.2530 -0.1941
  137loPI   C3B 2191   7.564   4.951   8.688  0.2235 -0.1593  0.0123
  137loPI   C4B 2192   7.665   5.097   8.286  0.2650  0.0774  0.3201
  138loPI    C1 2193   3.961   1.436  10.698  0.0920 -0.0083  0.0002
  138loPI    C2 2194   3.721   1.725  10.837 -0.0370 -0.0638 -0.1055
  138loPI    C3 2195   3.650   1.343  10.932  0.0753 -0.0707 -0.0469
  138loPI   PO4 2196   4.062   1.638  10.468 -0.1792 -0.1018  0.1031
  138loPI   GL1 2197   3.909   1.803  10.111 -0.1104  0.0783 -0.3099
  138loPI   GL2 2198   4.050   1.709   9.930  0.0121  0.1885 -0.1421
  138loPI   C1A 2199   3.831   2.141   9.707  0.0831  0.0322  0.1202
  138loPI   C2A 2200   3.624   2.441   9.477 -0.2077 -0.1162 -0.3729
  138loPI   C3A 2201   3.673   2.546   9.067  0.0366 -0.0145  0.2383
  138loPI   C4A 2202   3.821   2.322   8.696  0.3154  0.0363 -0.3124
  138loPI   C5A 2203   3.746   2.097   8.297  0.3934  0.0327  0.4995
  138loPI   C6A 2204   3.282   1.970   8.146 -0.2524 -0.0841  0.1582
  138loPI   C1B 2205   3.921   1.649   9.430 -0.1514  0.1791  0.1528
  138loPI   C2B 2206   3.700   1.464   9.134  0.2869 -0.5483 -0.0123
  138loPI   C3B 2207   3.276   1.348   8.843 -0.0057 -0.1401  0.1428
  138loPI   C4B 2208   3.084   1.018   8.669  0.0203  0.1031 -0.1632
  139loPI    C1 2209  10.457   0.105  10.525  0.0634  0.1190 -0.0915
  139loPI    C2 2210  10.733   0.106  10.814  0.0227 -0.0429 -0.0511
  139loPI    C3 2211  10.360   0.226  10.894  0.1157  0.3202 -0.1423
  139loPI   PO4 2212  10.657   0.241  10.333  0.2155 -0.0489  0.1675
  139loPI   GL1 2213  10.540  -0.107   9.991  0.2481 -0.2868 -0.1123
  139loPI   GL2 2214  10.561  -0.377   9.900 -0.0888 -0.2629  0.4613
  139loPI   C1A 2215  10.418   0.103   9.684 -0.0867 -0.3640 -0.3768
  139loPI   C2A 2216  10.445   0.081   9.308 -0.1671  0.0371  0.2314
  139loPI   C3A 2217  10.393   0.085   8.798  0.1543  0.0841 -0.1698
  139loPI   C4A 2218  10.209   0.095   8.378  0.0049 -0.1310  0.1232
  139loPI   C5A 2219   9.741   0.260   8.403  0.2098 -0.0101 -0.0374
  139loPI   C6A 2220   9.325   0.583   8.505 -0.0591 -0.5669  0.4781
  139loPI   C1B 2221  10.673  -0.341   9.358  0.1332 -0.0526 -0.2466
  139loPI   C2B 2222  10.791  -0.232   8.961 -0.0646  0.1174 -0.0465
  139loPI   C3B 2223  10.817   0.071   8.506 -0.1014 -0.0649  0.2643
  139loPI   C4B 2224  11.089   0.272   8.291  0.1562  0.2310  0.0565
  140loPI    C1 2225   3.144  15.869  10.187 -0.0281 -0.1171  0.2428
  140loPI    C2 2226   3.399  15.641  10.395  0.0537 -0.1860  0.0691
  140loPI    C3 2227   3.452  16.037  10.379  0.1443 -0.1992  0.0416
  140loPI   PO4 2228   3.091  15.831   9.973 -0.0751 -0.2016 -0.0091
  140loPI   GL1 2229   3.039  16.103   9.609  0.0691  0.1636  0.3611
  140loPI   GL2 2230   3.366  16.080   9.492  0.2089  0.3450  0.0183
  140loPI   C1A 2231   2.980  16.210   9.211  0.0918  0.1518  0.0997
  140loPI   C2A 2232   2.593  16.173   8.955 -0.0129  0.0776  0.0870
  140loPI   C3A 2233   2.364  16.161   8.617 -0.2182  0.3439  0.1996
  140loPI   C4A 2234   2.424  16.238   8.103  0.3231 -0.0328  0.2645
  140loPI   C5A 2235   2.423  16.082   7.703 -0.0242  0.1553 -0.0996
  140loPI   C6A 2236   2.283  16.118   7.342 -0.0098 -0.2923  0.0675
  140loPI   C1B 2237   3.482  16.160   9.113  0.1475  0.0650  0.1388
  140loPI   C2B 2238   3.883  16.346   8.916 -0.3632  0.2848  0.1292
  140loPI   C3B 2239   4.055  16.109   8.680  0.1109 -0.1624  0.2273
  140loPI   C4B 2240   4.420  15.971   8.427 -0.2555  0.1874 -0.2326
  141loPI    C1 2241  15.842   9.980  10.090 -0.1258  0.0709 -0.0486
  141loPI    C2 2242  15.991  10.342  10.171  0.3366 -0.1310  0.0380
  141loPI    C3 2243  15.940  10.076  10.466  0.0304 -0.1511 -0.0301
  141loPI   PO4 2244  15.951   9.926   9.803 -0.0609 -0.2167  0.1265
  141loPI   GL1 2245  16.068   9.827   9.383 -0.3277  0.0332 -0.0001
  141loPI   GL2 2246  16.053  10.063   9.037  0.0911 -0.0866 -0.4625
  141loPI   C1A 2247  15.944   9.557   9.031  0.1443  0.2818  0.4311
  141loPI   C2A 2248  16.041   9.264   8.735  0.0375 -0.0597  0.1081
  141loPI   C3A 2249  15.993   9.027   8.415  0.3323  0.1551  0.1305
  141loPI   C4A 2250  15.731   8.780   8.021 -0.1862  0.1471 -0.1319
  141loPI   C5A 2251  15.353   8.635   7.745 -0.0116  0.3011  0.2646
  141loPI   C6A 2252  15.195   8.549   7.433 -0.1167  0.0779 -0.0382
  141loPI   C1B 2253  15.961   9.962   8.530 -0.0469 -0.0784  0.0560
  141loPI   C2B 2254  16.226   9.615   8.267 -0.0281 -0.5392 -0.2377
  141loPI   C3B 2255  16.313   9.255   8.053 -0.2362  0.2132 -0.1780
  141loPI   C4B 2256  16.251   8.821   8.005  0.2555  0.1444  0.0081
  142loPI    C1 2257   8.932  15.224  10.030  0.1076  0.0062  0.4112
  142loPI    C2 2258   8.995  14.850   9.904 -0.0948  0.1258 -0.0659
  142loPI    C3 2259   8.668  14.937  10.117  0.0882 -0.0165  0.2801
  142loPI   PO4 2260   8.983  15.435   9.800 -0.0107  0.0429 -0.0267
  142loPI   GL1 2261   8.874  15.587   9.306  0.0182  0.2393 -0.3913
  142loPI   GL2 2262   9.075  15.276   9.293  0.2401  0.0211 -0.7082
  142loPI   C1A 2263   9.021  15.798   8.980 -0.3281 -0.1093  0.0103
  142loPI   C2A 2264   9.085  15.755   8.597  0.2245 -0.0343 -0.0221
  142loPI   C3A 2265   9.072  15.868   8.099 -0.0974  0.3202 -0.3606
  142loPI   C4A 2266   8.932  16.094   7.735  0.0172 -0.1539 -0.0541
  142loPI   C5A 2267   8.791  15.832   7.412 -0.0617 -0.1054  0.4041
  142loPI   C6A 2268   8.502  15.549   7.088 -0.0851 -0.0730  0.0958
  142loPI   C1B 2269   9.113  15.248   8.739  0.0238 -0.1008  0.0199
  142loPI   C2B 2270   9.216  15.302   8.339  0.2460 -0.1685 -0.1529
  142loPI   C3B 2271   9.038  15.409   7.957 -0.0022  0.2655 -0.0363
  142loPI   C4B 2272   9.077  15.429   7.465  0.0465 -0.0728  0.1550
  143loPI    C1 2273  14.708   2.208  11.127 -0.0603 -0.1222  0.1250
  143loPI    C2 2274  15.070   2.329  11.247  0.0104 -0.2755  0.0678
  143loPI    C3 2275  14.759   2.349  11.498  0.0800 -0.2418  0.1521
  143loPI   PO4 2276  14.774   1.998  10.979 -0.0658  0.0203  0.5159
  143loPI   GL1 2277  14.709   2.053  10.574 -0.1132 -0.1377 -0.0335
  143loPI   GL2 2278  14.935   2.216  10.349  0.0808 -0.0359  0.1084
  143loPI   C1A 2279  14.389   2.046  10.218  0.1169 -0.3059 -0.3387
  143loPI   C2A 2280  14.234   1.848   9.910 -0.0463  0.2872  0.0345
  143loPI   C3A 2281  14.207   1.837   9.481  0.1729  0.1025  0.2853
  143loPI   C4A 2282  14.030   1.873   9.122 -0.1304 -0.1352 -0.0826
  143loPI   C5A 2283  13.672   1.894   8.907  0.1135 -0.0694  0.0026
  143loPI   C6A 2284  13.516   1.643   8.662  0.0235  0.0738 -0.0044
  143loPI   C1B 2285  14.859   2.073   9.981  0.3183 -0.0663  0.1774
  143loPI   C2B 2286  14.645   1.987   9.625 -0.1761 -0.2451  0.1203
  143loPI   C3B 2287  14.578   2.018   9.235  0.0794 -0.1074 -0.1647
  143loPI   C4B 2288  14.395   1.881   8.813  0.1022 -0.0935  0.4096
  144loPI    C1 2289  18.110   7.446   9.872 -0.0529 -0.1700 -0.1657
  144loPI    C2 2290  18.143   7.808  10.039  0.1243 -0.1918 -0.1513
  144loPI    C3 2291  17.788   7.681   9.905  0.0571 -0.0218 -0.1368
  144loPI   PO4 2292  18.260   7.484   9.669  0.1431 -0.0845  0.1871
  144loPI   GL1 2293  18.224   7.824   9.358  0.0170  0.1727  0.2623
  144loPI   GL2 2294  18.105   7.462   9.173 -0.2933 -0.5001  0.1681
  144loPI   C1A 2295  18.502   7.726   9.048 -0.1639  0.0518  0.1929
  144loPI   C2A 2296  18.567   7.432   8.666  0.2191  0.1410  0.0756
  144loPI   C3A 2297  18.579   7.340   8.155 -0.1606  0.0696 -0.0229
  144loPI   C4A 2298  18.642   6.987   7.742  0.1309 -0.0327 -0.0293
  144loPI   C5A 2299  18.777   6.947   7.359  0.2679 -0.1251 -0.4063
  144loPI   C6A 2300  19.125   7.087   7.156  0.0241 -0.2833 -0.0437
  144loPI   C1B 2301  18.027   7.690   8.844  0.2049  0.0523  0.0756
  144loPI   C2B 2302  18.012   7.764   8.380  0.1916 -0.2373  0.0144
  144loPI   C3B 2303  18.174   7.722   7.943  0.3286  0.1243 -0.2853
  144loPI   C4B 2304  18.551   7.626   7.728  0.1475  0.0273  0.2392
  145loPI    C1 2305   6.204   7.481  10.701 -0.3515 -0.1117  0.2499
  145loPI    C2 2306   6.505   7.386  10.946  0.0973  0.2707 -0.1323
  145loPI    C3 2307   6.190   7.591  11.085  0.2865  0.3775  0.1478
  145loPI   PO4 2308   6.230   7.217  10.578 -0.1011 -0.0518 -0.1085
  145loPI   GL1 2309   6.029   7.009  10.190  0.2879  0.2464  0.0380
  145loPI   GL2 2310   5.782   7.190  10.073 -0.2431 -0.1750 -0.3651
  145loPI   C1A 2311   6.047   6.671   9.957  0.2175 -0.3229 -0.0168
  145loPI   C2A 2312   5.896   6.507   9.643 -0.0322  0.1677 -0.1560
  145loPI   C3A 2313   5.498   6.547   9.441 -0.3618  0.1092 -0.2743
  145loPI   C4A 2314   5.231   6.459   9.178  0.0614  0.2206 -0.0346
  145loPI   C5A 2315   5.149   6.512   8.739 -0.0416  0.2578  0.1136
  145loPI   C6A 2316   5.109   6.585   8.291 -0.4849  0.3271  0.1804
  145loPI   C1B 2317   5.771   6.956   9.697  0.0681  0.3112 -0.0574
  145loPI   C2B 2318   5.841   6.945   9.273  0.1998  0.1664  0.0274
  145loPI   C3B 2319   5.545   6.797   8.946  0.0586 -0.0541 -0.2276
  145loPI   C4B 2320   5.606   6.661   8.525 -0.2261 -0.0058  0.1720
  146loPI    C1 2321  11.608   7.672  10.974  0.2170 -0.1371 -0.0626
  146loPI    C2 2322  11.341   7.610  11.265  0.1079  0.4645 -0.0207
  146loPI    C3 2323  11.674   7.389  11.249 -0.2531 -0.1103  0.0866
  146loPI   PO4 2324  11.489   7.679  10.741  0.2293  0.1429  0.0087
  146loPI   GL1 2325  11.260   7.500  10.399 -0.0614  0.2528  0.0873
  146loPI   GL2 2326  10.996   7.310  10.348  0.0425 -0.0475  0.1264
  146loPI   C1A 2327  11.389   7.872  10.073  0.1297  0.2105  0.3103
  146loPI   C2A 2328  11.244   7.758   9.618  0.2131 -0.3172 -0.0453
  146loPI   C3A 2329  11.220   7.717   9.146 -0.0051 -0.1816 -0.3250
  146loPI   C4A 2330  11.040   7.683   8.763 -0.3637  0.2435  0.0347
  146loPI   C5A 2331  10.833   7.661   8.456 -0.1770  0.3903 -0.0279
  146loPI   C6A 2332  10.618   8.060   8.407  0.0878 -0.1308 -0.0294
  146loPI   C1B 2333  11.158   7.309   9.955  0.3690 -0.0955 -0.0591
  146loPI   C2B 2334  11.099   7.240   9.436  0.2698 -0.1282 -0.3276
  146loPI   C3B 2335  11.151   7.253   9.038 -0.0989  0.3092 -0.0209
  146loPI   C4B 2336  11.057   7.252   8.572  0.1917  0.2378  0.0670
  147loPI    C1 2337   3.118  11.184  10.041  0.0432 -0.0702 -0.0167
  147loPI    C2 2338   3.083  11.548  10.204 -0.0402 -0.0873  0.0041
  147loPI    C3 2339   3.090  11.223  10.438  0.1825 -0.0902 -0.0043
  147loPI   PO4 2340   2.951  11.286   9.760 -0.0660 -0.3883 -0.0009
  147loPI   GL1 2341   2.890  11.127   9.345 -0.2585  0.1307  0.3229
  147loPI   GL2 2342   2.898  11.480   9.310  0.0815  0.1376  0.0482
  147loPI   C1A 2343   2.811  10.957   9.012 -0.0397 -0.0752 -0.0166
  147loPI   C2A 2344   2.599  10.929   8.524  0.1629  0.0904 -0.0912
  147loPI   C3A 2345   2.385  10.721   8.093  0.2553  0.0652 -0.4191
  147loPI   C4A 2346   2.456  10.647   7.660 -0.1156 -0.2827 -0.2115
  147loPI   C5A 2347   2.359  10.871   7.238 -0.0198 -0.2017 -0.2864
  147loPI   C6A 2348   2.229  11.324   7.148 -0.3206 -0.2708 -0.0395
  147loPI   C1B 2349   3.115  11.406   8.943 -0.4939 -0.0024  0.0198
  147loPI   C2B 2350   2.742  11.405   8.556  0.0196 -0.1169  0.3799
  147loPI   C3B 2351   2.691  11.295   8.049  0.2029  0.1660  0.1942
  147loPI   C4B 2352   2.527  11.361   7.620 -0.2661  0.1800  0.1778
  148loPI    C1 2353   6.413  10.625  10.006 -0.0110  0.1275 -0.1174
  148loPI    C2 2354   6.456  10.975  10.194  0.0648  0.0593 -0.0066
  148loPI    C3 2355   6.709  10.675  10.270 -0.0492 -0.0463 -0.0404
  148loPI   PO4 2356   6.499  10.580   9.779 -0.3062 -0.1064  0.1069
  148loPI   GL1 2357   6.501  10.672   9.414 -0.1168 -0.0490 -0.1210
  148loPI   GL2 2358   6.124  10.644   9.473  0.0171 -0.0797  0.0570
  148loPI   C1A 2359   6.391  10.492   9.089  0.2854 -0.1098 -0.1774
  148loPI   C2A 2360   6.232  10.500   8.725 -0.0160  0.0336 -0.1136
  148loPI   C3A 2361   6.418  10.420   8.322  0.1439 -0.1877  0.1875
  148loPI   C4A 2362   6.217  10.129   8.071 -0.0738  0.2056  0.0618
  148loPI   C5A 2363   6.148  10.081   7.681 -0.0879 -0.3524  0.0482
  148loPI   C6A 2364   5.885  10.306   7.232 -0.0525 -0.0530 -0.2107
  148loPI   C1B 2365   5.915  10.741   9.076  0.0020  0.1076 -0.0489
  148loPI   C2B 2366   5.780  10.776   8.561 -0.0406  0.1780  0.0738
  148loPI   C3B 2367   5.850  11.022   8.155  0.2225  0.2130 -0.0586
  148loPI   C4B 2368   5.851  11.167   7.770 -0.2532 -0.0810 -0.0958
  149loPI    C1 2369  17.060   3.693  10.829  0.1408 -0.0827 -0.1330
  149loPI    C2 2370  17.124   4.085  10.871  0.0141 -0.0479 -0.2563
  149loPI    C3 2371  16.764   3.932  10.953  0.0836 -0.1498 -0.1396
  149loPI   PO4 2372  17.245   3.609  10.657 -0.2583  0.2178  0.0258
  149loPI   GL1 2373  17.244   3.283  10.267  0.1210  0.1685 -0.1318
  149loPI   GL2 2374  17.224   2.938  10.150  0.2747  0.1471  0.1785
  149loPI   C1A 2375  17.093   3.308   9.783 -0.2050  0.1019  0.1279
  149loPI   C2A 2376  16.947   3.105   9.378 -0.1286  0.1307  0.3165
  149loPI   C3A 2377  16.882   2.835   9.034  0.2845 -0.0546  0.1230
  149loPI   C4A 2378  16.815   2.608   8.631  0.0323 -0.2594  0.1015
  149loPI   C5A 2379  16.719   2.486   8.219  0.0898 -0.2177 -0.0730
  149loPI   C6A 2380  16.512   2.300   7.937  0.0330 -0.1915 -0.0604
  149loPI   C1B 2381  17.211   2.750   9.642 -0.0709  0.1816  0.0195
  149loPI   C2B 2382  17.342   2.580   9.215  0.1252  0.0919  0.1421
  149loPI   C3B 2383  17.327   2.482   8.760 -0.3609  0.0575  0.0307
  149loPI   C4B 2384  17.191   2.393   8.374 -0.1856  0.1899  0.0222
  150loPI    C1 2385   3.160   9.837   9.954 -0.1171 -0.0459 -0.2945
  150loPI    C2 2386   3.360   9.695  10.270  0.0753 -0.0493 -0.4157
  150loPI    C3 2387   2.971   9.783  10.302  0.1872  0.3541 -0.0573
  150loPI   PO4 2388   3.286   9.717   9.784 -0.1900 -0.1681 -0.2675
  150loPI   GL1 2389   3.527   9.526   9.425 -0.1604  0.0101  0.2010
  150loPI   GL2 2390   3.800   9.701   9.481  0.0203 -0.2639  0.1522
  150loPI   C1A 2391   3.201   9.348   9.144 -0.0051 -0.1698  0.2258
  150loPI   C2A 2392   3.079   9.518   8.684 -0.0840  0.0579  0.3124
  150loPI   C3A 2393   2.960   9.556   8.333 -0.0423 -0.0530  0.0436
  150loPI   C4A 2394   3.021   9.546   7.944 -0.0471  0.2192 -0.3206
  150loPI   C5A 2395   3.263   9.487   7.481  0.0963  0.4248 -0.0638
  150loPI   C6A 2396   3.392   9.431   7.145 -0.0574 -0.0491 -0.2395
  150loPI   C1B 2397   4.014   9.539   9.177  0.2514  0.1249  0.2329
  150loPI   C2B 2398   4.117   9.562   8.733  0.1382  0.0252  0.3437
  150loPI   C3B 2399   4.167   9.156   8.738 -0.1004 -0.1506 -0.1713
  150loPI   C4B 2400   3.948   8.843   8.774  0.0249 -0.0769 -0.0254
  151loPI    C1 2401  11.438  12.034   9.709 -0.2312  0.0939 -0.0005
  151loPI    C2 2402  11.475  12.336   9.970 -0.1765  0.0007  0.1001
  151loPI    C3 2403  11.482  11.957  10.099  0.2102 -0.0565 -0.0750
  151loPI   PO4 2404  11.617  12.172   9.465  0.0262 -0.1388  0.0482
  151loPI   GL1 2405  11.845  12.017   9.098 -0.1103 -0.1763 -0.1228
  151loPI   GL2 2406  11.498  12.220   8.930 -0.3105  0.0456  0.2263
  151loPI   C1A 2407  12.233  12.045   8.820 -0.0442 -0.0362 -0.1439
  151loPI   C2A 2408  12.315  11.873   8.351  0.1546  0.1168  0.0884
  151loPI   C3A 2409  12.378  11.696   7.984 -0.0379 -0.1085  0.0589
  151loPI   C4A 2410  12.432  11.720   7.625 -0.1515  0.1012 -0.2048
  151loPI   C5A 2411  12.580  11.735   7.196  0.1231  0.1307 -0.0197
  151loPI   C6A 2412  12.747  11.924   6.994 -0.1993  0.3159  0.1425
  151loPI   C1B 2413  11.226  12.068   8.660  0.2063 -0.1023 -0.2574
  151loPI   C2B 2414  10.953  12.033   8.282 -0.1495  0.4489  0.0039
  151loPI   C3B 2415  10.817  11.833   7.989 -0.0198 -0.0228  0.2790
  151loPI   C4B 2416  10.848  11.664   7.570  0.4222  0.2312  0.1126
  152loPI    C1 2417   6.342  12.182   9.730  0.1165 -0.2825 -0.3781
  152loPI    C2 2418   6.283  11.787   9.708  0.0201 -0.2959  0.0257
  152loPI    C3 2419   6.612  11.931   9.884 -0.0572 -0.1940  0.0879
  152loPI   PO4 2420   6.344  12.231   9.460  0.2043 -0.0757 -0.0144
  152loPI   GL1 2421   6.555  12.403   9.168  0.1342  0.1956  0.1796
  152loPI   GL2 2422   6.693  12.692   9.123  0.0584  0.5108  0.1167
  152loPI   C1A 2423   6.537  12.351   8.645  0.2859  0.0456  0.0603
  152loPI   C2A 2424   6.525  12.394   8.289  0.2933  0.0558 -0.2700
  152loPI   C3A 2425   6.441  12.549   7.865  0.0962 -0.2921 -0.1027
  152loPI   C4A 2426   6.510  12.657   7.445  0.0046 -0.3431  0.0602
  152loPI   C5A 2427   6.319  12.470   7.213  0.3458 -0.0189  0.1824
  152loPI   C6A 2428   6.283  12.322   6.823 -0.3968  0.1999  0.1217
  152loPI   C1B 2429   6.762  12.841   8.715  0.0446 -0.0747  0.0606
  152loPI   C2B 2430   6.827  12.773   8.301 -0.0310  0.0175 -0.0912
  152loPI   C3B 2431   6.745  12.933   7.877  0.1526 -0.1739 -0.1311
  152loPI   C4B 2432   6.688  13.156   7.413  0.1565  0.1199  0.2035
  153loPI    C1 2433  16.813   6.901  10.157 -0.0000 -0.1272  0.0788
  153loPI    C2 2434  16.472   7.025  10.324  0.1202 -0.0617  0.2789
  153loPI    C3 2435  16.822   7.111  10.497  0.2274 -0.3113  0.1895
  153loPI   PO4 2436  16.594   6.899   9.850 -0.1387 -0.3692 -0.2733
  153loPI   GL1 2437  16.450   7.083   9.527  0.0113 -0.1616  0.1284
  153loPI   GL2 2438  16.559   7.551   9.512  0.0423  0.0734  0.0684
  153loPI   C1A 2439  16.342   7.199   9.174  0.3303 -0.0282  0.1907
  153loPI   C2A 2440  16.414   7.397   8.808  0.1023  0.3339 -0.1089
  153loPI   C3A 2441  16.439   7.406   8.394 -0.0280  0.1905 -0.2211
  153loPI   C4A 2442  16.315   7.384   8.010 -0.1416 -0.0664 -0.1939
  153loPI   C5A 2443  16.271   7.375   7.682  0.0994  0.0248  0.0187
  153loPI   C6A 2444  16.144   7.362   7.306 -0.1694  0.3941 -0.2144
  153loPI   C1B 2445  16.852   7.604   9.117  0.2124 -0.2659 -0.3215
  153loPI   C2B 2446  16.865   7.625   8.693  0.0133  0.0111  0.0822
  153loPI   C3B 2447  17.093   7.461   8.387  0.2810 -0.1286  0.3984
  153loPI   C4B 2448  17.215   7.560   7.973 -0.1077  0.0344  0.3440
  154loPI    C1 2449   6.769   9.887  10.010 -0.0533 -0.2364  0.1345
  154loPI    C2 2450   6.665  10.047  10.362 -0.2388 -0.0897  0.0154
  154loPI    C3 2451   7.006   9.839  10.329 -0.0659  0.1565  0.2088
  154loPI   PO4 2452   6.739  10.066   9.879  0.3614 -0.1765  0.0175
  154loPI   GL1 2453   6.749  10.266   9.475  0.0671 -0.1364  0.2715
  154loPI   GL2 2454   6.644  10.001   9.330  0.0647 -0.0586  0.0507
  154loPI   C1A 2455   6.863  10.374   9.100  0.0866  0.0516  0.1410
  154loPI   C2A 2456   6.903  10.792   8.932 -0.2288  0.3352  0.1784
  154loPI   C3A 2457   6.771  10.889   8.497 -0.1396 -0.0486 -0.0903
  154loPI   C4A 2458   6.794  10.938   8.016 -0.0839  0.0013  0.1426
  154loPI   C5A 2459   6.667  10.795   7.647  0.2356 -0.0504 -0.1107
  154loPI   C6A 2460   6.739  11.002   7.294 -0.0603 -0.2451 -0.3009
  154loPI   C1B 2461   6.332   9.995   9.033  0.1901  0.1387  0.2108
  154loPI   C2B 2462   6.440  10.005   8.560  0.0587 -0.4566 -0.3256
  154loPI   C3B 2463   6.719   9.964   8.204 -0.1253  0.2348 -0.2470
  154loPI   C4B 2464   7.054  10.116   7.855  0.0568 -0.0794  0.2917
  155loPI    C1 2465  11.158  13.627   9.888 -0.1449  0.0253  0.0660
  155loPI    C2 2466  11.511  13.681  10.068 -0.0363  0.0185 -0.1417
  155loPI    C3 2467  11.249  13.416  10.216  0.1179 -0.1064 -0.0889
  155loPI   PO4 2468  11.050  13.904   9.743 -0.1536 -0.2927  0.0042
  155loPI   GL1 2469  10.799  13.988   9.450  0.0023 -0.1054 -0.0985
  155loPI   GL2 2470  10.700  14.386   9.479 -0.2508 -0.1406 -0.2165
  155loPI   C1A 2471  11.046  14.014   9.006  0.0733  0.2358 -0.3366
  155loPI   C2A 2472  11.188  14.249   8.518 -0.0956 -0.3543 -0.1883
  155loPI   C3A 2473  10.834  14.501   8.256  0.1725  0.2831  0.1111
  155loPI   C4A 2474  10.942  14.822   8.013  0.0564  0.0929 -0.1606
  155loPI   C5A 2475  11.176  15.174   7.879  0.1929  0.1691 -0.0144
  155loPI   C6A 2476  11.146  15.591   7.636  0.1874  0.1305 -0.2012
  155loPI   C1B 2477  10.707  14.403   9.079 -0.0085 -0.2410 -0.0342
  155loPI   C2B 2478  10.642  14.540   8.691  0.0319  0.1421 -0.2035
  155loPI   C3B 2479  10.336  14.590   8.380 -0.0222  0.0757 -0.1184
  155loPI   C4B 2480  10.418  14.676   7.931  0.1553 -0.1211 -0.1443
  156loPI    C1 2481  16.743   0.120  10.986  0.1452  0.0635 -0.1793
  156loPI    C2 2482  16.560  -0.131  11.237  0.0949 -0.0038 -0.2821
  156loPI    C3 2483  16.800   0.155  11.380 -0.0726  0.0716 -0.1469
  156loPI   PO4 2484  16.673  -0.011  10.721  0.2543 -0.0710 -0.0645
  156loPI   GL1 2485  16.819  -0.109  10.326 -0.0002  0.1344 -0.1388
  156loPI   GL2 2486  16.790   0.217  10.278  0.5538 -0.2969  0.3564
  156loPI   C1A 2487  16.561  -0.210  10.040 -0.0763  0.0577  0.1015
  156loPI   C2A 2488  16.647  -0.322   9.536 -0.1042 -0.1362  0.1551
  156loPI   C3A 2489  16.836  -0.291   9.081  0.2497 -0.2961  0.0994
  156loPI   C4A 2490  16.935  -0.183   8.665  0.2241  0.2337  0.2838
  156loPI   C5A 2491  17.084  -0.016   8.327  0.0372 -0.0942 -0.3788
  156loPI   C6A 2492  17.471  -0.082   8.112 -0.2212  0.3282 -0.3235
  156loPI   C1B 2493  16.709   0.266   9.859 -0.4007 -0.0340 -0.0499
  156loPI   C2B 2494  16.516   0.149   9.544 -0.0286 -0.2583  0.0328
  156loPI   C3B 2495  16.537   0.214   9.062  0.2278 -0.0681  0.2466
  156loPI   C4B 2496  16.729   0.264   8.585  0.4099  0.1462 -0.0775
  157loPI    C1 2497  13.560  15.769  10.664  0.0465 -0.0000  0.3471
  157loPI    C2 2498  13.622  15.376  10.629 -0.2032 -0.0015 -0.1744
  157loPI    C3 2499  13.351  15.513  10.890  0.1173 -0.1465  0.2478
  157loPI   PO4 2500  13.439  15.761  10.352  0.0812 -0.0232 -0.5470
  157loPI   GL1 2501  13.681  15.819   9.933 -0.1374  0.0255  0.3092
  157loPI   GL2 2502  13.430  15.908   9.880  0.1500  0.2265  0.1931
  157loPI   C1A 2503  13.854  15.784   9.546 -0.2425  0.0649 -0.0689
  157loPI   C2A 2504  14.090  15.961   9.090  0.2060  0.0199  0.0896
  157loPI   C3A 2505  14.121  16.184   8.750 -0.0237  0.0680 -0.0111
  157loPI   C4A 2506  14.145  16.128   8.403  0.0236  0.0628  0.1647
  157loPI   C5A 2507  14.134  16.367   8.010  0.1872 -0.1771 -0.3410
  157loPI   C6A 2508  13.820  16.573   7.676 -0.1909  0.0581  0.2603
  157loPI   C1B 2509  13.541  16.195   9.536 -0.0196 -0.0853  0.0003
  157loPI   C2B 2510  13.547  16.156   9.067  0.0301  0.2617  0.2877
  157loPI   C3B 2511  13.584  16.078   8.654  0.0444  0.2440 -0.1600
  157loPI   C4B 2512  13.580  16.304   8.276  0.0671 -0.4532  0.0668
  158loPI    C1 2513  17.158  15.848  10.325 -0.1678  0.1428  0.1061
  158loPI    C2 2514  17.356  16.166  10.468 -0.2425  0.1858  0.1143
  158loPI    C3 2515  16.971  16.110  10.563 -0.2328  0.0988  0.1037
  158loPI   PO4 2516  17.236  15.832  10.061  0.1322 -0.0089  0.2495
  158loPI   GL1 2517  17.359  15.543   9.712  0.0430 -0.0983  0.3840
  158loPI   GL2 2518  17.499  15.919   9.647 -0.1266  0.3609  0.1537
  158loPI   C1A 2519  17.417  15.495   9.328  0.1927  0.3217 -0.0108
  158loPI   C2A 2520  17.391  15.527   9.025  0.3467  0.1866 -0.0568
  158loPI   C3A 2521  17.163  15.592   8.573  0.3914 -0.0032  0.2868
  158loPI   C4A 2522  17.077  15.495   8.169 -0.1137  0.2061  0.0175
  158loPI   C5A 2523  17.140  15.255   7.809 -0.1749  0.2012  0.1255
  158loPI   C6A 2524  17.117  15.032   7.339 -0.0036  0.1423  0.1228
  158loPI   C1B 2525  17.701  16.085   9.289  0.0337 -0.0918 -0.2283
  158loPI   C2B 2526  17.667  16.298   8.917 -0.0085  0.0260 -0.1318
  158loPI   C3B 2527  17.584  16.307   8.448 -0.1500 -0.2392  0.1168
  158loPI   C4B 2528  17.631  16.236   7.987 -0.0687 -0.1619 -0.3779
  159loPI    C1 2529  10.654  17.823  10.287 -0.0086 -0.1159 -0.0427
  159loPI    C2 2530  10.790  17.775  10.660 -0.0240  0.0831 -0.0101
  159loPI    C3 2531  10.458  17.988  10.594  0.1374  0.2920 -0.1618
  159loPI   PO4 2532  10.848  17.985  10.147  0.1083 -0.1403 -0.5631
  159loPI   GL1 2533  10.996  17.931   9.761  0.3476 -0.2255  0.0340
  159loPI   GL2 2534  11.408  17.953   9.798  0.0724  0.1876  0.1989
  159loPI   C1A 2535  11.058  17.930   9.387  0.4638 -0.0187 -0.0147
  159loPI   C2A 2536  11.122  18.018   8.936  0.1107 -0.3959  0.0940
  159loPI   C3A 2537  11.089  18.221   8.571  0.0594  0.2810  0.0805
  159loPI   C4A 2538  11.091  18.421   8.183  0.1208  0.1398 -0.3471
  159loPI   C5A 2539  10.809  18.576   7.929 -0.0544  0.0042  0.0727
  159loPI   C6A 2540  10.331  18.509   7.867  0.0749 -0.0395 -0.3241
  159loPI   C1B 2541  11.602  17.886   9.449  0.1949  0.1127  0.2455
  159loPI   C2B 2542  11.583  17.715   8.987  0.3484  0.0138 -0.1259
  159loPI   C3B 2543  11.358  17.703   8.631  0.0402  0.1149  0.2425
  159loPI   C4B 2544  11.319  17.786   8.181 -0.0256  0.0662  0.1649
  160loPI    C1 2545   0.816  12.822  10.168  0.0545 -0.0619  0.1991
  160loPI    C2 2546   0.746  12.584  10.481  0.0692 -0.0096  0.2423
  160loPI    C3 2547   1.026  12.868  10.505 -0.0339  0.0937  0.2342
  160loPI   PO4 2548   0.783  12.664   9.922 -0.0632 -0.1697  0.0974
  160loPI   GL1 2549   0.695  12.854   9.496 -0.0568  0.0624 -0.1436
  160loPI   GL2 2550   0.414  12.941   9.719 -0.2060  0.0642 -0.0677
  160loPI   C1A 2551   0.542  13.032   9.137  0.4076 -0.2440 -0.2294
  160loPI   C2A 2552   0.449  13.058   8.793  0.0812 -0.0980  0.3724
  160loPI   C3A 2553   0.558  12.850   8.461  0.1754 -0.0908 -0.0837
  160loPI   C4A 2554   0.678  12.901   8.044  0.0232 -0.0401  0.2840
  160loPI   C5A 2555   0.718  13.126   7.772  0.0750 -0.1089  0.3197
  160loPI   C6A 2556   0.856  13.321   7.425  0.0062  0.0939 -0.3623
  160loPI   C1B 2557   0.085  13.083   9.391  0.1102 -0.0079 -0.1380
  160loPI   C2B 2558   0.101  13.409   9.009  0.1866  0.1610  0.1442
  160loPI   C3B 2559  -0.023  13.529   8.549  0.1572  0.0162  0.1349
  160loPI   C4B 2560  -0.235  13.232   8.206 -0.0450 -0.2720  0.0158
  161loPI    C1 2561  13.390  12.268  10.081 -0.0843 -0.0719  0.0414
  161loPI    C2 2562  13.291  12.623  10.235 -0.2247 -0.1565  0.1491
  161loPI    C3 2563  13.578  12.404  10.406  0.1385  0.0761 -0.1460
  161loPI   PO4 2564  13.433  12.317   9.816  0.0191 -0.1389 -0.3193
  161loPI   GL1 2565  13.413  12.372   9.387 -0.3479  0.2427  0.2742
  161loPI   GL2 2566  13.158  12.528   9.334 -0.2980 -0.1164 -0.0611
  161loPI   C1A 2567  13.553  12.196   9.021  0.1211 -0.0831  0.1903
  161loPI   C2A 2568  13.497  12.241   8.645 -0.1005  0.2384  0.2289
  161loPI   C3A 2569  13.239  12.166   8.219  0.2392 -0.1471 -0.1107
  161loPI   C4A 2570  13.013  12.138   7.878  0.1584 -0.4271  0.0904
  161loPI   C5A 2571  12.939  12.077   7.485 -0.0546 -0.0977  0.0874
  161loPI   C6A 2572  12.952  12.431   7.191 -0.0940 -0.0807  0.2058
  161loPI   C1B 2573  13.385  12.678   8.983 -0.0438 -0.1599 -0.0720
  161loPI   C2B 2574  13.377  12.742   8.602  0.0260  0.0806 -0.0735
  161loPI   C3B 2575  13.506  12.881   8.208  0.1004 -0.0812  0.1584
  161loPI   C4B 2576  13.325  12.711   7.723 -0.1398  0.0599 -0.1453
  162loPI    C1 2577   7.492   2.731  10.083  0.0200 -0.1046 -0.0740
  162loPI    C2 2578   7.881   2.638  10.068 -0.0082 -0.2547  0.0959
  162loPI    C3 2579   7.763   2.975  10.249  0.0492 -0.1629 -0.0358
  162loPI   PO4 2580   7.380   2.505  10.124 -0.2563 -0.0568 -0.2552
  162loPI   GL1 2581   7.294   2.150   9.829 -0.1465  0.1528 -0.1865
  162loPI   GL2 2582   7.592   2.238   9.780 -0.2451  0.1498 -0.1066
  162loPI   C1A 2583   7.344   2.025   9.377  0.3451 -0.1146 -0.0640
  162loPI   C2A 2584   7.444   2.142   9.032 -0.3262  0.0627 -0.1340
  162loPI   C3A 2585   7.738   2.331   8.567  0.1043 -0.0868 -0.0750
  162loPI   C4A 2586   8.042   2.556   8.669  0.2785  0.2508 -0.1058
  162loPI   C5A 2587   7.916   2.908   8.644  0.2985  0.1816 -0.0080
  162loPI   C6A 2588   7.644   3.134   8.841 -0.4044 -0.0642 -0.2571
  162loPI   C1B 2589   7.429   2.573   9.481  0.1246  0.0299  0.1246
  162loPI   C2B 2590   7.680   2.955   9.312  0.0402  0.1790 -0.3191
  162loPI   C3B 2591   8.096   2.994   9.203  0.1672  0.2095 -0.3996
  162loPI   C4B 2592   8.500   3.034   9.363  0.0132  0.0367  0.1385
  163loPI    C1 2593  18.229  13.940  10.062 -0.1396 -0.2084 -0.2866
  163loPI    C2 2594  18.040  13.727  10.342 -0.2374  0.3126  0.0567
  163loPI    C3 2595  18.339  13.972  10.445 -0.0247  0.2328 -0.3511
  163loPI   PO4 2596  18.149  13.991   9.931  0.0869 -0.0901 -0.0343
  163loPI   GL1 2597  18.004  13.960   9.482  0.0215  0.2466 -0.0399
  163loPI   GL2 2598  18.093  13.638   9.467 -0.0388 -0.0095 -0.1675
  163loPI   C1A 2599  18.007  14.095   9.115 -0.1409  0.1634  0.1940
  163loPI   C2A 2600  17.896  14.165   8.630 -0.0970  0.3906  0.2055
  163loPI   C3A 2601  17.857  14.252   8.248 -0.0548  0.0152 -0.1068
  163loPI   C4A 2602  18.025  14.472   7.951 -0.0193 -0.0211  0.2171
  163loPI   C5A 2603  18.120  14.609   7.642 -0.1838 -0.0146 -0.0681
  163loPI   C6A 2604  17.934  14.837   7.412 -0.1204 -0.1810 -0.1274
  163loPI   C1B 2605  17.928  13.575   9.066 -0.1956 -0.1485  0.1689
  163loPI   C2B 2606  17.760  13.691   8.694  0.0644 -0.4113 -0.2536
  163loPI   C3B 2607  17.632  13.801   8.262  0.1221 -0.0907 -0.2352
  163loPI   C4B 2608  17.571  13.927   7.880 -0.1271 -0.0987 -0.2073
  164loPI    C1 2609  10.914  10.428  10.278 -0.0626  0.2440  0.0274
  164loPI    C2 2610  11.137  10.101  10.225  0.0940  0.3875 -0.2186
  164loPI    C3 2611  11.176  10.317  10.560 -0.2185 -0.0013  0.0786
  164loPI   PO4 2612  10.841  10.450   9.971  0.1104 -0.1142  0.0944
  164loPI   GL1 2613  10.576  10.321   9.664 -0.0781  0.1244  0.2089
  164loPI   GL2 2614  10.757  10.541   9.494  0.0985  0.4739  0.0001
  164loPI   C1A 2615  10.605  10.025   9.370 -0.0110  0.1744 -0.0686
  164loPI   C2A 2616  10.541   9.953   8.909 -0.0949  0.4676 -0.0011
  164loPI   C3A 2617  10.366  10.028   8.578  0.1546  0.0317  0.3290
  164loPI   C4A 2618  10.682  10.209   8.291 -0.0295  0.1431 -0.1277
  164loPI   C5A 2619  10.716  10.289   7.897 -0.1602  0.2049  0.0032
  164loPI   C6A 2620  10.786  10.010   7.650  0.3318  0.1594  0.1466
  164loPI   C1B 2621  10.889  10.801   9.202 -0.3232 -0.1027  0.1295
  164loPI   C2B 2622  11.091  10.831   8.798  0.3209 -0.1612 -0.0602
  164loPI   C3B 2623  11.186  10.811   8.346  0.1231 -0.0787  0.1319
  164loPI   C4B 2624  11.488  10.786   8.000 -0.1864  0.0940  0.0225
  165loPI    C1 2625  14.802  10.947   9.344 -0.0054 -0.2454 -0.0072
  165loPI    C2 2626  14.466  10.793   9.497  0.0084 -0.0124  0.2660
  165loPI    C3 2627  14.813  10.751   9.693  0.1013 -0.0658  0.0920
  165loPI   PO4 2628  14.844  10.841   9.169  0.1907 -0.3300  0.1719
  165loPI   GL1 2629  14.942  10.752   8.804 -0.1302 -0.0917  0.1334
  165loPI   GL2 2630  14.777  10.443   8.812  0.0355  0.0023 -0.1931
  165loPI   C1A 2631  14.508  10.711   8.529  0.2426 -0.0695 -0.0408
  165loPI   C2A 2632  14.350  10.848   8.146  0.4454 -0.1008  0.0686
  165loPI   C3A 2633  14.199  11.117   7.796  0.1922  0.1318 -0.2305
  165loPI   C4A 2634  13.962  11.112   7.479 -0.1783  0.0919  0.3418
  165loPI   C5A 2635  13.652  10.822   7.331  0.0027  0.0546  0.0931
  165loPI   C6A 2636  13.429  10.684   6.923 -0.3150  0.0325 -0.0049
  165loPI   C1B 2637  14.796  10.347   8.376  0.1799 -0.0870  0.2096
  165loPI   C2B 2638  14.603  10.442   8.034  0.0358  0.2657  0.0663
  165loPI   C3B 2639  14.364  10.547   7.722 -0.2624  0.3364  0.2132
  165loPI   C4B 2640  14.025  10.601   7.526  0.3521 -0.0164 -0.2401
  166loPI    C1 2641  16.890  15.449  10.198  0.1878  0.0606  0.0630
  166loPI    C2 2642  16.731  15.674  10.488  0.0366 -0.1457  0.1420
  166loPI    C3 2643  16.603  15.299  10.432  0.0077 -0.0821 -0.2432
  166loPI   PO4 2644  16.848  15.501   9.978 -0.0498  0.3902  0.0967
  166loPI   GL1 2645  16.618  15.268   9.579 -0.0366  0.0257  0.0278
  166loPI   GL2 2646  16.252  15.233   9.448  0.0383 -0.0314 -0.0572
  166loPI   C1A 2647  16.902  15.517   9.293 -0.1026 -0.0744  0.1013
  166loPI   C2A 2648  16.828  15.693   8.933 -0.1880 -0.0094 -0.0313
  166loPI   C3A 2649  16.622  15.660   8.593 -0.2260 -0.1418  0.3006
  166loPI   C4A 2650  16.454  15.496   8.263 -0.0107  0.0306  0.2474
  166loPI   C5A 2651  16.622  15.422   7.908 -0.0471  0.2935 -0.0225
  166loPI   C6A 2652  16.664  15.127   7.601 -0.0512  0.0581  0.0662
  166loPI   C1B 2653  16.492  15.277   9.065  0.0263 -0.2469 -0.0258
  166loPI   C2B 2654  16.283  15.249   8.717 -0.2044  0.1282  0.2078
  166loPI   C3B 2655  16.025  15.242   8.409  0.0453  0.1171  0.0015
  166loPI   C4B 2656  15.563  15.061   8.302 -0.4011 -0.1273 -0.0255
  167loPI    C1 2657  10.621  12.430   9.550  0.0804  0.2545  0.1703
  167loPI    C2 2658  10.254  12.327   9.430  0.0732  0.3740  0.0872
  167loPI    C3 2659  10.352  12.305   9.818  0.0688  0.0688  0.0737
  167loPI   PO4 2660  10.739  12.491   9.347 -0.1391 -0.1768  0.0281
  167loPI   GL1 2661  10.678  12.424   8.975  0.0554  0.1951  0.0213
  167loPI   GL2 2662  10.845  12.115   9.018 -0.1790 -0.1030  0.1709
  167loPI   C1A 2663  10.854  12.432   8.578  0.0962 -0.4024  0.1998
  167loPI   C2A 2664  11.057  12.593   8.318  0.0194 -0.3187  0.0742
  167loPI   C3A 2665  11.022  12.693   7.948 -0.1539  0.2204 -0.3122
  167loPI   C4A 2666  11.276  12.828   7.579 -0.0034  0.1150 -0.1400
  167loPI   C5A 2667  11.766  12.846   7.626 -0.1122  0.2217  0.0448
  167loPI   C6A 2668  12.023  12.468   7.673 -0.4758 -0.0240  0.0299
  167loPI   C1B 2669  10.837  11.734   8.783 -0.3812  0.2178 -0.0052
  167loPI   C2B 2670  11.105  11.450   8.586  0.0453 -0.0866 -0.1782
  167loPI   C3B 2671  11.117  11.443   8.250 -0.5023  0.0584  0.0389
  167loPI   C4B 2672  11.142  11.226   7.807  0.1829 -0.0660  0.0018
  168loPI    C1 2673   8.073   0.540  10.388 -0.0014 -0.0359 -0.4768
  168loPI    C2 2674   8.268   0.192  10.412  0.2720  0.1482  0.2445
  168loPI    C3 2675   8.461   0.522  10.293  0.0937  0.1221 -0.1332
  168loPI   PO4 2676   7.830   0.424  10.298 -0.2446  0.0734 -0.0201
  168loPI   GL1 2677   7.576   0.469   9.973 -0.2558 -0.0771  0.1508
  168loPI   GL2 2678   7.683   0.754   9.954  0.2382 -0.1664  0.1501
  168loPI   C1A 2679   7.586   0.165   9.621  0.0676  0.0450  0.0501
  168loPI   C2A 2680   7.608   0.190   9.199  0.0408  0.2230 -0.3526
  168loPI   C3A 2681   7.362   0.077   8.926 -0.0357  0.0111  0.0255
  168loPI   C4A 2682   7.162  -0.017   8.446 -0.1314 -0.3594 -0.2529
  168loPI   C5A 2683   6.940   0.011   8.040  0.0249 -0.0976  0.0916
  168loPI   C6A 2684   7.024   0.376   7.844 -0.4612 -0.0130 -0.0991
  168loPI   C1B 2685   7.583   0.756   9.482 -0.1235  0.2689 -0.1943
  168loPI   C2B 2686   7.707   0.743   9.120 -0.0182  0.0737 -0.0531
  168loPI   C3B 2687   7.539   0.518   8.839  0.1137 -0.1934  0.0404
  168loPI   C4B 2688   7.203   0.465   8.644  0.3467  0.0165 -0.0023
  169loPI    C1 2689  11.820   0.910  10.872 -0.0571  0.0315 -0.2972
  169loPI    C2 2690  11.530   1.032  11.119  0.1570  0.0182 -0.0340
  169loPI    C3 2691  11.663   0.655  11.137  0.3699  0.0949  0.0277
  169loPI   PO4 2692  11.814   1.009  10.560  0.0760  0.0786 -0.3962
  169loPI   GL1 2693  11.884   0.757  10.195 -0.1037 -0.1204  0.0701
  169loPI   GL2 2694  11.467   0.715  10.139  0.0293 -0.1748  0.3054
  169loPI   C1A 2695  12.221   0.825   9.834  0.0651 -0.2585 -0.1226
  169loPI   C2A 2696  12.425   1.065   9.456  0.0082 -0.0820 -0.3591
  169loPI   C3A 2697  12.456   1.003   8.952 -0.2908  0.1126 -0.5013
  169loPI   C4A 2698  12.372   0.845   8.476 -0.0641 -0.0463 -0.1433
  169loPI   C5A 2699  12.637   0.570   8.221 -0.0049 -0.3445 -0.1438
  169loPI   C6A 2700  12.811   0.166   7.936 -0.1605  0.0305 -0.2896
  169loPI   C1B 2701  11.381   0.970   9.867 -0.1758 -0.0197  0.4664
  169loPI   C2B 2702  11.539   1.277   9.751 -0.2057 -0.0108  0.2702
  169loPI   C3B 2703  11.706   1.678   9.555  0.0840 -0.1081 -0.0038
  169loPI   C4B 2704  11.736   1.882   9.181  0.0862 -0.1939 -0.2684
  170loPI    C1 2705  12.983   4.903  10.901 -0.1295 -0.0942  0.0109
  170loPI    C2 2706  12.807   5.256  10.839  0.2142  0.0181 -0.3633
  170loPI    C3 2707  12.892   5.138  11.211 -0.1463  0.2053 -0.2170
  170loPI   PO4 2708  12.999   4.777  10.688  0.0250 -0.0110 -0.1365
  170loPI   GL1 2709  13.138   4.653  10.183  0.2322 -0.0748 -0.2816
  170loPI   GL2 2710  13.380   4.481  10.278 -0.0225  0.0265  0.0757
  170loPI   C1A 2711  13.369   4.744   9.785  0.0524 -0.4700  0.0013
  170loPI   C2A 2712  13.424   4.886   9.393 -0.2489  0.1496 -0.1011
  170loPI   C3A 2713  13.472   4.514   9.112 -0.4793 -0.0614  0.2520
  170loPI   C4A 2714  13.563   4.104   8.994  0.2141  0.4229  0.1033
  170loPI   C5A 2715  13.279   3.718   9.147  0.2378 -0.0365  0.0092
  170loPI   C6A 2716  13.191   3.510   9.618 -0.3441  0.0448  0.2565
  170loPI   C1B 2717  13.393   4.271   9.837 -0.0656 -0.0513  0.1464
  170loPI   C2B 2718  13.278   4.069   9.509  0.2225  0.1711  0.1973
  170loPI   C3B 2719  12.895   3.839   9.436  0.1417  0.0554  0.1830
  170loPI   C4B 2720  12.703   3.687   9.127 -0.2384 -0.2314 -0.2764
  171loPI    C1 2721   2.638  14.637  10.324  0.3516  0.1710 -0.1141
  171loPI    C2 2722   3.026  14.693  10.239  0.3696 -0.2224 -0.3144
  171loPI    C3 2723   2.917  14.558  10.600  0.3968  0.1270 -0.1719
  171loPI   PO4 2724   2.556  14.527  10.030  0.4573  0.1791 -0.2579
  171loPI   GL1 2725   2.634  14.491   9.611 -0.2262 -0.1823 -0.0304
  171loPI   GL2 2726   2.452  14.700   9.586 -0.1335 -0.1408  0.0578
  171loPI   C1A 2727   2.747  14.386   9.114 -0.1623 -0.3377 -0.0469
  171loPI   C2A 2728   2.712  14.315   8.728  0.1111  0.3112  0.0822
  171loPI   C3A 2729   2.539  14.264   8.234 -0.1447  0.1627 -0.1775
  171loPI   C4A 2730   2.310  14.262   7.996 -0.0444  0.0128  0.1443
  171loPI   C5A 2731   2.325  13.867   7.678  0.1453 -0.1108  0.0199
  171loPI   C6A 2732   2.668  13.722   7.597  0.0990 -0.0024 -0.1586
  171loPI   C1B 2733   2.503  14.820   9.210  0.0449  0.2301 -0.1511
  171loPI   C2B 2734   2.511  14.745   8.855  0.5604  0.1265 -0.0294
  171loPI   C3B 2735   2.573  14.767   8.464  0.2645 -0.2478  0.2823
  171loPI   C4B 2736   2.475  14.764   7.947 -0.1368  0.3649 -0.1834
  172loPI    C1 2737   6.470   5.890  10.436  0.0808 -0.3282 -0.0790
  172loPI    C2 2738   6.315   5.560  10.602 -0.1761 -0.0038  0.3465
  172loPI    C3 2739   6.497   5.833  10.831  0.0201  0.1621  0.0013
  172loPI   PO4 2740   6.268   6.007  10.301 -0.2250 -0.0191  0.2488
  172loPI   GL1 2741   6.351   6.275   9.938  0.1864 -0.0565 -0.1847
  172loPI   GL2 2742   6.603   6.128   9.943  0.0148 -0.2807  0.1361
  172loPI   C1A 2743   6.214   6.162   9.530 -0.0675  0.2372 -0.2766
  172loPI   C2A 2744   6.201   5.981   9.094 -0.2782 -0.2856 -0.7160
  172loPI   C3A 2745   5.961   5.840   8.849  0.2140  0.0103 -0.1165
  172loPI   C4A 2746   5.663   5.513   8.653 -0.1318  0.1069  0.1810
  172loPI   C5A 2747   5.355   5.517   8.179 -0.0843  0.0039 -0.3576
  172loPI   C6A 2748   4.973   5.701   8.113  0.0617 -0.0462  0.0354
  172loPI   C1B 2749   6.770   6.204   9.602  0.1484 -0.3401  0.1939
  172loPI   C2B 2750   6.612   6.472   9.331 -0.3543  0.0229  0.3694
  172loPI   C3B 2751   6.575   6.652   8.847  0.1301  0.1894 -0.2333
  172loPI   C4B 2752   6.706   6.772   8.448  0.1263  0.1602 -0.2001
  173loPI    C1 2753   3.663  14.762  10.303  0.3380  0.1041 -0.0628
  173loPI    C2 2754   3.390  14.694  10.587  0.2921 -0.3724 -0.2130
  173loPI    C3 2755   3.772  14.591  10.647  0.3625 -0.0929 -0.1672
  173loPI   PO4 2756   3.494  14.773  10.076  0.2622 -0.0655  0.1510
  173loPI   GL1 2757   3.467  14.832   9.681  0.0042 -0.0015  0.1370
  173loPI   GL2 2758   3.640  14.591   9.511 -0.0904 -0.0697 -0.0453
  173loPI   C1A 2759   3.299  15.018   9.237  0.3302  0.0214 -0.0116
  173loPI   C2A 2760   3.355  15.270   8.889  0.1168 -0.2608  0.0938
  173loPI   C3A 2761   3.286  15.290   8.442  0.0048  0.0289  0.0903
  173loPI   C4A 2762   3.446  15.305   8.034  0.2767  0.1667  0.1785
  173loPI   C5A 2763   3.730  15.561   7.771 -0.1329  0.1408  0.0487
  173loPI   C6A 2764   3.855  15.769   7.411  0.0923 -0.0727  0.1371
  173loPI   C1B 2765   3.700  14.785   9.019 -0.1114 -0.0829 -0.0286
  173loPI   C2B 2766   3.522  14.866   8.624  0.2923 -0.1405 -0.1020
  173loPI   C3B 2767   3.468  14.827   8.211 -0.0332  0.1572 -0.1366
  173loPI   C4B 2768   3.421  14.521   7.900 -0.3128  0.4953 -0.2305
  174loPI    C1 2769   6.905  14.967  10.189  0.3589 -0.0115 -0.0996
  174loPI    C2 2770   6.880  15.359  10.268  0.0277 -0.0554  0.0324
  174loPI    C3 2771   6.843  15.092  10.564 -0.3035 -0.1985 -0.1329
  174loPI   PO4 2772   6.727  15.011   9.894 -0.1742  0.0154  0.0587
  174loPI   GL1 2773   6.539  15.270   9.488 -0.4020  0.0267  0.2015
  174loPI   GL2 2774   6.531  15.583   9.351 -0.4430 -0.1075 -0.0888
  174loPI   C1A 2775   6.377  15.121   9.251 -0.0185 -0.0385 -0.1168
  174loPI   C2A 2776   6.350  15.051   8.794  0.0813  0.0773  0.0587
  174loPI   C3A 2777   6.207  15.041   8.312 -0.3588 -0.3262  0.1630
  174loPI   C4A 2778   6.267  15.083   7.883 -0.2169  0.0351  0.3234
  174loPI   C5A 2779   6.309  14.946   7.469  0.2263 -0.1332 -0.0873
  174loPI   C6A 2780   6.264  14.909   7.006  0.0577  0.0197 -0.0794
  174loPI   C1B 2781   6.516  15.541   8.812  0.0944  0.0142 -0.2588
  174loPI   C2B 2782   6.629  15.269   8.406  0.0362  0.0390 -0.2823
  174loPI   C3B 2783   6.843  15.154   8.059  0.1833  0.2496  0.1379
  174loPI   C4B 2784   6.975  14.957   7.696 -0.0019  0.0276 -0.1362
  175loPI    C1 2785   7.006  17.930  10.331 -0.2571  0.0319 -0.0817
  175loPI    C2 2786   6.645  18.017  10.480 -0.1403  0.0656  0.1869
  175loPI    C3 2787   6.866  17.729  10.647  0.0445  0.1868  0.1550
  175loPI   PO4 2788   6.980  17.904  10.080  0.2571 -0.1770  0.1631
  175loPI   GL1 2789   6.966  17.693   9.689  0.2578 -0.1655 -0.0453
  175loPI   GL2 2790   7.239  17.878   9.629 -0.2085  0.5403  0.2530
  175loPI   C1A 2791   6.847  17.857   9.375  0.2227 -0.2148  0.1667
  175loPI   C2A 2792   6.606  17.833   8.997  0.1029  0.0266  0.1763
  175loPI   C3A 2793   6.564  18.022   8.661 -0.2373 -0.2962  0.0484
  175loPI   C4A 2794   6.352  18.055   8.364 -0.0606  0.1771 -0.3443
  175loPI   C5A 2795   6.214  18.174   8.102  0.1626 -0.0796  0.1230
  175loPI   C6A 2796   6.040  18.047   7.769 -0.2624 -0.1900 -0.2634
  175loPI   C1B 2797   7.519  17.805   9.336 -0.0620 -0.0379  0.0047
  175loPI   C2B 2798   7.728  17.503   9.026  0.0903 -0.0379  0.1518
  175loPI   C3B 2799   7.859  17.408   8.649 -0.3843 -0.1020 -0.0441
  175loPI   C4B 2800   8.071  17.737   8.308  0.0143  0.0668 -0.2164
  176loPI    C1 2801   3.287   4.317  10.772  0.1992 -0.0287  0.3936
  176loPI    C2 2802   3.118   4.432  11.115 -0.2496  0.2406  0.0940
  176loPI    C3 2803   2.996   4.097  10.934  0.0254  0.0688  0.2183
  176loPI   PO4 2804   3.371   4.519  10.662  0.0180  0.0354  0.0173
  176loPI   GL1 2805   3.386   4.571  10.210 -0.0182  0.0854  0.3978
  176loPI   GL2 2806   3.633   4.749  10.282  0.2516  0.0997  0.0477
  176loPI   C1A 2807   3.341   4.236   9.899  0.3212 -0.0170  0.4003
  176loPI   C2A 2808   3.143   4.237   9.534 -0.0410 -0.1366 -0.0187
  176loPI   C3A 2809   3.151   3.893   9.234  0.0214 -0.2775 -0.0628
  176loPI   C4A 2810   3.246   3.700   8.857  0.2113 -0.2947  0.0999
  176loPI   C5A 2811   3.566   3.861   8.480  0.1908  0.0005 -0.0419
  176loPI   C6A 2812   3.679   3.818   8.009 -0.0349 -0.0152  0.0671
  176loPI   C1B 2813   3.559   4.731   9.797 -0.2560  0.2399  0.0071
  176loPI   C2B 2814   3.783   4.396   9.547 -0.0223  0.3277 -0.0494
  176loPI   C3B 2815   3.929   4.366   9.206 -0.0223  0.2686 -0.0879
  176loPI   C4B 2816   4.074   4.466   8.791 -0.3253  0.0360 -0.3061
  177loPI    C1 2817   8.375  15.305   9.967 -0.1954 -0.0432 -0.0231
  177loPI    C2 2818   8.002  15.161   9.984 -0.2223  0.0559  0.2904
  177loPI    C3 2819   8.256  15.096  10.287  0.0655 -0.1395  0.0144
  177loPI   PO4 2820   8.329  15.491   9.647  0.1891  0.4099  0.0957
  177loPI   GL1 2821   8.022  15.308   9.456  0.0653  0.2632  0.3604
  177loPI   GL2 2822   7.639  15.357   9.452  0.0759  0.0922 -0.0184
  177loPI   C1A 2823   7.969  15.642   9.181 -0.1228  0.2227  0.2981
  177loPI   C2A 2824   7.993  15.629   8.827 -0.0923 -0.0825 -0.0460
  177loPI   C3A 2825   7.899  15.717   8.446 -0.0765  0.0261 -0.1807
  177loPI   C4A 2826   7.706  15.474   8.161  0.1915  0.4090 -0.1822
  177loPI   C5A 2827   7.573  15.174   7.977  0.0046 -0.3134  0.1194
  177loPI   C6A 2828   7.571  15.046   7.529  0.0458 -0.0878  0.0433
  177loPI   C1B 2829   7.686  15.281   9.001  0.1767  0.0291  0.0084
  177loPI   C2B 2830   7.567  15.135   8.569 -0.2039 -0.1928 -0.0341
  177loPI   C3B 2831   7.683  14.805   8.250 -0.0885 -0.1259  0.0704
  177loPI   C4B 2832   7.892  14.688   8.010  0.2427  0.1222 -0.1296
  178loPI    C1 2833  14.772  12.450  10.043 -0.1842  0.0396  0.0334
  178loPI    C2 2834  14.813  12.177  10.333  0.2609  0.1681  0.0988
  178loPI    C3 2835  14.616  12.518  10.405 -0.0611 -0.0137  0.0971
  178loPI   PO4 2836  14.697  12.323   9.767 -0.2362 -0.2859 -0.2209
  178loPI   GL1 2837  14.710  12.306   9.316 -0.4408 -0.0296 -0.1568
  178loPI   GL2 2838  14.469  12.188   9.156  0.1703 -0.2172 -0.2949
  178loPI   C1A 2839  15.120  12.142   9.076  0.0184  0.0227 -0.0665
  178loPI   C2A 2840  15.168  12.091   8.579  0.2103  0.1891  0.0729
  178loPI   C3A 2841  15.090  12.104   8.195  0.3709 -0.1866 -0.0831
  178loPI   C4A 2842  15.165  12.116   7.811  0.1402 -0.6407 -0.3067
  178loPI   C5A 2843  15.239  12.271   7.495  0.0573 -0.4313  0.0344
  178loPI   C6A 2844  15.604  12.199   7.254 -0.2630 -0.3445  0.1156
  178loPI   C1B 2845  14.580  12.177   8.706 -0.1109 -0.0684  0.1631
  178loPI   C2B 2846  14.446  12.231   8.314  0.0719  0.1172 -0.0397
  178loPI   C3B 2847  14.506  12.376   7.971 -0.2358  0.1708 -0.2457
  178loPI   C4B 2848  14.190  12.584   7.625 -0.2212 -0.3752 -0.1214
  179loPI    C1 2849  14.373  15.853  10.493 -0.1910 -0.0973 -0.2112
  179loPI    C2 2850  14.114  15.848  10.799  0.0364  0.0408 -0.0127
  179loPI    C3 2851  14.113  15.551  10.530 -0.2843  0.0090  0.0206
  179loPI   PO4 2852  14.330  16.161  10.307 -0.1671  0.0293  0.1230
  179loPI   GL1 2853  14.382  16.361  10.006 -0.0661 -0.1964  0.0278
  179loPI   GL2 2854  14.021  16.225   9.892 -0.1308 -0.0872  0.1840
  179loPI   C1A 2855  14.486  16.672   9.702 -0.1511  0.0041  0.2398
  179loPI   C2A 2856  14.562  16.616   9.244  0.2306  0.1540  0.0187
  179loPI   C3A 2857  14.371  16.648   8.847  0.2984 -0.1408 -0.2515
  179loPI   C4A 2858  14.119  16.654   8.465 -0.2234 -0.4434 -0.0519
  179loPI   C5A 2859  13.834  16.787   8.207  0.0527  0.1572 -0.3987
  179loPI   C6A 2860  13.445  16.852   7.985  0.1176 -0.1369 -0.1703
  179loPI   C1B 2861  14.035  16.286   9.554 -0.3491 -0.0628  0.1032
  179loPI   C2B 2862  14.044  16.602   9.255 -0.2568  0.1946 -0.1047
  179loPI   C3B 2863  13.817  16.603   8.854 -0.0014 -0.0023 -0.2114
  179loPI   C4B 2864  13.671  16.974   8.644 -0.0962 -0.0288  0.2206
  180loPI    C1 2865   5.540  14.124   9.602  0.1625  0.0251  0.1368
  180loPI    C2 2866   5.801  14.195   9.896  0.3083 -0.0794  0.0342
  180loPI    C3 2867   5.466  14.412   9.869  0.2170 -0.1727  0.3688
  180loPI   PO4 2868   5.492  13.877   9.619 -0.1747 -0.2187  0.3915
  180loPI   GL1 2869   5.313  13.569   9.373 -0.0846  0.1723 -0.1826
  180loPI   GL2 2870   5.606  13.505   9.184  0.2168 -0.0470  0.0212
  180loPI   C1A 2871   5.127  13.490   8.950  0.2004 -0.2988  0.2423
  180loPI   C2A 2872   4.952  13.479   8.639 -0.1519 -0.0862 -0.0076
  180loPI   C3A 2873   4.694  13.453   8.286 -0.0189 -0.1855 -0.1113
  180loPI   C4A 2874   4.568  13.279   7.843 -0.0763  0.0086 -0.1136
  180loPI   C5A 2875   4.569  13.157   7.464  0.0131 -0.1018 -0.0606
  180loPI   C6A 2876   4.407  13.462   7.105 -0.1938 -0.2644 -0.0031
  180loPI   C1B 2877   5.694  13.635   8.774  0.0694  0.0464  0.1748
  180loPI   C2B 2878   5.621  13.867   8.394 -0.2196 -0.1755 -0.0539
  180loPI   C3B 2879   5.365  14.055   8.032 -0.1408  0.0126 -0.0236
  180loPI   C4B 2880   5.217  13.913   7.632 -0.0761 -0.0451  0.0673
  181loPI    C1 2881   4.390  15.221  10.080 -0.0537 -0.0297 -0.0839
  181loPI    C2 2882   4.279  14.869  10.234  0.1038  0.0671  0.2607
  181loPI    C3 2883   4.097  15.205  10.352  0.0021  0.1108 -0.0146
  181loPI   PO4 2884   4.231  15.211   9.838  0.0279 -0.3578 -0.0941
  181loPI   GL1 2885   3.887  15.119   9.498 -0.2442  0.2251 -0.5699
  181loPI   GL2 2886   3.625  15.295   9.482 -0.2095  0.2678 -0.3510
  181loPI   C1A 2887   3.958  15.276   9.101  0.3586  0.0768 -0.0968
  181loPI   C2A 2888   3.880  15.186   8.674 -0.1098  0.0020  0.0150
  181loPI   C3A 2889   3.904  15.360   8.222  0.2066 -0.1275 -0.0475
  181loPI   C4A 2890   4.040  15.717   8.106  0.2861 -0.2323  0.2271
  181loPI   C5A 2891   4.020  16.050   7.829  0.1849  0.0790  0.4846
  181loPI   C6A 2892   4.415  16.007   7.454  0.2092  0.1760  0.1845
  181loPI   C1B 2893   3.253  15.591   9.372 -0.0017  0.0291 -0.1784
  181loPI   C2B 2894   3.163  15.776   9.053 -0.0116  0.0641  0.3116
  181loPI   C3B 2895   3.100  15.867   8.601  0.0313 -0.0157 -0.1184
  181loPI   C4B 2896   2.729  15.863   8.342 -0.0704  0.2216 -0.0966
  182loPI    C1 2897   3.261   8.938  10.069  0.1821 -0.0604 -0.1164
  182loPI    C2 2898   3.459   9.276   9.984  0.0857  0.1069  0.2964
  182loPI    C3 2899   3.088   9.293  10.133  0.0379 -0.1870  0.2190
  182loPI   PO4 2900   3.365   8.710   9.880  0.4475 -0.2475  0.0610
  182loPI   GL1 2901   3.540   8.590   9.558 -0.1743  0.0302 -0.1206
  182loPI   GL2 2902   3.555   8.269   9.602 -0.0984 -0.0219 -0.0085
  182loPI   C1A 2903   3.684   8.519   9.150 -0.4414  0.0696  0.0502
  182loPI   C2A 2904   3.578   8.550   8.741 -0.0052 -0.1089  0.1563
  182loPI   C3A 2905   3.359   8.399   8.354  0.2117 -0.2641 -0.1143
  182loPI   C4A 2906   3.495   8.075   8.109  0.2534  0.1063  0.1446
  182loPI   C5A 2907   3.306   7.680   7.947 -0.5217 -0.0174 -0.5306
  182loPI   C6A 2908   3.360   7.319   7.827  0.2411  0.3956  0.2302
  182loPI   C1B 2909   3.867   8.137   9.337 -0.0781  0.0859 -0.1929
  182loPI   C2B 2910   4.028   8.130   8.888 -0.0668 -0.3542  0.3084
  182loPI   C3B 2911   4.019   8.307   8.531  0.0581 -0.1679 -0.1568
  182loPI   C4B 2912   4.051   8.104   8.032 -0.2029  0.2113  0.0750
  183loPI    C1 2913   9.478   4.445  10.688 -0.0797 -0.0271  0.3187
  183loPI    C2 2914   9.680   4.701  10.919  0.1129  0.2799 -0.1719
  183loPI    C3 2915   9.802   4.321  10.887  0.1419  0.2596  0.1446
  183loPI   PO4 2916   9.162   4.522  10.742 -0.0752 -0.0101 -0.1145
  183loPI   GL1 2917   9.087   4.455  10.324  0.0526  0.0583  0.1614
  183loPI   GL2 2918   8.820   4.551  10.107  0.0013  0.0074  0.0532
  183loPI   C1A 2919   9.378   4.268  10.089 -0.0256  0.1675 -0.0696
  183loPI   C2A 2920   9.420   4.119   9.819 -0.0378 -0.1075  0.0187
  183loPI   C3A 2921   9.265   4.059   9.369  0.1420  0.0981 -0.0391
  183loPI   C4A 2922   9.157   3.937   8.900  0.1331  0.0094 -0.1583
  183loPI   C5A 2923   9.035   4.127   8.471 -0.3147 -0.2329  0.2149
  183loPI   C6A 2924   8.553   4.227   8.327 -0.4415  0.1717  0.1176
  183loPI   C1B 2925   8.512   4.378   9.998 -0.3075 -0.1452  0.2274
  183loPI   C2B 2926   8.421   4.307   9.625 -0.0857 -0.0355 -0.1725
  183loPI   C3B 2927   8.276   4.472   9.331 -0.0860  0.0812  0.0567
  183loPI   C4B 2928   8.483   4.659   9.027  0.1671 -0.1568  0.3585
  184loPI    C1 2929  14.854   0.765  10.988 -0.1884  0.1159  0.2023
  184loPI    C2 2930  14.519   0.945  11.113 -0.1143  0.3821  0.0260
  184loPI    C3 2931  14.792   0.823  11.379 -0.3476  0.1656  0.1705
  184loPI   PO4 2932  15.002   0.838  10.832 -0.0479  0.1859  0.0704
  184loPI   GL1 2933  15.057   0.877  10.418  0.0605  0.2549  0.0020
  184loPI   GL2 2934  15.226   1.301  10.422  0.2203 -0.1445 -0.0678
  184loPI   C1A 2935  14.973   0.661  10.060 -0.0947 -0.1736  0.0197
  184loPI   C2A 2936  14.992   0.686   9.612  0.2318  0.0535 -0.1412
  184loPI   C3A 2937  15.053   0.823   9.273 -0.0449  0.1953 -0.0851
  184loPI   C4A 2938  15.016   0.787   8.868 -0.1450  0.0186  0.0758
  184loPI   C5A 2939  14.860   0.841   8.532 -0.1044  0.0837 -0.0490
  184loPI   C6A 2940  14.536   0.762   8.227  0.1821  0.2053 -0.0884
  184loPI   C1B 2941  15.058   1.237  10.015  0.1444 -0.1276  0.2272
  184loPI   C2B 2942  14.970   1.201   9.586  0.1539  0.1514  0.0625
  184loPI   C3B 2943  15.077   1.282   9.153 -0.0383 -0.1237 -0.0923
  184loPI   C4B 2944  14.971   1.349   8.651  0.1327  0.0245  0.4451
  185loPI    C1 2945  13.510   9.196  10.088  0.0631 -0.1598  0.2173
  185loPI    C2 2946  13.308   9.325  10.407 -0.0140  0.2777 -0.0011
  185loPI    C3 2947  13.689   9.432  10.356  0.1656 -0.2290  0.2104
  185loPI   PO4 2948  13.285   9.148   9.924 -0.0279  0.0766  0.1551
  185loPI   GL1 2949  12.962   9.298   9.606 -0.0972 -0.0105 -0.0923
  185loPI   GL2 2950  12.641   9.254   9.481 -0.1798  0.0497 -0.0218
  185loPI   C1A 2951  13.236   9.136   9.272  0.2209 -0.0556 -0.1285
  185loPI   C2A 2952  13.577   9.258   9.092 -0.0525  0.1769  0.1871
  185loPI   C3A 2953  13.727   9.072   8.744 -0.0934 -0.0429  0.0946
  185loPI   C4A 2954  13.795   9.213   8.225  0.1392 -0.1182  0.1994
  185loPI   C5A 2955  13.469   8.981   7.965 -0.0212  0.3600  0.0132
  185loPI   C6A 2956  13.324   8.660   7.728  0.1024  0.0445  0.1041
  185loPI   C1B 2957  12.680   9.033   9.260 -0.1286 -0.1895  0.1307
  185loPI   C2B 2958  12.830   9.089   8.896  0.0336  0.0359  0.1542
  185loPI   C3B 2959  12.888   9.385   8.515  0.0943 -0.1211  0.2782
  185loPI   C4B 2960  13.001   9.476   8.120 -0.1427  0.3693 -0.0531
  186loPI    C1 2961   1.959  10.263  10.173 -0.0675  0.0883 -0.2070
  186loPI    C2 2962   1.781  10.305  10.529  0.1483 -0.2248 -0.0574
  186loPI    C3 2963   2.165  10.196  10.509  0.1798 -0.0673 -0.3863
  186loPI   PO4 2964   1.806  10.359   9.998 -0.2283  0.1598 -0.2187
  186loPI   GL1 2965   1.643  10.115   9.604 -0.0517  0.0883 -0.0017
  186loPI   GL2 2966   1.908  10.033   9.400  0.1771 -0.3787 -0.2910
  186loPI   C1A 2967   1.421  10.247   9.271  0.0534 -0.2362 -0.0645
  186loPI   C2A 2968   1.547  10.173   8.812  0.2401 -0.0757 -0.1674
  186loPI   C3A 2969   1.546  10.322   8.441  0.0848 -0.0180 -0.0733
  186loPI   C4A 2970   1.611  10.335   8.038  0.1691 -0.2738  0.2622
  186loPI   C5A 2971   1.895  10.623   7.701  0.0314  0.0925  0.0330
  186loPI   C6A 2972   1.902  10.659   7.241  0.1077 -0.0390 -0.1964
  186loPI   C1B 2973   2.115   9.988   9.089  0.0676 -0.1225  0.1630
  186loPI   C2B 2974   2.290   9.893   8.652 -0.1448  0.2574  0.4639
  186loPI   C3B 2975   2.503   9.761   8.338 -0.0805 -0.1319 -0.4664
  186loPI   C4B 2976   2.401   9.688   7.896 -0.0390 -0.1731 -0.1282
  187loPI    C1 2977  13.839  18.486  10.800  0.2748 -0.1065  0.0777
  187loPI    C2 2978  13.464  18.369  10.875  0.1945  0.1414  0.0717
  187loPI    C3 2979  13.770  18.189  11.058  0.0797 -0.1239  0.0069
  187loPI   PO4 2980  13.874  18.447  10.455 -0.3347 -0.0973  0.1216
  187loPI   GL1 2981  13.665  18.460  10.041 -0.2209  0.2488 -0.0301
  187loPI   GL2 2982  13.455  18.366   9.879 -0.0534 -0.1453  0.2272
  187loPI   C1A 2983  13.916  18.525   9.638 -0.2686 -0.0403  0.1626
  187loPI   C2A 2984  13.899  18.527   9.208 -0.1715  0.1464 -0.1002
  187loPI   C3A 2985  13.826  18.277   8.900  0.0813  0.2039 -0.3855
  187loPI   C4A 2986  13.929  17.923   8.606 -0.1452 -0.3423  0.1935
  187loPI   C5A 2987  14.222  17.622   8.318  0.1972  0.3664 -0.0662
  187loPI   C6A 2988  14.177  17.174   8.336 -0.0810 -0.0184 -0.0350
  187loPI   C1B 2989  13.431  18.366   9.414  0.1667 -0.0730  0.0354
  187loPI   C2B 2990  13.258  18.293   8.921  0.3215  0.1033  0.0532
  187loPI   C3B 2991  13.183  17.987   8.612 -0.4500  0.0803 -0.0744
  187loPI   C4B 2992  12.936  17.672   8.328 -0.1604  0.2629 -0.3763
  188loPI    C1 2993   9.854  17.434  10.267  0.1855 -0.3949  0.0553
  188loPI    C2 2994   9.520  17.217  10.306 -0.0004 -0.0992  0.1503
  188loPI    C3 2995   9.814  17.184  10.576  0.0000 -0.2753  0.1298
  188loPI   PO4 2996   9.771  17.550  10.029 -0.0403 -0.0825 -0.2195
  188loPI   GL1 2997   9.622  17.747   9.638  0.0687 -0.2263  0.2507
  188loPI   GL2 2998   9.889  17.857   9.694  0.4026 -0.0168  0.0036
  188loPI   C1A 2999   9.858  18.002   9.237 -0.0072 -0.1285 -0.0205
  188loPI   C2A 3000   9.637  18.092   8.921  0.0669 -0.1471  0.1087
  188loPI   C3A 3001   9.410  18.106   8.651 -0.1249 -0.2128 -0.4119
  188loPI   C4A 3002   9.494  18.253   8.277  0.0412  0.4017  0.1994
  188loPI   C5A 3003   9.417  18.241   7.903  0.1802  0.1996 -0.2158
  188loPI   C6A 3004   9.522  17.894   7.666  0.3392 -0.1969  0.1759
  188loPI   C1B 3005  10.288  17.803   9.381  0.1919  0.0713  0.0437
  188loPI   C2B 3006  10.553  17.852   9.037  0.2609  0.0773 -0.2132
  188loPI   C3B 3007  10.806  17.818   8.574  0.0653 -0.0037 -0.0148
  188loPI   C4B 3008  10.778  17.936   8.147  0.2932 -0.1536 -0.2311
  189loPI    C1 3009  14.168  11.552   9.848  0.0306 -0.3553  0.1947
  189loPI    C2 3010  13.893  11.774  10.035  0.0828 -0.0278 -0.1063
  189loPI    C3 3011  14.182  11.595  10.245 -0.0833  0.0136  0.1627
  189loPI   PO4 3012  14.063  11.603   9.517 -0.2642 -0.1848  0.4896
  189loPI   GL1 3013  14.229  11.677   9.051 -0.3130  0.0612 -0.0570
  189loPI   GL2 3014  14.020  11.427   8.934 -0.3313  0.0148  0.1543
  189loPI   C1A 3015  14.287  11.736   8.693  0.3182  0.1601  0.0627
  189loPI   C2A 3016  14.036  11.924   8.352  0.1211 -0.2977 -0.1505
  189loPI   C3A 3017  14.169  12.066   7.835  0.2495 -0.0490  0.0738
  189loPI   C4A 3018  13.951  12.119   7.509 -0.0867  0.0692  0.0870
  189loPI   C5A 3019  13.810  12.599   7.363  0.2602  0.2273 -0.1262
  189loPI   C6A 3020  14.007  13.014   7.423 -0.0425  0.1756 -0.1506
  189loPI   C1B 3021  13.895  11.485   8.526 -0.0444 -0.0629  0.2670
  189loPI   C2B 3022  13.761  11.321   8.110  0.0414  0.1508 -0.1150
  189loPI   C3B 3023  13.548  11.205   7.780 -0.2531 -0.0848  0.2063
  189loPI   C4B 3024  13.440  11.304   7.312  0.2188 -0.1894  0.0991
  190loPI    C1 3025   7.533  16.007  10.042  0.0212  0.1945  0.0674
  190loPI    C2 3026   7.694  16.332  10.209 -0.1042  0.1760  0.2262
  190loPI    C3 3027   7.368  16.166  10.369 -0.1195  0.0509  0.0673
  190loPI   PO4 3028   7.662  16.039   9.796 -0.1262 -0.3040  0.1600
  190loPI   GL1 3029   7.684  16.207   9.361  0.2394  0.2494 -0.3080
  190loPI   GL2 3030   7.715  16.514   9.108  0.1560  0.0191 -0.4046
  190loPI   C1A 3031   8.021  16.064   9.060 -0.1660 -0.0220  0.0497
  190loPI   C2A 3032   8.271  16.035   8.721 -0.0382  0.0981 -0.2302
  190loPI   C3A 3033   8.428  15.761   8.516 -0.1343 -0.0058 -0.0050
  190loPI   C4A 3034   8.275  15.724   8.069  0.4307 -0.1856  0.1355
  190loPI   C5A 3035   8.324  15.738   7.560 -0.2248  0.2586 -0.2096
  190loPI   C6A 3036   7.999  15.509   7.304 -0.0341 -0.0791  0.0804
  190loPI   C1B 3037   7.690  16.704   8.828  0.3020 -0.1193 -0.5835
  190loPI   C2B 3038   7.835  16.723   8.446 -0.5938  0.0051  0.1779
  190loPI   C3B 3039   8.021  16.659   8.071  0.1169  0.1115  0.1331
  190loPI   C4B 3040   8.119  16.677   7.663 -0.2663 -0.2672 -0.0217
  191loPI    C1 3041   3.680  10.856   9.799 -0.1608 -0.0920  0.0020
  191loPI    C2 3042   3.731  10.552  10.053  0.1875  0.1348  0.2130
  191loPI    C3 3043   3.448  10.825  10.124 -0.1187 -0.1271  0.0289
  191loPI   PO4 3044   3.654  10.735   9.580 -0.4125  0.1477  0.1166
  191loPI   GL1 3045   3.411  10.529   9.295  0.1513  0.3791 -0.1489
  191loPI   GL2 3046   3.358  10.745   9.089  0.1728 -0.2621 -0.2214
  191loPI   C1A 3047   3.375  10.291   8.905 -0.2113 -0.1216  0.0469
  191loPI   C2A 3048   3.412  10.473   8.605 -0.0870 -0.2689 -0.4874
  191loPI   C3A 3049   3.405  10.255   8.132 -0.1972 -0.0794 -0.0795
  191loPI   C4A 3050   3.364   9.989   7.794 -0.1172  0.0785  0.0785
  191loPI   C5A 3051   3.768   9.728   7.556 -0.0426  0.1122 -0.3017
  191loPI   C6A 3052   3.856   9.556   7.146  0.1943 -0.3074 -0.1132
  191loPI   C1B 3053   3.193  10.989   8.657 -0.2081  0.2888  0.1336
  191loPI   C2B 3054   3.040  10.977   8.236 -0.2839  0.0335 -0.0802
  191loPI   C3B 3055   2.930  11.009   7.747  0.2865 -0.0893  0.0248
  191loPI   C4B 3056   3.021  11.173   7.251  0.0120 -0.1826  0.0560
  192loPI    C1 3057  11.122   7.093  11.141 -0.1450 -0.1167  0.0146
  192loPI    C2 3058  10.867   7.395  11.201 -0.0369 -0.0178 -0.0207
  192loPI    C3 3059  11.059   7.230  11.511 -0.3106 -0.2416  0.0341
  192loPI   PO4 3060  11.258   7.172  10.874  0.0265 -0.0262 -0.2931
  192loPI   GL1 3061  11.322   7.034  10.523  0.1743 -0.1751  0.0496
  192loPI   GL2 3062  11.000   6.851  10.595  0.0433 -0.0626  0.0463
  192loPI   C1A 3063  11.497   6.907  10.104 -0.0725  0.2288  0.1168
  192loPI   C2A 3064  11.291   6.871   9.708 -0.0703  0.1900  0.4317
  192loPI   C3A 3065  11.077   6.800   9.254 -0.0077  0.0085  0.1174
  192loPI   C4A 3066  10.903   6.784   8.887 -0.2806  0.1800 -0.1569
  192loPI   C5A 3067  10.662   6.424   8.563 -0.1381  0.0434 -0.4559
  192loPI   C6A 3068  10.523   6.042   8.657  0.1009 -0.0450 -0.2207
  192loPI   C1B 3069  10.910   6.851  10.173 -0.0999 -0.0091 -0.0516
  192loPI   C2B 3070  10.877   6.592   9.765  0.1943  0.0094  0.0521
  192loPI   C3B 3071  10.609   6.487   9.498  0.3881 -0.0904  0.1538
  192loPI   C4B 3072  10.464   6.419   9.032 -0.0269 -0.1051  0.2607
  193loPI    C1 3073  17.287   4.172  10.374 -0.1825 -0.1003  0.0754
  193loPI    C2 3074  17.571   4.043  10.625 -0.0763 -0.0425 -0.0138
  193loPI    C3 3075  17.661   4.311  10.342 -0.2566  0.0998  0.0609
  193loPI   PO4 3076  17.178   3.963  10.262 -0.2596 -0.0603  0.1319
  193loPI   GL1 3077  17.232   3.962   9.895 -0.0274 -0.2732  0.0351
  193loPI   GL2 3078  17.450   3.696   9.921 -0.3942 -0.3535 -0.0150
  193loPI   C1A 3079  17.023   3.742   9.612 -0.0847 -0.1425 -0.0338
  193loPI   C2A 3080  17.091   3.513   9.224  0.2637  0.0892 -0.1695
  193loPI   C3A 3081  16.857   3.337   8.937 -0.3275  0.1181 -0.0923
  193loPI   C4A 3082  16.708   3.207   8.602  0.1403 -0.0377 -0.0438
  193loPI   C5A 3083  16.471   2.882   8.407 -0.1198  0.1158 -0.2859
  193loPI   C6A 3084  16.203   2.604   8.292  0.1937 -0.1391  0.0272
  193loPI   C1B 3085  17.499   3.701   9.463 -0.1751  0.0160 -0.1177
  193loPI   C2B 3086  17.622   3.948   9.176  0.3848  0.0081  0.1418
  193loPI   C3B 3087  17.516   3.932   8.891  0.0400 -0.2625  0.2689
  193loPI   C4B 3088  17.264   3.538   8.683 -0.0267  0.1830 -0.3245
  194loPI    C1 3089  12.332  15.499  10.799  0.0268  0.0948 -0.0238
  194loPI    C2 3090  12.273  15.768  11.089 -0.0713  0.1756 -0.1177
  194loPI    C3 3091  12.023  15.458  11.049  0.1962 -0.0838  0.1608
  194loPI   PO4 3092  12.254  15.744  10.538 -0.2235 -0.0222 -0.2522
  194loPI   GL1 3093  11.983  15.974  10.238 -0.1084 -0.0099  0.1928
  194loPI   GL2 3094  12.105  16.274  10.109  0.0491  0.1268 -0.1310
  194loPI   C1A 3095  12.073  15.961   9.729  0.0917  0.0499 -0.1645
  194loPI   C2A 3096  12.137  16.193   9.342  0.1149 -0.1764 -0.2560
  194loPI   C3A 3097  12.264  16.345   8.884 -0.0736  0.1368  0.0905
  194loPI   C4A 3098  12.630  16.173   8.555  0.2295  0.0357  0.0227
  194loPI   C5A 3099  12.641  15.829   8.319 -0.3133 -0.1371 -0.0591
  194loPI   C6A 3100  12.894  15.634   8.022 -0.1591 -0.1879  0.0248
  194loPI   C1B 3101  11.982  16.465   9.805 -0.1347  0.0790  0.1314
  194loPI   C2B 3102  12.073  16.676   9.457  0.0351 -0.0903 -0.2748
  194loPI   C3B 3103  12.149  16.812   9.075 -0.2006  0.1730  0.2762
  194loPI   C4B 3104  12.027  16.856   8.671  0.2263 -0.1903  0.1873
  195loPI    C1 3105  18.164  10.382  10.123  0.1105 -0.0111 -0.1320
  195loPI    C2 3106  18.105  10.190  10.469 -0.3778  0.2704 -0.0503
  195loPI    C3 3107  18.219  10.573  10.470 -0.3234  0.2556 -0.2026
  195loPI   PO4 3108  18.155  10.166  10.001 -0.2645 -0.0575 -0.0700
  195loPI   GL1 3109  18.111  10.186   9.588 -0.0598 -0.0102 -0.0315
  195loPI   GL2 3110  18.293  10.459   9.611  0.1018  0.2017 -0.1526
  195loPI   C1A 3111  18.115  10.243   9.174  0.1290  0.0694 -0.1533
  195loPI   C2A 3112  17.846  10.293   8.917 -0.0957  0.0066 -0.0798
  195loPI   C3A 3113  17.828  10.316   8.492 -0.0040  0.1567 -0.0682
  195loPI   C4A 3114  17.840  10.377   8.025  0.1154  0.1073 -0.0789
  195loPI   C5A 3115  17.907  10.615   7.688  0.1323 -0.3475  0.0240
  195loPI   C6A 3116  18.253  10.638   7.476  0.0262  0.0584 -0.0894
  195loPI   C1B 3117  18.635  10.335   9.275 -0.1013  0.1155 -0.1586
  195loPI   C2B 3118  18.577  10.311   8.871 -0.1283 -0.0453 -0.1688
  195loPI   C3B 3119  18.311  10.209   8.610  0.1276 -0.0575  0.1912
  195loPI   C4B 3120  18.196  10.050   8.229  0.3114 -0.1278 -0.4498
  196loPI    C1 3121  17.575  13.183  10.002 -0.1645  0.0478 -0.0589
  196loPI    C2 3122  17.586  12.892  10.277 -0.1120 -0.0141 -0.1264
  196loPI    C3 3123  17.831  13.207  10.309 -0.0316 -0.0730 -0.1588
  196loPI   PO4 3124  17.362  13.049   9.802 -0.0398  0.3440 -0.0739
  196loPI   GL1 3125  17.362  12.845   9.554 -0.2289 -0.0491  0.3589
  196loPI   GL2 3126  17.202  12.561   9.531 -0.2393 -0.0428  0.0376
  196loPI   C1A 3127  17.327  13.074   9.115  0.0849 -0.2104  0.0312
  196loPI   C2A 3128  17.281  12.888   8.687  0.0047  0.2908 -0.2155
  196loPI   C3A 3129  17.220  12.717   8.279 -0.4951  0.3576  0.1746
  196loPI   C4A 3130  17.034  12.734   7.799 -0.2915  0.0451 -0.4256
  196loPI   C5A 3131  16.838  12.897   7.371 -0.2332 -0.3310 -0.1016
  196loPI   C6A 3132  16.807  12.784   6.988 -0.4796  0.0946 -0.2753
  196loPI   C1B 3133  16.994  12.705   9.061 -0.0579 -0.0481 -0.0490
  196loPI   C2B 3134  16.784  12.750   8.710  0.1413 -0.0123  0.0342
  196loPI   C3B 3135  16.758  12.921   8.283  0.0027  0.2159 -0.0980
  196loPI   C4B 3136  16.405  13.056   8.109 -0.0797 -0.0509  0.1777
  197loPI    C1 3137   5.153  15.854   9.906  0.0341 -0.0173 -0.1529
  197loPI    C2 3138   4.876  15.950  10.179  0.1178  0.2361 -0.1556
  197loPI    C3 3139   4.853  16.101   9.809  0.1435  0.0910 -0.2167
  197loPI   PO4 3140   5.109  15.553   9.784  0.0162 -0.2082  0.0988
  197loPI   GL1 3141   5.349  15.401   9.430  0.0072  0.3422 -0.1910
  197loPI   GL2 3142   4.985  15.440   9.336  0.2694 -0.0075  0.4210
  197loPI   C1A 3143   5.593  15.244   9.082  0.0918 -0.0066 -0.0949
  197loPI   C2A 3144   5.810  15.192   8.747 -0.0780  0.0680 -0.1180
  197loPI   C3A 3145   6.074  15.550   8.535  0.0827  0.4624  0.0071
  197loPI   C4A 3146   6.406  15.720   8.289 -0.1977 -0.0704  0.1929
  197loPI   C5A 3147   6.568  15.527   7.820 -0.0490 -0.1080 -0.0932
  197loPI   C6A 3148   6.621  15.306   7.522 -0.0217  0.2111  0.0259
  197loPI   C1B 3149   5.216  15.507   8.850 -0.1168 -0.0946 -0.2684
  197loPI   C2B 3150   5.254  15.414   8.548 -0.1949  0.1807  0.1577
  197loPI   C3B 3151   5.547  15.449   8.246  0.2031  0.0384 -0.0611
  197loPI   C4B 3152   5.857  15.791   7.994  0.1665 -0.1123 -0.0583
  198loPI    C1 3153   4.213   4.523  10.691  0.1148 -0.3112 -0.0182
  198loPI    C2 3154   4.124   4.751  11.007  0.1686  0.1758 -0.3422
  198loPI    C3 3155   4.126   4.352  11.042 -0.2247  0.2072  0.1623
  198loPI   PO4 3156   4.088   4.706  10.451 -0.1672  0.2618  0.2740
  198loPI   GL1 3157   4.405   4.821  10.286 -0.2178  0.2143 -0.1237
  198loPI   GL2 3158   4.469   5.153  10.230 -0.0269  0.0097  0.0152
  198loPI   C1A 3159   4.441   4.949   9.765 -0.2193 -0.1518 -0.1451
  198loPI   C2A 3160   4.543   5.118   9.433  0.0503 -0.0646 -0.1555
  198loPI   C3A 3161   4.389   5.332   9.125  0.4419 -0.2012  0.1865
  198loPI   C4A 3162   4.437   5.522   8.754 -0.3303  0.0182 -0.0792
  198loPI   C5A 3163   4.589   5.892   8.671 -0.0852  0.0185  0.0169
  198loPI   C6A 3164   4.704   6.171   8.335 -0.0645 -0.1301 -0.1103
  198loPI   C1B 3165   4.554   5.480   9.909 -0.0851  0.2233  0.1290
  198loPI   C2B 3166   4.594   5.599   9.485 -0.1028  0.2959  0.0570
  198loPI   C3B 3167   4.788   5.648   9.082 -0.3713 -0.0381 -0.0955
  198loPI   C4B 3168   4.976   6.021   8.913  0.1268  0.1295  0.1158
  199loPI    C1 3169   7.029   6.075  10.523 -0.0255 -0.2315 -0.3817
  199loPI    C2 3170   6.695   6.293  10.555  0.0804 -0.0917 -0.2158
  199loPI    C3 3171   7.048   6.474  10.507  0.1336 -0.2389 -0.3888
  199loPI   PO4 3172   7.028   5.899  10.275  0.1594  0.2615  0.2069
  199loPI   GL1 3173   7.054   5.824   9.878  0.0169  0.0285  0.1754
  199loPI   GL2 3174   7.101   5.841   9.560 -0.0692 -0.0634  0.0035
  199loPI   C1A 3175   6.584   5.773   9.544  0.3250  0.2349  0.2469
  199loPI   C2A 3176   6.591   5.570   9.077 -0.1743  0.0722 -0.2204
  199loPI   C3A 3177   6.411   5.679   8.743 -0.0322 -0.0127  0.1287
  199loPI   C4A 3178   6.148   5.662   8.433 -0.0456  0.4693  0.2704
  199loPI   C5A 3179   5.804   5.829   8.275 -0.2909  0.0158  0.0601
  199loPI   C6A 3180   5.618   6.194   8.037 -0.0749 -0.0256  0.0340
  199loPI   C1B 3181   6.856   5.968   9.137  0.0068 -0.0205  0.3630
  199loPI   C2B 3182   6.637   6.134   8.845 -0.1537  0.2104 -0.2053
  199loPI   C3B 3183   6.389   6.238   8.489  0.2516 -0.2044  0.1124
  199loPI   C4B 3184   6.189   6.638   8.334  0.1026  0.1386 -0.0378
  200loPI    C1 3185   6.941   1.875  10.395 -0.2113  0.0389 -0.2015
  200loPI    C2 3186   7.083   1.725  10.737  0.0512  0.0490 -0.3037
  200loPI    C3 3187   6.817   2.024  10.745 -0.0755 -0.0666 -0.1074
  200loPI   PO4 3188   7.017   1.724  10.242  0.1181 -0.0756 -0.0068
  200loPI   GL1 3189   7.177   1.676   9.865  0.1113 -0.0632 -0.0533
  200loPI   GL2 3190   7.128   1.347   9.919  0.0907 -0.2641 -0.2099
  200loPI   C1A 3191   7.027   1.610   9.457 -0.0194  0.1480 -0.3166
  200loPI   C2A 3192   6.649   1.748   9.206  0.4862  0.1672  0.1385
  200loPI   C3A 3193   6.459   1.576   8.878 -0.2034  0.1268  0.3074
  200loPI   C4A 3194   6.331   1.767   8.506  0.1303  0.1897 -0.2781
  200loPI   C5A 3195   6.390   1.859   8.218  0.1996 -0.0590  0.4550
  200loPI   C6A 3196   6.517   2.268   8.019 -0.1998 -0.0935  0.5064
  200loPI   C1B 3197   7.327   1.215   9.605  0.0300  0.0613  0.1359
  200loPI   C2B 3198   7.357   1.345   9.232  0.1995 -0.0000 -0.3240
  200loPI   C3B 3199   7.160   1.697   8.951  0.3116 -0.4044  0.0082
  200loPI   C4B 3200   6.869   1.977   8.768  0.1319  0.2099  0.0966
  201loPI    C1 3201  11.367   3.261  10.717 -0.1472  0.2113 -0.1710
  201loPI    C2 3202  11.369   2.996  10.417 -0.1126  0.0015  0.0122
  201loPI    C3 3203  11.029   3.181  10.518 -0.1717 -0.0930 -0.0123
  201loPI   PO4 3204  11.547   3.360  10.747 -0.2368  0.0547  0.2640
  201loPI   GL1 3205  11.891   3.300  10.452 -0.1709  0.2499  0.0465
  201loPI   GL2 3206  12.263   3.437  10.450  0.2838  0.0379 -0.1299
  201loPI   C1A 3207  11.870   3.634  10.153  0.2022  0.0574 -0.1755
  201loPI   C2A 3208  11.815   3.797   9.755  0.2428  0.1630 -0.3965
  201loPI   C3A 3209  11.751   3.779   9.271  0.1548 -0.2032 -0.1586
  201loPI   C4A 3210  11.482   3.696   8.823 -0.2393  0.1243 -0.1055
  201loPI   C5A 3211  11.013   3.654   8.685  0.2904 -0.1143  0.0649
  201loPI   C6A 3212  10.694   3.733   8.360  0.1133  0.1486  0.3427
  201loPI   C1B 3213  12.164   3.216   9.994  0.0841  0.2020  0.1694
  201loPI   C2B 3214  11.983   3.328   9.650  0.1542 -0.0265  0.1724
  201loPI   C3B 3215  11.557   3.305   9.413 -0.3154 -0.1450  0.1092
  201loPI   C4B 3216  11.277   3.539   9.257  0.0717  0.3255 -0.0432
  202loPI    C1 3217   4.957  10.245   9.691  0.1162 -0.2672  0.0869
  202loPI    C2 3218   4.601  10.427   9.711  0.3214  0.1241  0.3117
  202loPI    C3 3219   4.627  10.031   9.760 -0.0910  0.0784  0.1950
  202loPI   PO4 3220   5.098  10.421   9.487  0.0530 -0.1690 -0.1214
  202loPI   GL1 3221   5.056  10.585   9.106  0.1552  0.2761  0.2148
  202loPI   GL2 3222   5.427  10.529   9.135  0.0848 -0.2727 -0.2320
  202loPI   C1A 3223   4.987  10.805   8.654  0.3509 -0.1234  0.1782
  202loPI   C2A 3224   4.914  10.729   8.111  0.3039  0.3148 -0.2264
  202loPI   C3A 3225   5.007  10.910   7.710  0.3155 -0.0641  0.2047
  202loPI   C4A 3226   5.159  10.782   7.424 -0.0599 -0.1518  0.1852
  202loPI   C5A 3227   5.261  10.416   7.166  0.0479  0.0618 -0.0611
  202loPI   C6A 3228   5.405  10.115   6.993  0.1221 -0.0332 -0.3684
  202loPI   C1B 3229   5.413  10.434   8.730 -0.2624 -0.2283 -0.1855
  202loPI   C2B 3230   5.350  10.458   8.333 -0.0339  0.1116  0.0800
  202loPI   C3B 3231   5.506  10.279   7.950  0.1761 -0.4164  0.0905
  202loPI   C4B 3232   5.495  10.015   7.708  0.0609  0.0104  0.0651
  203loPI    C1 3233   8.849   3.593  10.663  0.1113  0.0131 -0.0365
  203loPI    C2 3234   9.244   3.560  10.712  0.0894 -0.0027  0.1339
  203loPI    C3 3235   9.000   3.281  10.863  0.0210 -0.0692 -0.0954
  203loPI   PO4 3236   8.897   3.677  10.388 -0.1186  0.1172  0.0023
  203loPI   GL1 3237   8.944   3.937  10.093 -0.2221  0.2672  0.1839
  203loPI   GL2 3238   8.652   3.882  10.021  0.2243  0.0067 -0.2077
  203loPI   C1A 3239   8.920   4.250   9.710  0.1497 -0.1466 -0.2154
  203loPI   C2A 3240   8.849   4.419   9.318  0.0291 -0.0377 -0.2814
  203loPI   C3A 3241   8.958   4.444   8.970  0.0184  0.1431 -0.0625
  203loPI   C4A 3242   8.806   4.584   8.556  0.2884 -0.2634  0.3328
  203loPI   C5A 3243   8.454   4.934   8.447 -0.0371 -0.0108 -0.0501
  203loPI   C6A 3244   8.152   4.834   8.124  0.1122  0.2295 -0.1179
  203loPI   C1B 3245   8.720   3.703   9.580  0.0053 -0.1268  0.1244
  203loPI   C2B 3246   8.542   3.563   9.186 -0.3020 -0.1052  0.1625
  203loPI   C3B 3247   8.433   3.272   8.805 -0.0073  0.1596 -0.2150
  203loPI   C4B 3248   8.221   3.373   8.521  0.0072 -0.0040 -0.1764
  204loPI    C1 3249  10.826  16.376  10.615  0.1902  0.0300 -0.0674
  204loPI    C2 3250  10.563  16.096  10.729 -0.0210  0.2649  0.0326
  204loPI    C3 3251  10.753  16.316  11.004  0.3601  0.0299 -0.0348
  204loPI   PO4 3252  10.725  16.335  10.272  0.3169 -0.0408  0.1614
  204loPI   GL1 3253  10.569  16.414   9.861 -0.1703 -0.2015 -0.2831
  204loPI   GL2 3254  10.571  16.133   9.676  0.0111 -0.0643 -0.3613
  204loPI   C1A 3255  10.434  16.689   9.509 -0.0639 -0.3075 -0.0129
  204loPI   C2A 3256  10.549  16.796   9.022  0.2485  0.0131 -0.2658
  204loPI   C3A 3257  10.591  16.989   8.775 -0.1255  0.1127  0.2260
  204loPI   C4A 3258  10.686  17.047   8.362 -0.1733 -0.1125 -0.4293
  204loPI   C5A 3259  10.590  16.782   8.016  0.2341 -0.1408  0.1270
  204loPI   C6A 3260  10.797  16.395   8.046 -0.3100  0.0796 -0.1488
  204loPI   C1B 3261  10.746  16.164   9.240 -0.3672  0.0784 -0.3664
  204loPI   C2B 3262  10.851  16.369   8.956  0.0927  0.1118  0.0003
  204loPI   C3B 3263  10.826  16.591   8.614  0.4372 -0.0609  0.2343
  204loPI   C4B 3264  11.111  16.764   8.370  0.2999  0.5105  0.1160
  205loPI    C1 3265   0.422   0.469  10.724 -0.0797  0.1475  0.0272
  205loPI    C2 3266   0.329   0.816  10.547 -0.0159  0.1952  0.0869
  205loPI    C3 3267   0.297   0.779  10.944 -0.0964  0.1085  0.0726
  205loPI   PO4 3268   0.222   0.302  10.551 -0.1814  0.2037 -0.0104
  205loPI   GL1 3269   0.173   0.467  10.174  0.0761 -0.0356 -0.0899
  205loPI   GL2 3270  -0.028   0.244  10.072 -0.1000 -0.0283 -0.1423
  205loPI   C1A 3271   0.287   0.533   9.839 -0.2425  0.1312 -0.1202
  205loPI   C2A 3272   0.109   0.383   9.430  0.1506 -0.0100  0.0805
  205loPI   C3A 3273  -0.009   0.344   9.127  0.2871 -0.1336  0.1296
  205loPI   C4A 3274   0.208   0.291   8.737  0.1295 -0.0049 -0.2333
  205loPI   C5A 3275   0.408  -0.021   8.445  0.2638 -0.1183 -0.0198
  205loPI   C6A 3276   0.430  -0.228   7.989  0.1456 -0.2191 -0.1867
  205loPI   C1B 3277   0.152  -0.005   9.721 -0.0882 -0.0638  0.1434
  205loPI   C2B 3278   0.272  -0.087   9.254  0.0161  0.1114  0.1747
  205loPI   C3B 3279   0.300  -0.296   8.872 -0.3384 -0.2795 -0.1770
  205loPI   C4B 3280   0.410  -0.534   8.403 -0.1159  0.0214 -0.0285
  206loPI    C1 3281   3.198  12.163   9.950  0.0511  0.0976 -0.0052
  206loPI    C2 3282   3.126  12.041  10.325 -0.1753 -0.0015 -0.0793
  206loPI    C3 3283   3.307  12.392  10.260 -0.0167 -0.0433  0.1243
  206loPI   PO4 3284   3.023  12.139   9.736  0.3696  0.2777  0.0226
  206loPI   GL1 3285   2.828  11.981   9.417 -0.0643 -0.0975  0.1529
  206loPI   GL2 3286   3.187  11.917   9.233 -0.0952 -0.0638 -0.0577
  206loPI   C1A 3287   2.784  11.833   8.963 -0.1729  0.2182 -0.1354
  206loPI   C2A 3288   2.895  11.878   8.486  0.4286  0.0468  0.0680
  206loPI   C3A 3289   3.196  11.949   8.182  0.2281  0.0382 -0.3399
  206loPI   C4A 3290   3.323  12.009   7.770 -0.2581  0.2326  0.0714
  206loPI   C5A 3291   3.491  12.078   7.384 -0.1697 -0.0461 -0.2074
  206loPI   C6A 3292   3.636  12.419   7.211 -0.2929  0.0708 -0.0485
  206loPI   C1B 3293   3.313  11.909   8.823 -0.0472 -0.0378  0.2017
  206loPI   C2B 3294   3.572  11.917   8.493 -0.1383 -0.0669 -0.0576
  206loPI   C3B 3295   3.657  11.697   8.092  0.3372 -0.1553  0.1269
  206loPI   C4B 3296   3.727  11.713   7.662  0.1446  0.0419 -0.3812
  207loPI    C1 3297  16.434  13.689  10.328 -0.0794  0.2260  0.1370
  207loPI    C2 3298  16.044  13.659  10.247 -0.0184  0.1630 -0.1443
  207loPI    C3 3299  16.235  13.357  10.427 -0.0787  0.1538 -0.0955
  207loPI   PO4 3300  16.498  13.769  10.052 -0.0550 -0.0195  0.0703
  207loPI   GL1 3301  16.329  13.603   9.700 -0.1216 -0.1569 -0.1360
  207loPI   GL2 3302  16.497  13.436   9.536  0.0713 -0.0420 -0.2340
  207loPI   C1A 3303  16.143  13.886   9.415  0.3063 -0.3187 -0.2997
  207loPI   C2A 3304  16.462  14.134   9.261  0.0661 -0.1352 -0.3230
  207loPI   C3A 3305  16.531  14.261   8.860 -0.0010  0.3827  0.0249
  207loPI   C4A 3306  16.878  14.426   8.678 -0.2170  0.1264  0.1407
  207loPI   C5A 3307  16.863  14.575   8.204  0.0480 -0.0715  0.0502
  207loPI   C6A 3308  16.948  14.754   7.837  0.2926  0.0686 -0.1158
  207loPI   C1B 3309  16.546  13.625   9.150  0.1003  0.2330 -0.1898
  207loPI   C2B 3310  16.570  13.674   8.756  0.2680 -0.5478 -0.0320
  207loPI   C3B 3311  16.335  13.990   8.384  0.3193  0.0680 -0.3720
  207loPI   C4B 3312  16.442  14.260   8.029 -0.1460 -0.1674 -0.1111
  208loPI    C1 3313   6.501   8.738  10.429 -0.2928 -0.1470  0.1470
  208loPI    C2 3314   6.590   8.433  10.672  0.0162 -0.1626  0.0191
  208loPI    C3 3315   6.740   8.796  10.744 -0.0721 -0.1173 -0.0238
  208loPI   PO4 3316   6.576   8.610  10.118 -0.2442 -0.0469  0.0727
  208loPI   GL1 3317   6.752   8.506   9.752  0.0057  0.0692 -0.0940
  208loPI   GL2 3318   7.005   8.647   9.775  0.0880  0.2784 -0.3425
  208loPI   C1A 3319   6.445   8.549   9.497  0.0320  0.1547 -0.0740
  208loPI   C2A 3320   6.426   8.615   9.083  0.2804  0.0215  0.1620
  208loPI   C3A 3321   6.671   8.566   8.771 -0.1313  0.1918 -0.1418
  208loPI   C4A 3322   6.525   8.576   8.334 -0.0575  0.0331  0.0767
  208loPI   C5A 3323   6.460   8.831   8.084  0.1279  0.2310 -0.2443
  208loPI   C6A 3324   6.254   9.148   7.859 -0.4469  0.1806 -0.0798
  208loPI   C1B 3325   7.000   8.695   9.335 -0.0280  0.2795 -0.0744
  208loPI   C2B 3326   7.074   8.839   8.981 -0.1300 -0.1406  0.1408
  208loPI   C3B 3327   6.877   8.933   8.480 -0.0674 -0.0991 -0.2791
  208loPI   C4B 3328   6.986   8.767   8.157  0.0483  0.0151  0.1488
  209loPI    C1 3329  10.316   9.252  10.519 -0.3389  0.1069  0.2223
  209loPI    C2 3330  10.205   9.052  10.847 -0.2455  0.0565  0.2233
  209loPI    C3 3331  10.440   9.374  10.879  0.0284 -0.1353  0.1837
  209loPI   PO4 3332  10.049   9.368  10.382 -0.4180  0.2789 -0.4494
  209loPI   GL1 3333   9.785   9.291  10.094  0.0011  0.4850 -0.4297
  209loPI   GL2 3334  10.073   9.219   9.940  0.1228 -0.0703 -0.3400
  209loPI   C1A 3335   9.664   9.493   9.656  0.1271  0.4055  0.2123
  209loPI   C2A 3336   9.772   9.555   9.178 -0.0467  0.0723  0.1052
  209loPI   C3A 3337   9.658   9.791   8.849  0.0630  0.4062 -0.0746
  209loPI   C4A 3338   9.497   9.797   8.391  0.1849  0.3020  0.0470
  209loPI   C5A 3339   9.312   9.773   7.976  0.1355 -0.0293  0.0433
  209loPI   C6A 3340   9.066  10.046   7.863  0.0161 -0.1435  0.3186
  209loPI   C1B 3341   9.782   8.956   9.714  0.1958 -0.5003 -0.0628
  209loPI   C2B 3342   9.636   9.030   9.287 -0.4403  0.0763 -0.1551
  209loPI   C3B 3343   9.527   9.098   8.939 -0.0058  0.3854 -0.1986
  209loPI   C4B 3344   9.539   9.373   8.679  0.0483 -0.0984  0.2060
  210loPI    C1 3345   0.167  16.057  10.292 -0.1307  0.1050  0.2331
  210loPI    C2 3346   0.491  15.858  10.167 -0.0996  0.3719 -0.1283
  210loPI    C3 3347   0.365  15.817  10.545  0.0456 -0.1385 -0.1270
  210loPI   PO4 3348   0.235  16.386  10.245 -0.0027  0.1964 -0.1585
  210loPI   GL1 3349   0.400  16.757  10.076 -0.2639  0.1818  0.1403
  210loPI   GL2 3350   0.133  16.885  10.182  0.2566 -0.2806  0.1490
  210loPI   C1A 3351   0.426  16.706   9.490  0.3574 -0.0710  0.1672
  210loPI   C2A 3352   0.372  16.654   9.034  0.3788  0.0917  0.0574
  210loPI   C3A 3353   0.208  16.642   8.679  0.1146  0.0523  0.0548
  210loPI   C4A 3354   0.092  16.672   8.201 -0.1936  0.2013 -0.5519
  210loPI   C5A 3355   0.074  16.691   7.759  0.1329 -0.0851 -0.1544
  210loPI   C6A 3356   0.413  16.561   7.424 -0.2438 -0.3192  0.0960
  210loPI   C1B 3357  -0.003  16.801   9.793  0.1353 -0.0202 -0.0703
  210loPI   C2B 3358  -0.047  16.631   9.371 -0.2711 -0.3961 -0.1162
  210loPI   C3B 3359  -0.227  16.704   8.948  0.0784 -0.0933 -0.0618
  210loPI   C4B 3360  -0.353  16.630   8.615 -0.1145  0.1012 -0.3607
  211loPI    C1 3361   1.830  11.191   9.832 -0.1235  0.0023  0.1409
  211loPI    C2 3362   2.117  11.441   9.954 -0.0155 -0.1162  0.1319
  211loPI    C3 3363   1.956  11.181  10.211  0.2984 -0.4501 -0.0002
  211loPI   PO4 3364   2.004  11.124   9.573 -0.0790  0.2353  0.0526
  211loPI   GL1 3365   2.089  11.052   9.210  0.1676 -0.2555  0.2469
  211loPI   GL2 3366   2.402  10.918   9.366  0.0035 -0.0815 -0.1864
  211loPI   C1A 3367   1.797  11.140   8.901  0.0750 -0.0334 -0.0927
  211loPI   C2A 3368   1.605  11.279   8.591 -0.1881 -0.3174 -0.0403
  211loPI   C3A 3369   1.303  11.285   8.266  0.1505  0.0714  0.0034
  211loPI   C4A 3370   1.084  11.335   7.887 -0.3062  0.3787  0.0738
  211loPI   C5A 3371   0.881  11.567   7.550  0.0759  0.3507 -0.0006
  211loPI   C6A 3372   0.696  11.686   7.111 -0.1516 -0.2656  0.1224
  211loPI   C1B 3373   2.367  10.752   8.945 -0.0585  0.2645 -0.0416
  211loPI   C2B 3374   2.058  10.818   8.651 -0.0409  0.2873 -0.1192
  211loPI   C3B 3375   1.866  10.715   8.268  0.1049 -0.1227 -0.0080
  211loPI   C4B 3376   1.698  11.159   8.057  0.0147  0.0211 -0.1806
  212loPI    C1 3377   3.570   0.570  10.524  0.0663 -0.0839 -0.0352
  212loPI    C2 3378   3.659   0.365  10.856 -0.0711 -0.0012  0.0536
  212loPI    C3 3379   3.589   0.759  10.876 -0.1075 -0.0010 -0.0693
  212loPI   PO4 3380   3.810   0.434  10.343 -0.0842 -0.1466 -0.0671
  212loPI   GL1 3381   4.097   0.765  10.013  0.0712 -0.3718  0.2675
  212loPI   GL2 3382   4.058   1.141   9.765  0.0582 -0.1057 -0.2967
  212loPI   C1A 3383   4.044   0.709   9.593 -0.4502  0.2722 -0.0402
  212loPI   C2A 3384   3.973   0.671   9.216 -0.0834 -0.0024 -0.0704
  212loPI   C3A 3385   4.015   0.403   8.825  0.1521  0.2189 -0.0360
  212loPI   C4A 3386   4.303  -0.007   8.693  0.2553  0.3841  0.0598
  212loPI   C5A 3387   4.369  -0.156   8.287 -0.0016  0.4362  0.0447
  212loPI   C6A 3388   4.111  -0.185   7.816 -0.2853 -0.0196 -0.0554
  212loPI   C1B 3389   4.076   1.184   9.276  0.2260  0.0694 -0.1362
  212loPI   C2B 3390   4.087   1.233   8.822 -0.0671 -0.2245 -0.0409
  212loPI   C3B 3391   4.214   1.235   8.383 -0.0294 -0.1971  0.1259
  212loPI   C4B 3392   4.229   1.257   7.898  0.1931 -0.0260 -0.0741
  213loPI    C1 3393  12.513  16.511  10.283 -0.1656  0.0857 -0.1759
  213loPI    C2 3394  12.400  16.642  10.644  0.0857  0.1432 -0.1162
  213loPI    C3 3395  12.183  16.735  10.321 -0.1176  0.1262  0.0134
  213loPI   PO4 3396  12.814  16.582  10.269 -0.1121  0.3934  0.0062
  213loPI   GL1 3397  13.007  16.606   9.930  0.2025  0.2219 -0.0750
  213loPI   GL2 3398  13.203  16.739   9.898  0.1660 -0.1515  0.0223
  213loPI   C1A 3399  13.030  16.221   9.666  0.0463 -0.0393 -0.0922
  213loPI   C2A 3400  13.093  15.913   9.357  0.0988 -0.1669  0.1532
  213loPI   C3A 3401  13.220  15.770   8.914 -0.1304 -0.1854 -0.0439
  213loPI   C4A 3402  13.099  15.949   8.480 -0.3401  0.0215  0.0228
  213loPI   C5A 3403  13.113  16.081   8.005 -0.1161  0.1653 -0.1459
  213loPI   C6A 3404  13.238  16.433   7.701 -0.0944 -0.2679 -0.0779
  213loPI   C1B 3405  13.141  16.882   9.394  0.2215  0.1233 -0.0317
  213loPI   C2B 3406  13.299  16.639   9.106  0.1180  0.2852 -0.1573
  213loPI   C3B 3407  13.378  16.624   8.596 -0.1197  0.1247 -0.1908
  213loPI   C4B 3408  13.067  16.472   8.356 -0.0916  0.0120  0.1532
  214loPI    C1 3409  13.444  15.019  10.329 -0.0437 -0.2454  0.1293
  214loPI    C2 3410  13.284  15.042  10.695 -0.2442 -0.1942  0.0401
  214loPI    C3 3411  13.600  14.805  10.629 -0.1147 -0.0917  0.2775
  214loPI   PO4 3412  13.358  15.237  10.224  0.0384 -0.1329  0.2666
  214loPI   GL1 3413  13.300  15.366   9.911 -0.1919  0.0099 -0.0322
  214loPI   GL2 3414  13.000  15.110   9.813  0.0989 -0.2193  0.1042
  214loPI   C1A 3415  13.464  15.498   9.473 -0.1384  0.0405  0.2097
  214loPI   C2A 3416  13.648  15.625   9.066 -0.2074 -0.0684 -0.0823
  214loPI   C3A 3417  13.882  15.740   8.631 -0.3464 -0.0646  0.0922
  214loPI   C4A 3418  13.870  15.845   8.171  0.0199  0.0650  0.2945
  214loPI   C5A 3419  13.627  15.958   7.771 -0.0901 -0.0966 -0.3226
  214loPI   C6A 3420  13.517  16.110   7.375  0.1022  0.1319  0.0648
  214loPI   C1B 3421  12.562  15.127   9.621  0.0950  0.0835  0.3605
  214loPI   C2B 3422  12.388  15.102   9.260 -0.2055  0.0240 -0.0146
  214loPI   C3B 3423  12.399  15.145   8.795  0.0415  0.0903  0.1723
  214loPI   C4B 3424  12.329  15.478   8.397  0.0851 -0.1658  0.1086
  215loPI    C1 3425   1.220  13.593  10.273  0.0829 -0.0026  0.0171
  215loPI    C2 3426   0.921  13.340  10.353  0.2466 -0.3329 -0.3810
  215loPI    C3 3427   1.225  13.378  10.610 -0.1265  0.0057  0.0268
  215loPI   PO4 3428   1.344  13.539  10.048 -0.0554  0.0578 -0.2334
  215loPI   GL1 3429   1.569  13.610   9.639 -0.2089 -0.1017 -0.0366
  215loPI   GL2 3430   1.189  13.536   9.591  0.1602 -0.1519  0.2783
  215loPI   C1A 3431   1.332  13.936   9.347 -0.0528 -0.3157  0.0666
  215loPI   C2A 3432   1.134  14.140   8.972 -0.0746  0.0246 -0.0246
  215loPI   C3A 3433   1.161  14.331   8.523 -0.1130  0.1733  0.1817
  215loPI   C4A 3434   1.217  14.560   8.122  0.2285 -0.1055 -0.2153
  215loPI   C5A 3435   1.095  14.710   7.778 -0.0129 -0.2325 -0.2808
  215loPI   C6A 3436   0.892  15.147   7.774  0.0965  0.1753  0.0901
  215loPI   C1B 3437   1.124  13.477   9.169  0.1306 -0.3088 -0.4597
  215loPI   C2B 3438   1.097  13.652   8.806 -0.1628  0.2500 -0.1242
  215loPI   C3B 3439   0.997  13.886   8.409 -0.2603  0.1865  0.1807
  215loPI   C4B 3440   0.828  14.061   8.026 -0.1466  0.1790 -0.0525
  216loPI    C1 3441   0.124  12.449   9.944  0.1553  0.0654 -0.0874
  216loPI    C2 3442   0.133  12.368  10.336 -0.2499  0.2393 -0.0368
  216loPI    C3 3443   0.318  12.693  10.194  0.3276 -0.0894 -0.0680
  216loPI   PO4 3444   0.203  12.060   9.852 -0.0710 -0.0003 -0.1698
  216loPI   GL1 3445   0.188  11.937   9.390 -0.0309 -0.2140  0.2429
  216loPI   GL2 3446   0.594  11.875   9.414  0.3957  0.2209  0.0259
  216loPI   C1A 3447   0.072  12.121   8.888 -0.0851 -0.0684  0.1368
  216loPI   C2A 3448  -0.043  12.279   8.465  0.3902 -0.0754  0.0935
  216loPI   C3A 3449  -0.266  12.124   8.040  0.2135 -0.0806  0.0300
  216loPI   C4A 3450  -0.367  11.883   7.711 -0.0269 -0.4114  0.1849
  216loPI   C5A 3451  -0.679  11.724   7.473  0.0113 -0.0201  0.1853
  216loPI   C6A 3452  -1.035  11.493   7.454 -0.1910 -0.0303  0.2163
  216loPI   C1B 3453   0.544  12.223   9.042  0.0825  0.0428  0.0760
  216loPI   C2B 3454   0.437  12.391   8.616  0.1502 -0.0852 -0.2138
  216loPI   C3B 3455   0.292  12.491   8.158 -0.1495 -0.0748 -0.0982
  216loPI   C4B 3456   0.228  12.731   7.729 -0.2896 -0.3932  0.1037
  217loPI    C1 3457   5.477  12.025   9.446  0.1122 -0.3268  0.0982
  217loPI    C2 3458   5.781  11.989   9.702  0.1209  0.0875  0.1535
  217loPI    C3 3459   5.467  12.218   9.796 -0.0493 -0.0581 -0.0507
  217loPI   PO4 3460   5.476  11.784   9.360  0.1239 -0.1383  0.1203
  217loPI   GL1 3461   5.493  11.583   9.039 -0.2079  0.2495  0.2011
  217loPI   GL2 3462   5.762  11.320   8.979  0.4468  0.0942  0.0976
  217loPI   C1A 3463   5.438  11.441   8.667 -0.2440 -0.0523  0.1405
  217loPI   C2A 3464   5.612  11.462   8.229  0.0220  0.2640 -0.1330
  217loPI   C3A 3465   5.653  11.684   7.819  0.1642  0.0533  0.1130
  217loPI   C4A 3466   5.446  11.705   7.404  0.0660 -0.0613  0.1508
  217loPI   C5A 3467   5.009  11.400   7.304  0.0148  0.2874 -0.1170
  217loPI   C6A 3468   4.666  11.087   7.402  0.5207 -0.1880 -0.0519
  217loPI   C1B 3469   5.996  11.326   8.657 -0.2787  0.0092 -0.0502
  217loPI   C2B 3470   6.144  11.520   8.346 -0.0317 -0.1146  0.1259
  217loPI   C3B 3471   6.146  11.664   7.903 -0.1754  0.1018  0.0432
  217loPI   C4B 3472   5.943  11.554   7.435  0.0505  0.0395  0.2747
  218loPI    C1 3473   1.850   1.122  10.567  0.3845  0.0692 -0.0599
  218loPI    C2 3474   2.015   0.770  10.661  0.2320 -0.0006 -0.0500
  218loPI    C3 3475   2.042   1.078  10.915  0.2984 -0.0275 -0.0242
  218loPI   PO4 3476   1.780   0.987  10.294  0.2625 -0.1602  0.2947
  218loPI   GL1 3477   1.889   1.032   9.954  0.2204 -0.0345  0.0063
  218loPI   GL2 3478   2.027   0.674   9.924 -0.1942 -0.1757 -0.1410
  218loPI   C1A 3479   2.059   0.968   9.580 -0.1468 -0.1464 -0.0179
  218loPI   C2A 3480   2.199   0.934   9.111 -0.3075 -0.1116  0.0938
  218loPI   C3A 3481   2.047   1.038   8.689 -0.1249  0.1070  0.0151
  218loPI   C4A 3482   1.890   1.079   8.330 -0.1687 -0.0558  0.2334
  218loPI   C5A 3483   1.542   1.131   8.249  0.0369 -0.2061 -0.0656
  218loPI   C6A 3484   1.167   1.443   8.246 -0.2296  0.0170 -0.0355
  218loPI   C1B 3485   2.069   0.495   9.645  0.3258  0.3228 -0.0021
  218loPI   C2B 3486   1.832   0.360   9.197 -0.1836  0.0099  0.1712
  218loPI   C3B 3487   1.574   0.254   8.758  0.0866  0.0111 -0.0842
  218loPI   C4B 3488   1.729   0.225   8.347 -0.1159 -0.0779  0.0200
  219loPI    C1 3489   3.273   5.559  10.890 -0.0202  0.0733 -0.1127
  219loPI    C2 3490   3.576   5.809  10.965  0.0341 -0.0202 -0.0179
  219loPI    C3 3491   3.200   5.946  10.962  0.0667  0.0701 -0.0064
  219loPI   PO4 3492   3.276   5.421  10.658  0.0260 -0.1358  0.2605
  219loPI   GL1 3493   3.282   5.494  10.213 -0.3334  0.1757  0.0255
  219loPI   GL2 3494   3.280   5.348   9.983  0.2743 -0.2983  0.3224
  219loPI   C1A 3495   3.684   5.641   9.840 -0.0970 -0.0655  0.1033
  219loPI   C2A 3496   3.720   5.699   9.356 -0.2161 -0.1420  0.2019
  219loPI   C3A 3497   3.993   5.711   9.042 -0.1919  0.1087 -0.1695
  219loPI   C4A 3498   4.081   5.973   8.681 -0.2289  0.0303 -0.2106
  219loPI   C5A 3499   4.085   6.340   8.425  0.1242  0.1144 -0.0550
  219loPI   C6A 3500   4.392   6.586   8.213 -0.1919  0.1417  0.2074
  219loPI   C1B 3501   3.523   5.234   9.535 -0.0706 -0.0965  0.0476
  219loPI   C2B 3502   3.448   5.233   9.073  0.0968  0.0829 -0.0838
  219loPI   C3B 3503   3.180   4.987   8.852 -0.1538 -0.0747 -0.2690
  219loPI   C4B 3504   2.856   4.612   8.831  0.2668 -0.2943  0.1690
  220loPI    C1 3505   5.475  17.850  10.075  0.0293  0.1247  0.1320
  220loPI    C2 3506   5.759  17.834  10.356  0.1490 -0.2157 -0.0039
  220loPI    C3 3507   5.377  17.763  10.454  0.1809 -0.2657  0.0861
  220loPI   PO4 3508   5.513  18.000   9.948 -0.2247 -0.4151  0.1161
  220loPI   GL1 3509   5.637  18.117   9.479 -0.0867 -0.0070 -0.1500
  220loPI   GL2 3510   5.859  17.813   9.522  0.2183 -0.1236  0.1750
  220loPI   C1A 3511   5.220  18.106   9.321 -0.0220 -0.0572  0.2445
  220loPI   C2A 3512   5.059  18.063   8.940  0.0825  0.0639 -0.3393
  220loPI   C3A 3513   4.864  17.806   8.660 -0.2380  0.0363 -0.2652
  220loPI   C4A 3514   4.738  17.492   8.404  0.2006 -0.2934  0.1304
  220loPI   C5A 3515   4.904  17.115   8.128  0.1663 -0.1827  0.0508
  220loPI   C6A 3516   4.907  17.045   7.718 -0.0244 -0.1527 -0.2568
  220loPI   C1B 3517   6.058  17.587   9.125 -0.0200  0.1789 -0.2286
  220loPI   C2B 3518   6.340  17.482   8.816  0.0504  0.6472 -0.0503
  220loPI   C3B 3519   6.587  17.565   8.488 -0.0544 -0.3011  0.1429
  220loPI   C4B 3520   6.839  17.277   8.325 -0.1272 -0.1253 -0.1463
  221loPI    C1 3521  11.393   8.636  10.751  0.1298 -0.1542  0.2221
  221loPI    C2 3522  11.133   8.866  10.950  0.0301  0.1297 -0.2211
  221loPI    C3 3523  11.511   8.834  11.078 -0.0722  0.1735  0.1013
  221loPI   PO4 3524  11.300   8.801  10.477  0.3042  0.1549 -0.2639
  221loPI   GL1 3525  10.968   8.757  10.164  0.3148  0.0013  0.2085
  221loPI   GL2 3526  10.687   8.519  10.076 -0.0682  0.0148 -0.1483
  221loPI   C1A 3527  11.243   8.792   9.826  0.2496 -0.0298 -0.0607
  221loPI   C2A 3528  11.192   8.689   9.371  0.5076 -0.4295  0.0026
  221loPI   C3A 3529  11.395   8.787   8.969 -0.0226 -0.2597 -0.0627
  221loPI   C4A 3530  11.473   8.637   8.565  0.1543 -0.1612  0.0137
  221loPI   C5A 3531  11.524   8.573   8.143 -0.2655  0.1740 -0.0759
  221loPI   C6A 3532  11.503   8.195   7.835  0.0025  0.1191 -0.0575
  221loPI   C1B 3533  10.757   8.691   9.652 -0.0262  0.2417 -0.1440
  221loPI   C2B 3534  10.669   9.122   9.568 -0.5132  0.2260 -0.0927
  221loPI   C3B 3535  10.613   9.515   9.204 -0.0700  0.1148  0.0677
  221loPI   C4B 3536  10.594   9.482   8.798 -0.0207 -0.2418 -0.0462
  222loPI    C1 3537  16.558   8.440   9.832 -0.1485  0.0153  0.0212
  222loPI    C2 3538  16.849   8.247  10.028 -0.0070  0.0166 -0.1844
  222loPI    C3 3539  16.626   8.520  10.218  0.1155  0.0050 -0.0215
  222loPI   PO4 3540  16.434   8.254   9.685 -0.1837 -0.1331  0.0977
  222loPI   GL1 3541  16.368   7.985   9.365  0.2560 -0.2835 -0.1135
  222loPI   GL2 3542  16.434   8.326   9.174 -0.0052  0.2134 -0.1730
  222loPI   C1A 3543  16.478   7.857   8.926 -0.1184 -0.0929  0.0358
  222loPI   C2A 3544  16.494   7.914   8.523  0.1603  0.1291 -0.2957
  222loPI   C3A 3545  16.661   7.762   8.113  0.1417  0.1853 -0.3135
  222loPI   C4A 3546  16.787   7.642   7.699  0.0377 -0.0999 -0.0302
  222loPI   C5A 3547  17.169   7.653   7.390 -0.0783 -0.0766 -0.1045
  222loPI   C6A 3548  17.527   7.902   7.143 -0.0682 -0.0052  0.0535
  222loPI   C1B 3549  16.446   8.349   8.743  0.1018  0.0366  0.0908
  222loPI   C2B 3550  16.576   8.381   8.284  0.2578 -0.0632  0.1555
  222loPI   C3B 3551  16.631   8.223   7.825 -0.2386 -0.1735 -0.0170
  222loPI   C4B 3552  16.690   8.090   7.353  0.0481  0.0369  0.1880
  223loPI    C1 3553   4.114  10.459   9.560 -0.1023 -0.1268 -0.1610
  223loPI    C2 3554   4.165  10.073   9.652 -0.0336 -0.0842 -0.0184
  223loPI    C3 3555   4.182  10.351   9.939 -0.1647  0.0176 -0.1079
  223loPI   PO4 3556   4.259  10.509   9.365 -0.1443  0.0217  0.0705
  223loPI   GL1 3557   4.463  10.446   9.023 -0.1650 -0.3010  0.1606
  223loPI   GL2 3558   4.702  10.222   9.237  0.5735  0.0381 -0.3249
  223loPI   C1A 3559   4.561  10.490   8.547 -0.0617 -0.1857 -0.0342
  223loPI   C2A 3560   4.371  10.685   8.167  0.1321  0.4178  0.1888
  223loPI   C3A 3561   4.027  10.806   7.853 -0.2012 -0.2264  0.0370
  223loPI   C4A 3562   3.889  10.723   7.456 -0.1667  0.0867 -0.0957
  223loPI   C5A 3563   3.866  10.483   7.129  0.0179  0.1330  0.0035
  223loPI   C6A 3564   3.787  10.055   7.097  0.1576 -0.0409 -0.2496
  223loPI   C1B 3565   4.938  10.210   8.829 -0.1851  0.0446 -0.1085
  223loPI   C2B 3566   4.957  10.296   8.469 -0.1076 -0.0985 -0.0542
  223loPI   C3B 3567   4.972  10.224   8.106 -0.2236 -0.2275  0.1197
  223loPI   C4B 3568   5.080  10.393   7.693  0.1728  0.1287  0.0485
  224loPI    C1 3569  11.249   5.291  10.773 -0.1273  0.0583 -0.1353
  224loPI    C2 3570  11.148   5.670  10.691 -0.2135  0.1263  0.2640
  224loPI    C3 3571  11.320   5.580  11.041  0.1456 -0.1517  0.0235
  224loPI   PO4 3572  11.022   5.176  10.581 -0.0550  0.3134 -0.1250
  224loPI   GL1 3573  10.826   5.065  10.231 -0.2593  0.0445  0.0092
  224loPI   GL2 3574  10.988   4.700  10.247 -0.2340  0.1919  0.0588
  224loPI   C1A 3575  10.787   5.122   9.783 -0.1815  0.0500  0.4235
  224loPI   C2A 3576  10.761   5.007   9.421 -0.0011  0.2472  0.2546
  224loPI   C3A 3577  10.915   4.939   8.979 -0.0407 -0.4671  0.0853
  224loPI   C4A 3578  10.806   4.790   8.585 -0.0273  0.1722 -0.1343
  224loPI   C5A 3579  10.394   4.730   8.375 -0.2119 -0.0131 -0.1456
  224loPI   C6A 3580  10.008   4.941   8.194 -0.0578 -0.3743  0.1363
  224loPI   C1B 3581  11.007   4.671   9.824 -0.0263  0.1502 -0.3131
  224loPI   C2B 3582  11.070   4.568   9.453  0.0218  0.1266 -0.1563
  224loPI   C3B 3583  11.265   4.581   9.078  0.0502  0.2348 -0.4660
  224loPI   C4B 3584  11.286   4.637   8.622  0.1550 -0.0778 -0.0835
  225loPI    C1 3585  18.458  18.643  10.563  0.1075  0.1175 -0.0923
  225loPI    C2 3586  18.322  18.273  10.632 -0.0114  0.1452 -0.1764
  225loPI    C3 3587  18.524  18.468  10.917 -0.0126  0.0439 -0.1059
  225loPI   PO4 3588  18.271  18.751  10.449 -0.0132  0.0852 -0.2292
  225loPI   GL1 3589  18.072  18.748  10.011 -0.0458  0.1808 -0.0265
  225loPI   GL2 3590  18.370  18.470  10.018  0.2563 -0.3080  0.0554
  225loPI   C1A 3591  18.214  18.859   9.600 -0.0776 -0.2424  0.0897
  225loPI   C2A 3592  18.166  18.910   9.145  0.1960 -0.0242  0.1751
  225loPI   C3A 3593  18.208  18.991   8.649 -0.2237  0.0883  0.2450
  225loPI   C4A 3594  18.395  18.828   8.282  0.0435  0.3258  0.3404
  225loPI   C5A 3595  18.548  18.556   7.911  0.3635  0.0308  0.0304
  225loPI   C6A 3596  18.324  18.460   7.558 -0.0235 -0.0780 -0.1272
  225loPI   C1B 3597  18.387  18.425   9.546 -0.2163  0.1533  0.2175
  225loPI   C2B 3598  18.456  18.425   9.158 -0.0718 -0.2096  0.0007
  225loPI   C3B 3599  18.446  18.550   8.712  0.0561  0.1193  0.0235
  225loPI   C4B 3600  18.605  18.410   8.378 -0.1448 -0.1620 -0.4259
  226loPI    C1 3601  11.556   1.881  10.662  0.2072  0.1379 -0.1154
  226loPI    C2 3602  11.363   1.825  11.008 -0.1974  0.1591 -0.3317
  226loPI    C3 3603  11.749   1.933  11.009 -0.1301 -0.0615  0.1071
  226loPI   PO4 3604  11.346   1.819  10.498  0.4201 -0.2329  0.2717
  226loPI   GL1 3605  11.396   1.657  10.077  0.0286  0.1523 -0.1665
  226loPI   GL2 3606  11.037   1.634  10.039  0.3565 -0.0833  0.1135
  226loPI   C1A 3607  11.548   2.004   9.896  0.1703 -0.4417 -0.1477
  226loPI   C2A 3608  11.806   2.330   9.627  0.0289  0.1900  0.1229
  226loPI   C3A 3609  11.971   2.440   9.183  0.2829  0.1714  0.0403
  226loPI   C4A 3610  11.781   2.349   8.742  0.0622  0.0062 -0.2010
  226loPI   C5A 3611  11.535   2.255   8.456 -0.2455  0.1573  0.1390
  226loPI   C6A 3612  11.703   2.047   8.233 -0.0566  0.0337  0.2036
  226loPI   C1B 3613  11.178   1.741   9.641  0.0038  0.1313 -0.1629
  226loPI   C2B 3614  11.348   2.110   9.473 -0.3597 -0.0957 -0.0611
  226loPI   C3B 3615  11.462   2.398   9.194  0.1450 -0.0669  0.2046
  226loPI   C4B 3616  11.188   2.657   8.917 -0.0593 -0.0070  0.2507
  227loPI    C1 3617   2.634   8.922  10.061 -0.2113  0.2037  0.0707
  227loPI    C2 3618   2.850   8.946  10.397  0.0391  0.0095 -0.0736
  227loPI    C3 3619   2.466   8.836  10.414  0.0196  0.1098  0.1595
  227loPI   PO4 3620   2.802   8.933   9.874 -0.2162  0.0594  0.1301
  227loPI   GL1 3621   3.075   9.027   9.626  0.0013  0.0429 -0.0236
  227loPI   GL2 3622   3.369   9.062   9.548 -0.1468  0.1909  0.0106
  227loPI   C1A 3623   2.849   8.972   9.204 -0.0094 -0.0521  0.1663
  227loPI   C2A 3624   2.760   9.083   8.815  0.5422 -0.2855  0.1631
  227loPI   C3A 3625   2.857   9.060   8.348  0.2189  0.1023  0.0672
  227loPI   C4A 3626   2.785   9.164   7.979  0.1079  0.1814  0.2232
  227loPI   C5A 3627   2.643   9.429   7.590 -0.2050 -0.1706  0.1224
  227loPI   C6A 3628   2.678   9.767   7.178 -0.0395  0.2510 -0.0053
  227loPI   C1B 3629   3.305   8.835   9.169  0.3563  0.2617 -0.0069
  227loPI   C2B 3630   3.098   8.688   8.790 -0.0544 -0.1146 -0.1938
  227loPI   C3B 3631   2.721   8.554   8.881  0.2136  0.0113  0.1757
  227loPI   C4B 3632   2.689   8.171   9.190  0.1344 -0.5969 -0.0367
  228loPI    C1 3633  15.710   7.450  10.311 -0.1015 -0.2426 -0.0068
  228loPI    C2 3634  16.110   7.448  10.320 -0.0995 -0.0685 -0.0141
  228loPI    C3 3635  15.902   7.475  10.661 -0.1037 -0.0507 -0.0181
  228loPI   PO4 3636  15.738   7.521   9.990 -0.1295 -0.0767  0.0810
  228loPI   GL1 3637  15.370   7.460   9.757 -0.0996 -0.1491  0.0486
  228loPI   GL2 3638  15.208   7.699   9.618 -0.1420  0.1364 -0.4125
  228loPI   C1A 3639  15.405   7.081   9.393  0.2018  0.2715  0.2919
  228loPI   C2A 3640  15.354   6.756   9.090  0.1136 -0.3767  0.1013
  228loPI   C3A 3641  15.278   6.722   8.710  0.1094 -0.2002 -0.0974
  228loPI   C4A 3642  15.350   6.744   8.247 -0.3083  0.0001 -0.0909
  228loPI   C5A 3643  15.444   6.707   7.823  0.1351 -0.1061  0.0164
  228loPI   C6A 3644  15.383   6.414   7.538  0.0931  0.1386  0.1739
  228loPI   C1B 3645  15.054   7.491   9.334 -0.1653  0.3752 -0.1136
  228loPI   C2B 3646  14.901   7.062   9.202  0.2081  0.0382  0.0499
  228loPI   C3B 3647  14.704   6.825   8.783 -0.1079 -0.0497 -0.0428
  228loPI   C4B 3648  14.433   6.475   8.826  0.0975 -0.1371  0.2324
  229loPI    C1 3649   4.940   8.529  10.714  0.2191 -0.0642  0.3236
  229loPI    C2 3650   4.958   8.872  10.510 -0.0259 -0.1656  0.1264
  229loPI    C3 3651   5.159   8.833  10.854  0.0914  0.1357  0.0950
  229loPI   PO4 3652   5.022   8.376  10.544  0.1558  0.0983  0.2537
  229loPI   GL1 3653   4.955   8.066  10.237  0.0483  0.1530  0.0550
  229loPI   GL2 3654   4.858   7.827  10.010  0.1729  0.1588 -0.0390
  229loPI   C1A 3655   5.300   7.992   9.916  0.3483 -0.2069  0.1569
  229loPI   C2A 3656   5.369   7.742   9.673  0.0116 -0.4371 -0.2046
  229loPI   C3A 3657   5.422   7.454   9.422  0.1018  0.0535 -0.0472
  229loPI   C4A 3658   5.356   7.279   9.000  0.2264 -0.0784 -0.0632
  229loPI   C5A 3659   5.495   7.222   8.652  0.1134  0.1321  0.2182
  229loPI   C6A 3660   5.874   7.218   8.329  0.0063  0.1978  0.2545
  229loPI   C1B 3661   4.841   7.802   9.548 -0.0716  0.0989 -0.2062
  229loPI   C2B 3662   4.834   7.974   9.168 -0.2445  0.0722  0.2016
  229loPI   C3B 3663   4.872   7.945   8.720 -0.0665 -0.2826  0.2102
  229loPI   C4B 3664   4.868   7.843   8.237  0.0673 -0.0232  0.1979
  230loPI    C1 3665  13.015  10.709  10.042 -0.0048  0.0946 -0.0064
  230loPI    C2 3666  13.345  10.877  10.195 -0.0020  0.0749  0.0090
  230loPI    C3 3667  13.090  10.682  10.434  0.0563 -0.0464 -0.0274
  230loPI   PO4 3668  13.180  10.629   9.725 -0.0685  0.1166 -0.4475
  230loPI   GL1 3669  13.333  10.468   9.388 -0.0477 -0.1430 -0.2170
  230loPI   GL2 3670  13.610  10.244   9.562 -0.3800 -0.0302  0.0508
  230loPI   C1A 3671  13.265  10.187   9.108  0.1078  0.0526 -0.1296
  230loPI   C2A 3672  13.375  10.129   8.632 -0.0457 -0.1108  0.1999
  230loPI   C3A 3673  13.401  10.074   8.109  0.0868 -0.0104 -0.1585
  230loPI   C4A 3674  13.154  10.018   7.676  0.0085  0.1300  0.2222
  230loPI   C5A 3675  12.944   9.660   7.476 -0.1995 -0.2051 -0.2973
  230loPI   C6A 3676  12.745   9.584   7.070 -0.1671  0.1387 -0.1272
  230loPI   C1B 3677  13.743  10.186   9.116  0.1413  0.0687  0.0006
  230loPI   C2B 3678  13.809  10.291   8.761  0.1385  0.2699 -0.0847
  230loPI   C3B 3679  13.820  10.028   8.390  0.3600  0.3118  0.3529
  230loPI   C4B 3680  13.881   9.899   8.016  0.1013 -0.0038 -0.1616
  231loPI    C1 3681   1.130   8.638   9.987  0.0491 -0.0556  0.0058
  231loPI    C2 3682   1.168   8.749  10.369  0.0113 -0.3418  0.0944
  231loPI    C3 3683   1.068   8.372  10.278  0.0649 -0.2876 -0.1994
  231loPI   PO4 3684   1.078   8.848   9.875 -0.2880  0.0777  0.1757
  231loPI   GL1 3685   1.085   9.132   9.563 -0.0514  0.0782  0.0480
  231loPI   GL2 3686   0.990   9.366   9.542  0.0693 -0.0042  0.1670
  231loPI   C1A 3687   0.998   8.948   9.175  0.0517  0.1599 -0.4194
  231loPI   C2A 3688   1.103   8.857   8.787  0.2981  0.1482 -0.0134
  231loPI   C3A 3689   1.265   8.900   8.401 -0.2846  0.0404  0.2734
  231loPI   C4A 3690   1.127   8.847   7.994 -0.0262  0.2132  0.0425
  231loPI   C5A 3691   0.800   8.786   7.601 -0.0802 -0.1216 -0.1549
  231loPI   C6A 3692   0.776   8.452   7.339 -0.0433 -0.0921 -0.1954
  231loPI   C1B 3693   1.112   9.407   9.123  0.2892  0.2004  0.3453
  231loPI   C2B 3694   1.090   9.345   8.626 -0.0586  0.0476 -0.0868
  231loPI   C3B 3695   1.236   9.381   8.258  0.0573 -0.1780  0.0269
  231loPI   C4B 3696   1.369   9.452   7.893 -0.1280 -0.0704 -0.0114
  232loPI    C1 3697  16.670  16.731  10.627 -0.1909  0.2451  0.1950
  232loPI    C2 3698  16.750  16.426  10.873  0.1315  0.0487 -0.1439
  232loPI    C3 3699  16.622  16.774  11.022 -0.1121 -0.2053  0.2588
  232loPI   PO4 3700  16.898  16.573  10.398  0.4505 -0.2180  0.0451
  232loPI   GL1 3701  16.948  16.708   9.943 -0.2090  0.1327  0.0604
  232loPI   GL2 3702  17.048  16.319   9.937 -0.2924  0.0392  0.1848
  232loPI   C1A 3703  17.273  16.957   9.611 -0.3626 -0.3800  0.0455
  232loPI   C2A 3704  17.136  17.064   9.126 -0.2515 -0.1763  0.0499
  232loPI   C3A 3705  17.027  17.024   8.712  0.0423  0.0298  0.3698
  232loPI   C4A 3706  16.937  17.070   8.257 -0.0490 -0.1302  0.1830
  232loPI   C5A 3707  16.602  17.365   8.052 -0.0716 -0.1762 -0.1866
  232loPI   C6A 3708  16.647  17.780   8.151  0.0220 -0.0860 -0.0765
  232loPI   C1B 3709  16.940  16.566   9.446  0.2728 -0.3344  0.3723
  232loPI   C2B 3710  16.865  16.618   9.085  0.5011  0.0615 -0.2940
  232loPI   C3B 3711  16.781  16.510   8.755 -0.1067  0.0164 -0.2450
  232loPI   C4B 3712  16.749  16.575   8.300 -0.0384  0.1916  0.1837
  233loPI    C1 3713  14.607   6.078  10.546 -0.1330 -0.0063  0.2742
  233loPI    C2 3714  14.526   5.691  10.610  0.0226 -0.0851  0.0107
  233loPI    C3 3715  14.892   5.802  10.493 -0.0008  0.1516  0.1548
  233loPI   PO4 3716  14.400   6.170  10.358  0.0846  0.0058  0.3111
  233loPI   GL1 3717  14.151   5.928   9.989 -0.1756 -0.1023 -0.3096
  233loPI   GL2 3718  13.889   5.731  10.032 -0.2933 -0.1459 -0.0581
  233loPI   C1A 3719  14.530   6.025   9.699 -0.0009 -0.4037 -0.1361
  233loPI   C2A 3720  14.765   6.091   9.263  0.0726 -0.0184 -0.1689
  233loPI   C3A 3721  14.841   6.045   8.751  0.0955  0.1598  0.1600
  233loPI   C4A 3722  14.860   5.995   8.280  0.1944 -0.3143  0.1374
  233loPI   C5A 3723  14.973   6.122   7.917  0.3551 -0.1401 -0.2375
  233loPI   C6A 3724  15.033   6.442   7.865  0.0307 -0.0197  0.0626
  233loPI   C1B 3725  13.747   5.793   9.649  0.0010  0.3020  0.2718
  233loPI   C2B 3726  13.803   5.784   9.086 -0.1534 -0.1906 -0.2767
  233loPI   C3B 3727  13.563   5.644   8.771  0.2489 -0.2058  0.1746
  233loPI   C4B 3728  13.521   5.555   8.357  0.1017 -0.2521 -0.0476
  234loPI    C1 3729   6.643   2.952  10.711  0.2174 -0.1092 -0.2653
  234loPI    C2 3730   6.773   2.577  10.756 -0.2961 -0.2908 -0.2280
  234loPI    C3 3731   6.452   2.702  10.958  0.0476  0.2690 -0.0038
  234loPI   PO4 3732   6.526   3.115  10.421  0.0735 -0.0679  0.8517
  234loPI   GL1 3733   6.633   3.262  10.039 -0.1528  0.2808 -0.0488
  234loPI   GL2 3734   6.384   3.478  10.046  0.0278 -0.0413  0.4708
  234loPI   C1A 3735   6.818   3.237   9.702 -0.1291 -0.0042  0.3086
  234loPI   C2A 3736   6.845   3.400   9.285 -0.0209 -0.0567  0.0918
  234loPI   C3A 3737   6.788   3.696   8.995 -0.0561  0.1485 -0.0362
  234loPI   C4A 3738   6.971   3.839   8.690 -0.0221 -0.1288  0.1060
  234loPI   C5A 3739   7.028   3.959   8.208  0.0164  0.0516  0.1978
  234loPI   C6A 3740   7.323   4.261   8.054  0.2996  0.0754 -0.3471
  234loPI   C1B 3741   6.388   3.372   9.569  0.3764 -0.0317  0.0313
  234loPI   C2B 3742   6.326   3.228   9.132  0.2737 -0.1498 -0.3154
  234loPI   C3B 3743   6.157   3.391   8.825 -0.1142 -0.2965 -0.1381
  234loPI   C4B 3744   5.889   3.268   8.496  0.0618 -0.2670  0.1938
  235loPI    C1 3745   7.394  10.142  10.203  0.0001  0.0578  0.0547
  235loPI    C2 3746   7.104  10.328  10.406 -0.2883 -0.3171 -0.0029
  235loPI    C3 3747   7.352  10.078  10.596  0.0762  0.0866  0.0677
  235loPI   PO4 3748   7.260  10.082   9.922 -0.0346  0.2864  0.1223
  235loPI   GL1 3749   7.479  10.075   9.480  0.2369 -0.1646 -0.0209
  235loPI   GL2 3750   7.143   9.959   9.400  0.1403  0.1198  0.1213
  235loPI   C1A 3751   7.375  10.352   9.138 -0.0823 -0.2151 -0.2314
  235loPI   C2A 3752   7.396  10.191   8.755  0.4818 -0.1108  0.0806
  235loPI   C3A 3753   7.214  10.008   8.326 -0.3296  0.2761 -0.1209
  235loPI   C4A 3754   7.023   9.669   7.967 -0.1380  0.1660 -0.2879
  235loPI   C5A 3755   7.092   9.350   7.678  0.0972  0.2916  0.0752
  235loPI   C6A 3756   7.109   9.061   7.332 -0.4895 -0.1816 -0.1470
  235loPI   C1B 3757   7.328   9.772   9.047 -0.1148 -0.0535  0.0631
  235loPI   C2B 3758   7.639   9.748   8.713 -0.1934 -0.1978  0.1937
  235loPI   C3B 3759   7.728  10.064   8.281  0.0009 -0.0266  0.0417
  235loPI   C4B 3760   7.909  10.449   8.299  0.1458 -0.0363 -0.1576
  236loPI    C1 3761   2.412   2.742  10.485 -0.0618  0.0455  0.0961
  236loPI    C2 3762   2.046   2.679  10.634 -0.0577 -0.0134  0.0815
  236loPI    C3 3763   2.354   2.455  10.758 -0.0234  0.0474  0.1064
  236loPI   PO4 3764   2.352   2.673  10.268  0.0030  0.2057 -0.2771
  236loPI   GL1 3765   2.616   2.685   9.885 -0.2078 -0.1660 -0.4296
  236loPI   GL2 3766   2.854   2.874   9.764  0.0607 -0.1634 -0.0500
  236loPI   C1A 3767   2.373   2.798   9.611 -0.0098  0.1550  0.1452
  236loPI   C2A 3768   2.257   2.707   9.256 -0.0455 -0.0474 -0.0686
  236loPI   C3A 3769   2.078   2.720   8.778  0.0229 -0.1514 -0.1397
  236loPI   C4A 3770   1.927   2.546   8.387  0.1765 -0.3442 -0.1681
  236loPI   C5A 3771   1.690   2.725   8.026  0.1339 -0.0070  0.2579
  236loPI   C6A 3772   1.692   2.694   7.638 -0.0169  0.1100 -0.0894
  236loPI   C1B 3773   2.877   2.771   9.407  0.0093 -0.1945  0.2190
  236loPI   C2B 3774   2.736   2.864   9.101 -0.2744  0.0867 -0.1147
  236loPI   C3B 3775   2.586   2.692   8.742 -0.1146 -0.0719  0.1995
  236loPI   C4B 3776   2.433   2.567   8.354  0.1375 -0.1479 -0.1042
  237loPI    C1 3777   6.836   9.340  10.168 -0.0821 -0.3637 -0.1304
  237loPI    C2 3778   7.178   9.234  10.345  0.0680  0.2054 -0.0612
  237loPI    C3 3779   6.844   9.272  10.562  0.0641  0.0994 -0.0479
  237loPI   PO4 3780   6.920   9.138   9.846  0.1879  0.0450 -0.2331
  237loPI   GL1 3781   6.768   9.014   9.620  0.3100  0.5589 -0.0384
  237loPI   GL2 3782   6.818   9.103   9.277 -0.0985  0.0087 -0.1091
  237loPI   C1A 3783   6.303   9.004   9.365  0.0118  0.1291 -0.0424
  237loPI   C2A 3784   6.107   9.173   9.026 -0.0827  0.0997  0.0689
  237loPI   C3A 3785   5.936   9.271   8.697 -0.1018  0.0337 -0.1000
  237loPI   C4A 3786   5.823   9.220   8.216  0.0392  0.0309  0.2560
  237loPI   C5A 3787   5.787   9.345   7.733 -0.0811 -0.2176 -0.1392
  237loPI   C6A 3788   5.477   9.419   7.487  0.0341  0.0350  0.0408
  237loPI   C1B 3789   6.645   9.056   8.926  0.1726 -0.1018  0.1921
  237loPI   C2B 3790   6.310   8.917   8.625 -0.3554  0.0019 -0.1386
  237loPI   C3B 3791   6.030   8.858   8.445  0.0497 -0.1366 -0.1940
  237loPI   C4B 3792   5.842   8.835   7.914 -0.3892 -0.3786 -0.0337
  238loPI    C1 3793   1.340   2.281  10.407 -0.1534 -0.2465 -0.1144
  238loPI    C2 3794   1.626   2.207  10.137  0.0081  0.0992 -0.0425
  238loPI    C3 3795   1.725   2.302  10.513 -0.2122 -0.1915  0.0926
  238loPI   PO4 3796   1.122   2.360  10.240  0.1333  0.2011 -0.3782
  238loPI   GL1 3797   1.062   2.078   9.909 -0.2157 -0.1292  0.4210
  238loPI   GL2 3798   0.806   1.862   9.895 -0.2103 -0.1450 -0.0365
  238loPI   C1A 3799   1.052   2.089   9.426 -0.0210 -0.0912  0.0811
  238loPI   C2A 3800   1.055   1.931   8.915 -0.1364 -0.2999  0.2457
  238loPI   C3A 3801   1.053   1.908   8.581  0.0820  0.0845  0.0146
  238loPI   C4A 3802   1.139   2.000   8.269  0.1952 -0.4549  0.0063
  238loPI   C5A 3803   1.420   1.903   7.967 -0.1520 -0.1117 -0.2999
  238loPI   C6A 3804   1.636   1.531   7.894  0.1831  0.0496 -0.0555
  238loPI   C1B 3805   0.640   1.722   9.455 -0.3783  0.0724  0.1863
  238loPI   C2B 3806   0.400   1.434   9.089 -0.3085  0.0184 -0.0034
  238loPI   C3B 3807   0.403   1.226   8.726 -0.2473  0.4327  0.0112
  238loPI   C4B 3808   0.236   1.305   8.365  0.0850 -0.0664 -0.1733
  239loPI    C1 3809  14.802  10.172   9.775  0.0670 -0.0127 -0.1565
  239loPI    C2 3810  14.870   9.997  10.128 -0.0515 -0.0907 -0.1714
  239loPI    C3 3811  14.713  10.365  10.113 -0.0172 -0.0748 -0.1429
  239loPI   PO4 3812  15.008   9.976   9.609  0.0350  0.2974 -0.3111
  239loPI   GL1 3813  15.150  10.078   9.228  0.1856 -0.2028  0.1401
  239loPI   GL2 3814  15.158  10.261   9.065  0.0041  0.1114  0.0695
  239loPI   C1A 3815  15.135   9.625   9.046  0.2614 -0.0045 -0.0675
  239loPI   C2A 3816  15.129   9.385   8.635 -0.0182  0.0625 -0.1454
  239loPI   C3A 3817  15.172   9.168   8.256  0.0119 -0.2689  0.1533
  239loPI   C4A 3818  15.010   8.930   7.965 -0.2388 -0.1655  0.2664
  239loPI   C5A 3819  14.647   8.695   7.960  0.0871  0.2089  0.4463
  239loPI   C6A 3820  14.452   8.432   7.911  0.2911 -0.2444  0.0176
  239loPI   C1B 3821  15.276  10.330   8.648  0.2446  0.2154  0.2397
  239loPI   C2B 3822  15.299  10.367   8.227 -0.1474 -0.1487  0.1482
  239loPI   C3B 3823  15.398  10.197   7.862  0.2495 -0.0709 -0.1516
  239loPI   C4B 3824  15.502   9.792   7.729 -0.0326  0.0801  0.1842
  240loPI    C1 3825   1.944  12.895  10.102 -0.0348  0.1112  0.1033
  240loPI    C2 3826   2.215  13.137  10.270 -0.1855  0.2988  0.0802
  240loPI    C3 3827   1.924  12.976  10.493 -0.0727  0.1185  0.0999
  240loPI   PO4 3828   2.057  12.899   9.866 -0.1547  0.0719  0.1176
  240loPI   GL1 3829   2.177  12.719   9.524  0.2104 -0.0501 -0.2001
  240loPI   GL2 3830   2.006  12.463   9.436 -0.2217 -0.0533 -0.3381
  240loPI   C1A 3831   2.285  13.036   9.177  0.1996 -0.1926 -0.1200
  240loPI   C2A 3832   1.916  13.083   8.866 -0.1102 -0.2564  0.2953
  240loPI   C3A 3833   1.863  13.048   8.391  0.0771  0.4853 -0.1594
  240loPI   C4A 3834   1.762  12.984   7.945  0.3344  0.0461 -0.2333
  240loPI   C5A 3835   1.592  12.969   7.561  0.3614 -0.0770 -0.1396
  240loPI   C6A 3836   1.612  12.878   7.075 -0.0054 -0.0554 -0.0354
  240loPI   C1B 3837   2.002  12.625   9.009  0.0397  0.2927 -0.1315
  240loPI   C2B 3838   2.111  12.690   8.591  0.0735  0.0259  0.1516
  240loPI   C3B 3839   1.946  12.572   8.119  0.0391 -0.0783  0.3271
  240loPI   C4B 3840   2.024  12.629   7.706 -0.1920 -0.4636 -0.2215
  241loPI    C1 3841  17.382   5.653  10.248  0.1082 -0.1589 -0.2369
  241loPI    C2 3842  17.667   5.439  10.429  0.1953  0.2916  0.1780
  241loPI    C3 3843  17.391   5.631  10.647 -0.1373  0.2584 -0.2018
  241loPI   PO4 3844  17.458   5.610   9.929 -0.1150 -0.1291  0.0914
  241loPI   GL1 3845  17.377   5.796   9.561  0.2540 -0.4468  0.4133
  241loPI   GL2 3846  17.207   5.710   9.209 -0.1721 -0.3320 -0.2735
  241loPI   C1A 3847  17.602   5.948   9.105 -0.0379 -0.1358  0.1698
  241loPI   C2A 3848  17.870   5.904   8.781 -0.0009  0.1458  0.0221
  241loPI   C3A 3849  17.963   6.079   8.540  0.0475 -0.2590 -0.0963
  241loPI   C4A 3850  18.072   6.330   8.173 -0.2312 -0.0096  0.0448
  241loPI   C5A 3851  18.199   6.325   7.776 -0.0760  0.2306  0.0112
  241loPI   C6A 3852  18.255   6.795   7.517 -0.4350  0.0101 -0.1038
  241loPI   C1B 3853  17.395   5.715   8.739  0.0863 -0.2540 -0.2630
  241loPI   C2B 3854  17.529   5.828   8.287 -0.3185  0.0948 -0.2444
  241loPI   C3B 3855  17.387   5.810   7.851  0.1170 -0.2855  0.0777
  241loPI   C4B 3856  17.025   5.774   7.668  0.0933 -0.2423 -0.2100
  242loPI    C1 3857   2.128  15.444  10.179  0.0592 -0.0142  0.2454
  242loPI    C2 3858   2.078  15.786  10.381 -0.2269 -0.0708  0.2738
  242loPI    C3 3859   1.768  15.539  10.325 -0.0683 -0.2282  0.0757
  242loPI   PO4 3860   2.270  15.457   9.963  0.3843  0.2459  0.1826
  242loPI   GL1 3861   2.321  15.555   9.622  0.2657 -0.2297  0.0864
  242loPI   GL2 3862   2.641  15.687   9.681 -0.0033 -0.1530 -0.0425
  242loPI   C1A 3863   2.391  15.353   9.166  0.0393 -0.0523  0.0320
  242loPI   C2A 3864   2.305  15.208   8.744 -0.1495  0.3723  0.2378
  242loPI   C3A 3865   2.379  15.298   8.271  0.2263 -0.0284 -0.1336
  242loPI   C4A 3866   2.073  15.233   7.937  0.0148  0.0395 -0.2357
  242loPI   C5A 3867   1.924  14.835   7.727  0.2446 -0.0480  0.1504
  242loPI   C6A 3868   1.575  14.611   7.590  0.2557  0.0782  0.2440
  242loPI   C1B 3869   2.685  15.723   9.252  0.0905  0.2249  0.1436
  242loPI   C2B 3870   2.740  15.634   8.882 -0.0031 -0.1225 -0.2716
  242loPI   C3B 3871   2.809  15.388   8.569 -0.1657  0.0779  0.1536
  242loPI   C4B 3872   2.809  15.066   8.157 -0.0825 -0.0654  0.3043
  243loPI    C1 3873   8.294   4.112  10.350  0.0184  0.0692 -0.1384
  243loPI    C2 3874   8.466   3.971  10.682 -0.1183 -0.0389 -0.1122
  243loPI    C3 3875   8.652   4.249  10.462 -0.0562  0.0815  0.0898
  243loPI   PO4 3876   8.128   3.976  10.348  0.1055  0.2882 -0.0720
  243loPI   GL1 3877   8.031   4.111   9.906 -0.1939  0.0020 -0.1122
  243loPI   GL2 3878   8.197   3.842   9.896 -0.1420 -0.0418 -0.2633
  243loPI   C1A 3879   7.853   4.260   9.515 -0.1351 -0.1029 -0.1198
  243loPI   C2A 3880   7.828   4.467   9.263 -0.3124  0.1975 -0.1395
  243loPI   C3A 3881   7.742   4.469   8.790 -0.2104 -0.0885  0.2221
  243loPI   C4A 3882   7.762   4.440   8.354 -0.1059 -0.4552  0.0634
  243loPI   C5A 3883   8.018   4.371   7.970 -0.2855 -0.0071 -0.3339
  243loPI   C6A 3884   8.422   4.301   7.871 -0.0085 -0.2285 -0.0273
  243loPI   C1B 3885   8.231   3.889   9.421 -0.0156 -0.1601 -0.1353
  243loPI   C2B 3886   8.521   4.052   9.157 -0.2132  0.2617  0.1436
  243loPI   C3B 3887   8.548   4.260   8.823  0.0867 -0.1848  0.1788
  243loPI   C4B 3888   8.259   4.440   8.623  0.0601  0.1034 -0.2897
  244loPI    C1 3889  18.580   1.644  10.790 -0.0287 -0.2087 -0.2341
  244loPI    C2 3890  18.553   2.034  10.706 -0.0243 -0.1800 -0.1037
  244loPI    C3 3891  18.272   1.858  10.930  0.0260 -0.2299 -0.0796
  244loPI   PO4 3892  18.660   1.550  10.537  0.0846 -0.1304  0.0060
  244loPI   GL1 3893  18.484   1.779  10.164 -0.2806 -0.0691 -0.0968
  244loPI   GL2 3894  18.638   1.526  10.011  0.0358 -0.1445 -0.3372
  244loPI   C1A 3895  18.382   1.989   9.804 -0.0495 -0.3282  0.0634
  244loPI   C2A 3896  18.264   2.018   9.381 -0.3313 -0.1214 -0.1722
  244loPI   C3A 3897  18.229   2.075   9.024 -0.0987 -0.4146 -0.2605
  244loPI   C4A 3898  18.396   2.110   8.631  0.1352  0.0813 -0.0906
  244loPI   C5A 3899  18.460   2.098   8.122  0.1921 -0.0088  0.0992
  244loPI   C6A 3900  18.525   1.920   7.663  0.1018  0.0752 -0.1089
  244loPI   C1B 3901  18.432   1.496   9.618  0.2730  0.0074  0.3081
  244loPI   C2B 3902  18.261   1.572   9.163 -0.1807  0.1404 -0.1510
  244loPI   C3B 3903  18.182   1.684   8.755 -0.1142 -0.2176  0.2214
  244loPI   C4B 3904  18.440   1.638   8.381 -0.0868 -0.5933 -0.1092
  245loPI    C1 3905  17.249   9.860   9.917  0.0981  0.0258  0.0884
  245loPI    C2 3906  16.899   9.948  10.090 -0.1209  0.1399 -0.3961
  245loPI    C3 3907  16.913   9.681   9.792  0.2721 -0.1657 -0.1141
  245loPI   PO4 3908  17.322  10.103   9.818  0.1171 -0.3213 -0.1288
  245loPI   GL1 3909  17.431  10.380   9.441  0.1299 -0.3004 -0.0123
  245loPI   GL2 3910  17.347  10.478   9.187 -0.1440 -0.2779 -0.4036
  245loPI   C1A 3911  17.197  10.079   9.101  0.0151 -0.1827  0.1518
  245loPI   C2A 3912  16.902  10.391   8.661 -0.1558  0.1784  0.0936
  245loPI   C3A 3913  16.722  10.766   8.577 -0.0174 -0.2401  0.1384
  245loPI   C4A 3914  16.403  10.985   8.339  0.0728  0.0722  0.0952
  245loPI   C5A 3915  16.232  11.384   8.452 -0.1412  0.1798 -0.1088
  245loPI   C6A 3916  16.113  11.878   8.377 -0.0159 -0.0775 -0.0820
  245loPI   C1B 3917  17.399  10.450   8.730 -0.2208  0.1130 -0.2285
  245loPI   C2B 3918  17.397  10.561   8.284  0.0440  0.1189  0.1167
  245loPI   C3B 3919  17.379  10.606   7.813 -0.1734 -0.3129  0.2349
  245loPI   C4B 3920  17.445  10.469   7.424 -0.1795  0.0896  0.0768
  246loPI    C1 3921   7.883  14.285   9.511  0.0618 -0.1203 -0.1207
  246loPI    C2 3922   7.911  14.131   9.879  0.1270 -0.1549 -0.1400
  246loPI    C3 3923   7.553  14.234   9.732  0.1093 -0.0668 -0.0368
  246loPI   PO4 3924   8.038  14.496   9.498 -0.1216  0.1180 -0.0344
  246loPI   GL1 3925   7.880  14.841   9.351 -0.1119 -0.0391  0.0470
  246loPI   GL2 3926   7.583  14.774   9.355  0.1254  0.0166  0.1878
  246loPI   C1A 3927   7.801  14.698   8.893  0.1924  0.1267  0.1024
  246loPI   C2A 3928   7.660  14.377   8.698  0.0171  0.1343  0.0999
  246loPI   C3A 3929   7.550  14.299   8.353 -0.1161 -0.0160  0.1059
  246loPI   C4A 3930   7.698  14.098   8.074 -0.1810  0.2552 -0.3332
  246loPI   C5A 3931   7.740  14.317   7.627  0.1390  0.0170  0.0144
  246loPI   C6A 3932   7.679  14.594   7.281 -0.2127 -0.0557  0.2369
  246loPI   C1B 3933   7.351  14.855   9.037  0.4181  0.0897  0.1589
  246loPI   C2B 3934   7.361  14.714   8.565  0.0166  0.1638 -0.1718
  246loPI   C3B 3935   7.166  14.774   8.199 -0.0016 -0.2000  0.3194
  246loPI   C4B 3936   7.326  14.626   7.877 -0.4970 -0.2587 -0.1243
  247loPI    C1 3937  14.128  16.660  10.596  0.0030 -0.0492 -0.0779
  247loPI    C2 3938  13.928  17.006  10.606  0.0798 -0.0097  0.1737
  247loPI    C3 3939  14.049  16.836  10.947  0.0094 -0.3050  0.0542
  247loPI   PO4 3940  14.071  16.577  10.417 -0.0673 -0.0765  0.0623
  247loPI   GL1 3941  14.039  16.732  10.078 -0.0475 -0.2547  0.2549
  247loPI   GL2 3942  14.322  16.920  10.049  0.0444  0.1276 -0.1167
  247loPI   C1A 3943  13.765  16.692   9.680 -0.0770  0.3819  0.0110
  247loPI   C2A 3944  13.665  16.929   9.250  0.0017 -0.0063  0.1611
  247loPI   C3A 3945  13.366  17.210   8.934  0.2146  0.0122 -0.4087
  247loPI   C4A 3946  13.259  17.203   8.422 -0.1240  0.0332 -0.4920
  247loPI   C5A 3947  12.964  16.950   8.151 -0.0863 -0.2123 -0.0354
  247loPI   C6A 3948  12.718  16.534   8.007 -0.1561 -0.0239 -0.1475
  247loPI   C1B 3949  14.438  17.334   9.806 -0.1007  0.0402 -0.3284
  247loPI   C2B 3950  14.302  17.617   9.546 -0.4074  0.4078  0.0717
  247loPI   C3B 3951  14.211  17.753   9.075  0.6887 -0.2430 -0.0591
  247loPI   C4B 3952  14.471  17.729   8.684 -0.3893 -0.1135 -0.4775
  248loPI    C1 3953   5.295   1.776  10.546 -0.3616  0.0918  0.1412
  248loPI    C2 3954   5.388   1.406  10.427  0.0044  0.2386 -0.0452
  248loPI    C3 3955   5.415   1.504  10.814 -0.2498  0.0289  0.0285
  248loPI   PO4 3956   5.148   1.829  10.335 -0.0858  0.2206  0.2948
  248loPI   GL1 3957   5.117   1.731   9.794 -0.0345  0.1823  0.1509
  248loPI   GL2 3958   5.401   1.702   9.671  0.0255 -0.1791 -0.0363
  248loPI   C1A 3959   4.867   1.874   9.350 -0.3055 -0.0746  0.1415
  248loPI   C2A 3960   4.739   2.009   8.949  0.0312 -0.0857 -0.0121
  248loPI   C3A 3961   4.706   2.024   8.463  0.0929 -0.0020  0.0892
  248loPI   C4A 3962   4.666   1.599   8.248  0.4703  0.0524  0.1815
  248loPI   C5A 3963   4.656   1.453   7.799 -0.0834 -0.0989 -0.0679
  248loPI   C6A 3964   4.616   1.273   7.339  0.1955  0.2130 -0.1681
  248loPI   C1B 3965   5.393   1.716   9.208 -0.1443  0.1704  0.3650
  248loPI   C2B 3966   5.631   1.887   8.893 -0.3890  0.1792  0.0293
  248loPI   C3B 3967   5.904   1.976   8.608 -0.1426 -0.1041 -0.0263
  248loPI   C4B 3968   5.882   1.837   8.082 -0.0630 -0.0222  0.0540
  249loPI    C1 3969  10.514   3.490  10.907  0.1150  0.1564 -0.1259
  249loPI    C2 3970  10.423   3.868  11.001  0.0753  0.0948  0.0892
  249loPI    C3 3971  10.646   3.649  11.250  0.0282 -0.0499  0.0054
  249loPI   PO4 3972  10.648   3.493  10.735  0.0481 -0.0255 -0.0016
  249loPI   GL1 3973  10.706   3.440  10.261 -0.1915  0.0366  0.0615
  249loPI   GL2 3974  10.488   3.544  10.177  0.0632  0.0213 -0.0167
  249loPI   C1A 3975  11.001   3.150   9.966 -0.1914 -0.1606 -0.1588
  249loPI   C2A 3976  11.164   2.958   9.651  0.0367  0.2432  0.0210
  249loPI   C3A 3977  11.084   3.052   9.229 -0.0147  0.1179  0.1448
  249loPI   C4A 3978  11.168   3.173   8.758 -0.2341  0.3115 -0.2007
  249loPI   C5A 3979  10.838   3.141   8.408 -0.2557  0.1956  0.1115
  249loPI   C6A 3980  10.576   2.883   8.057  0.0481  0.1522 -0.1632
  249loPI   C1B 3981  10.517   3.743   9.838  0.2307 -0.0061 -0.0310
  249loPI   C2B 3982  10.782   3.573   9.581 -0.1353 -0.2266  0.0590
  249loPI   C3B 3983  10.798   3.464   9.099  0.1462  0.0294 -0.2783
  249loPI   C4B 3984  10.569   3.399   8.768 -0.0074  0.0380 -0.0609
  250loPI    C1 3985   4.918  14.267   9.928  0.1587  0.0307  0.0940
  250loPI    C2 3986   4.530  14.181   9.880  0.0980  0.2828  0.1208
  250loPI    C3 3987   4.651  14.386  10.201  0.2621  0.1580  0.1404
  250loPI   PO4 3988   4.996  14.151   9.679  0.1694 -0.0514 -0.0046
  250loPI   GL1 3989   4.934  13.864   9.298 -0.4238 -0.0460  0.3115
  250loPI   GL2 3990   5.262  14.005   9.164 -0.0028 -0.0832  0.0762
  250loPI   C1A 3991   4.736  13.911   8.887  0.2536 -0.2866  0.1293
  250loPI   C2A 3992   4.526  13.851   8.495  0.2680  0.1440  0.4359
  250loPI   C3A 3993   4.408  13.759   8.006  0.0824 -0.0097 -0.1659
  250loPI   C4A 3994   4.217  13.654   7.649 -0.0560 -0.3642 -0.1823
  250loPI   C5A 3995   3.988  13.806   7.236 -0.1275 -0.0508  0.1256
  250loPI   C6A 3996   3.873  13.629   6.894 -0.1682 -0.2411 -0.0428
  250loPI   C1B 3997   5.232  13.949   8.739 -0.0344  0.0920  0.2455
  250loPI   C2B 3998   5.018  13.872   8.369 -0.2993 -0.0626  0.1249
  250loPI   C3B 3999   4.839  14.213   8.004 -0.1341 -0.0691 -0.0811
  250loPI   C4B 4000   4.793  14.223   7.553 -0.1791 -0.0501  0.2861
  251loPI    C1 4001   5.693  16.003   9.795 -0.2369 -0.1286 -0.0712
  251loPI    C2 4002   5.703  15.729   9.503  0.0707 -0.2014  0.0050
  251loPI    C3 4003   6.041  15.837   9.689 -0.0705  0.1145  0.0848
  251loPI   PO4 4004   5.514  16.197   9.712 -0.0294  0.1145  0.1938
  251loPI   GL1 4005   5.557  16.238   9.253 -0.3902  0.0913 -0.0470
  251loPI   GL2 4006   5.738  16.540   9.101  0.2604  0.3305  0.0655
  251loPI   C1A 4007   5.313  16.118   8.944  0.2098 -0.2442 -0.2174
  251loPI   C2A 4008   5.235  16.358   8.517  0.1396  0.3710  0.1081
  251loPI   C3A 4009   5.079  16.470   8.176 -0.0113 -0.0331 -0.1316
  251loPI   C4A 4010   4.922  16.480   7.733 -0.3123 -0.2812  0.3348
  251loPI   C5A 4011   4.531  16.505   7.617  0.2056  0.0236  0.1402
  251loPI   C6A 4012   4.373  16.922   7.551 -0.0644  0.0266  0.0217
  251loPI   C1B 4013   5.735  16.460   8.684  0.0956 -0.4386  0.0265
  251loPI   C2B 4014   5.629  16.671   8.293 -0.1821 -0.1311 -0.1391
  251loPI   C3B 4015   5.448  17.018   8.035  0.2867  0.0102 -0.0753
  251loPI   C4B 4016   5.410  17.343   7.778  0.0206  0.1571  0.2112
  252loPI    C1 4017  16.156   1.784  11.064 -0.1021  0.0260 -0.2055
  252loPI    C2 4018  15.825   1.728  11.281 -0.0322 -0.0616 -0.1203
  252loPI    C3 4019  16.046   2.058  11.334  0.1644 -0.2373  0.1810
  252loPI   PO4 4020  16.049   1.691  10.827  0.2352  0.0176 -0.1673
  252loPI   GL1 4021  15.741   1.808  10.422  0.1661  0.1850  0.0317
  252loPI   GL2 4022  15.387   1.784  10.467  0.0034  0.2322 -0.1402
  252loPI   C1A 4023  15.628   1.711   9.969  0.0962  0.2006 -0.1053
  252loPI   C2A 4024  15.506   1.439   9.632 -0.0396  0.1823 -0.0723
  252loPI   C3A 4025  15.549   1.462   9.194 -0.4202 -0.3154 -0.2059
  252loPI   C4A 4026  15.371   1.676   8.870 -0.0552 -0.0652 -0.0576
  252loPI   C5A 4027  15.354   1.968   8.531 -0.3560  0.4014 -0.0495
  252loPI   C6A 4028  15.154   2.318   8.316 -0.0732  0.0569  0.3389
  252loPI   C1B 4029  15.183   1.750  10.141 -0.2576 -0.2952 -0.0621
  252loPI   C2B 4030  15.053   1.707   9.720  0.0486  0.0581  0.1214
  252loPI   C3B 4031  15.053   1.699   9.366 -0.3124 -0.1193  0.1413
  252loPI   C4B 4032  14.899   1.682   8.941 -0.0049 -0.0643  0.1793
  253loPI    C1 4033  15.451   8.505   9.977  0.1044 -0.2889 -0.0489
  253loPI    C2 4034  15.666   8.625  10.293 -0.0223 -0.1539 -0.0130
  253loPI    C3 4035  15.528   8.249  10.275  0.0460 -0.1825  0.0585
  253loPI   PO4 4036  15.293   8.631   9.740 -0.2481  0.1518 -0.1796
  253loPI   GL1 4037  14.998   8.699   9.325  0.0302 -0.0347 -0.1220
  253loPI   GL2 4038  15.015   9.050   9.180  0.0906  0.0218  0.1935
  253loPI   C1A 4039  15.112   8.399   8.899 -0.3422  0.0311 -0.0690
  253loPI   C2A 4040  15.082   8.099   8.413 -0.3697  0.1456  0.0443
  253loPI   C3A 4041  15.122   7.768   8.252 -0.0082  0.0043 -0.2757
  253loPI   C4A 4042  14.865   7.516   7.894  0.1344 -0.1407  0.0995
  253loPI   C5A 4043  14.499   7.496   7.854 -0.0689  0.0575  0.0169
  253loPI   C6A 4044  14.144   7.457   7.792 -0.2150  0.0433 -0.0299
  253loPI   C1B 4045  14.703   9.329   8.991 -0.0078 -0.0057 -0.0690
  253loPI   C2B 4046  14.624   9.468   8.636  0.3355  0.1371 -0.3511
  253loPI   C3B 4047  14.743   9.700   8.290 -0.5824 -0.1665 -0.1238
  253loPI   C4B 4048  15.182   9.679   8.097 -0.0283 -0.0513  0.1212
  254loPI    C1 4049  17.624   1.682  10.532  0.3981 -0.2123 -0.2006
  254loPI    C2 4050  17.777   1.955  10.781 -0.1672 -0.0171 -0.0495
  254loPI    C3 4051  17.818   1.566  10.862 -0.2671  0.0429  0.3047
  254loPI   PO4 4052  17.343   1.688  10.539 -0.2616  0.0006  0.2635
  254loPI   GL1 4053  17.117   1.962  10.221  0.2393  0.0345  0.0096
  254loPI   GL2 4054  16.971   2.021  10.398  0.0237  0.2542  0.1738
  254loPI   C1A 4055  17.029   1.909   9.780  0.4062  0.0445 -0.0022
  254loPI   C2A 4056  16.844   1.830   9.479 -0.1616  0.3915  0.0504
  254loPI   C3A 4057  16.847   1.718   9.010  0.0795  0.5873  0.0627
  254loPI   C4A 4058  16.688   1.389   8.715 -0.0674  0.2454  0.0287
  254loPI   C5A 4059  16.723   1.295   8.319  0.1769 -0.1436  0.2633
  254loPI   C6A 4060  16.963   0.984   8.102 -0.3004 -0.1088  0.0269
  254loPI   C1B 4061  16.688   1.668  10.069 -0.2492  0.0645  0.2119
  254loPI   C2B 4062  16.423   1.579   9.671 -0.2487 -0.3664  0.0685
  254loPI   C3B 4063  16.407   1.607   9.244  0.1037  0.0033  0.1396
  254loPI   C4B 4064  16.364   1.708   8.747  0.0471 -0.0390 -0.0854
  255loPI    C1 4065   3.601   2.670  10.502  0.0663  0.1701  0.1928
  255loPI    C2 4066   3.866   2.669  10.802 -0.1006  0.1264  0.3421
  255loPI    C3 4067   3.806   3.002  10.589  0.1836  0.0946  0.2078
  255loPI   PO4 4068   3.656   2.412  10.300  0.3189  0.1924 -0.0441
  255loPI   GL1 4069   3.456   2.399   9.941  0.4229  0.0846 -0.0862
  255loPI   GL2 4070   3.291   2.184  10.020 -0.1153  0.0740 -0.1562
  255loPI   C1A 4071   3.140   2.406   9.640  0.0832 -0.0775 -0.0413
  255loPI   C2A 4072   3.139   2.299   9.249  0.1960  0.0906 -0.0460
  255loPI   C3A 4073   2.992   2.404   8.960 -0.4812  0.2699 -0.1056
  255loPI   C4A 4074   2.875   2.295   8.641 -0.0435 -0.3142  0.0709
  255loPI   C5A 4075   2.740   2.148   8.255 -0.3210 -0.4219  0.0673
  255loPI   C6A 4076   2.542   1.712   8.122  0.0373  0.1425 -0.1814
  255loPI   C1B 4077   2.992   1.949   9.645 -0.2523  0.1680  0.0991
  255loPI   C2B 4078   2.760   1.565   9.475 -0.1038 -0.1155  0.1867
  255loPI   C3B 4079   2.883   1.206   9.191  0.1567 -0.2209 -0.3025
  255loPI   C4B 4080   3.201   0.878   9.123 -0.2554 -0.0146  0.2546
  256loPI    C1 4081  14.376   7.077  10.868  0.1276 -0.0671  0.1150
  256loPI    C2 4082  14.219   6.744  11.026 -0.2452  0.2027  0.3293
  256loPI    C3 4083  14.602   6.835  11.093 -0.0913 -0.2643  0.1275
  256loPI   PO4 4084  14.306   6.992  10.596 -0.0835 -0.0398 -0.1086
  256loPI   GL1 4085  14.274   6.776  10.178 -0.0020  0.3699  0.1418
  256loPI   GL2 4086  14.419   6.621   9.976 -0.0987 -0.1384 -0.0439
  256loPI   C1A 4087  13.960   6.595   9.785  0.1346  0.0116 -0.0134
  256loPI   C2A 4088  13.804   6.718   9.347 -0.0473  0.3800  0.0085
  256loPI   C3A 4089  13.999   6.673   8.890  0.2797 -0.1859  0.2514
  256loPI   C4A 4090  14.066   6.519   8.502  0.4505  0.3377 -0.1369
  256loPI   C5A 4091  14.060   6.291   8.081 -0.4126  0.2477 -0.0042
  256loPI   C6A 4092  14.405   6.181   7.704 -0.1163 -0.2283 -0.0873
  256loPI   C1B 4093  14.365   6.916   9.625  0.1335 -0.1565  0.2231
  256loPI   C2B 4094  14.373   6.982   9.143 -0.0532 -0.0844  0.0318
  256loPI   C3B 4095  14.149   7.159   8.752  0.4722  0.0828 -0.0465
  256loPI   C4B 4096  14.370   6.902   8.400  0.1095  0.0967 -0.2214
  257loPI    C1 4097   6.546  16.734  10.079  0.1327 -0.1655  0.0324
  257loPI    C2 4098   6.586  16.708  10.476  0.0473  0.2050  0.0687
  257loPI    C3 4099   6.784  16.990  10.273 -0.0816  0.1588 -0.1245
  257loPI   PO4 4100   6.587  16.593   9.930  0.1383  0.0880 -0.0473
  257loPI   GL1 4101   6.532  16.456   9.533 -0.0185 -0.3581  0.3716
  257loPI   GL2 4102   6.380  16.567   9.304 -0.0077 -0.0731 -0.0635
  257loPI   C1A 4103   6.788  16.360   9.280 -0.0912 -0.0830  0.2536
  257loPI   C2A 4104   6.636  16.523   8.879 -0.0927  0.1454 -0.1390
  257loPI   C3A 4105   6.762  16.687   8.391 -0.0997 -0.1009 -0.3540
  257loPI   C4A 4106   6.929  16.836   8.023  0.0774  0.2700  0.1320
  257loPI   C5A 4107   7.305  17.014   7.815  0.0045  0.0441  0.0433
  257loPI   C6A 4108   7.525  17.389   7.739 -0.1138 -0.0061 -0.0074
  257loPI   C1B 4109   6.144  16.559   8.911 -0.0472 -0.4533  0.1831
  257loPI   C2B 4110   6.088  16.684   8.440 -0.0937  0.2919 -0.2392
  257loPI   C3B 4111   6.061  16.672   7.976 -0.1410  0.0816  0.0462
  257loPI   C4B 4112   6.420  16.734   7.784 -0.0512  0.2547  0.2401
  258loPI    C1 4113  18.195   3.282  10.692 -0.2350  0.1285  0.2542
  258loPI    C2 4114  18.077   3.087  11.020  0.1088 -0.2403  0.1675
  258loPI    C3 4115  18.431   3.274  11.015  0.0687 -0.1669  0.0326
  258loPI   PO4 4116  18.074   3.298  10.497  0.1779 -0.1487 -0.2409
  258loPI   GL1 4117  18.229   3.076  10.120  0.2843 -0.1979 -0.1938
  258loPI   GL2 4118  18.367   3.301   9.953 -0.1660 -0.3320 -0.0227
  258loPI   C1A 4119  18.025   3.037   9.715 -0.0144  0.1487  0.1751
  258loPI   C2A 4120  17.749   3.269   9.483 -0.0558 -0.2458 -0.2508
  258loPI   C3A 4121  17.394   3.080   9.254  0.1547  0.4324 -0.0924
  258loPI   C4A 4122  17.427   3.009   8.812  0.2086  0.2392  0.3440
  258loPI   C5A 4123  17.129   2.922   8.531 -0.0784 -0.0729 -0.3355
  258loPI   C6A 4124  17.111   2.824   8.130  0.3161 -0.1940 -0.3630
  258loPI   C1B 4125  18.439   3.383   9.537  0.0153  0.1360  0.3000
  258loPI   C2B 4126  18.303   3.166   9.179  0.1728 -0.0660 -0.5457
  258loPI   C3B 4127  18.472   3.011   8.845  0.4370 -0.3353  0.1387
  258loPI   C4B 4128  18.629   3.030   8.485  0.1023 -0.3070 -0.0690
  259loPI    C1 4129   0.602  10.917  10.488  0.2229  0.0962  0.0573
  259loPI    C2 4130   0.551  10.693  10.815 -0.0835  0.0609 -0.0114
  259loPI    C3 4131   0.894  10.891  10.760  0.0164 -0.0283  0.2711
  259loPI   PO4 4132   0.570  10.794  10.223  0.0344 -0.1609 -0.1279
  259loPI   GL1 4133   0.337  10.876   9.841  0.0902 -0.4688  0.1281
  259loPI   GL2 4134   0.391  11.183   9.643  0.0737 -0.1348 -0.1510
  259loPI   C1A 4135  -0.081  10.872   9.547  0.2124  0.0665  0.2696
  259loPI   C2A 4136  -0.314  10.767   9.233 -0.3436 -0.0386 -0.3207
  259loPI   C3A 4137  -0.441  10.665   8.819 -0.1846  0.0092  0.3140
  259loPI   C4A 4138  -0.542  10.636   8.355 -0.1597  0.0331  0.4768
  259loPI   C5A 4139  -0.295  10.587   8.024  0.1561 -0.7049  0.4340
  259loPI   C6A 4140   0.073  10.404   7.694  0.0548  0.4668 -0.0833
  259loPI   C1B 4141   0.378  10.946   9.323 -0.1308 -0.2749 -0.0120
  259loPI   C2B 4142   0.102  10.860   8.850 -0.0976  0.0232 -0.2139
  259loPI   C3B 4143  -0.032  10.663   8.496 -0.0540  0.0059  0.0908
  259loPI   C4B 4144  -0.004  10.296   8.292 -0.2981  0.1139  0.1739
  260loPI    C1 4145  16.620   7.359  10.016  0.0592  0.0424 -0.2821
  260loPI    C2 4146  16.546   7.752  10.012  0.1654  0.0663 -0.0672
  260loPI    C3 4147  16.592   7.561  10.360  0.1518 -0.1302 -0.1718
  260loPI   PO4 4148  16.844   7.337   9.895 -0.0955 -0.3240  0.1556
  260loPI   GL1 4149  16.999   7.235   9.486  0.1483 -0.1918 -0.0512
  260loPI   GL2 4150  17.263   7.197   9.314  0.0363 -0.0862  0.1380
  260loPI   C1A 4151  16.803   7.119   9.090 -0.1290  0.2271  0.0857
  260loPI   C2A 4152  16.797   6.957   8.698 -0.3647  0.2574  0.1988
  260loPI   C3A 4153  16.801   7.045   8.253 -0.0881 -0.2254 -0.0362
  260loPI   C4A 4154  16.776   7.174   7.874  0.2457 -0.2671  0.3683
  260loPI   C5A 4155  16.619   7.231   7.441  0.0308  0.1364  0.1247
  260loPI   C6A 4156  16.559   7.083   7.065  0.2829  0.0186  0.3975
  260loPI   C1B 4157  17.282   7.301   8.803  0.3101 -0.0658  0.2238
  260loPI   C2B 4158  17.605   7.374   8.417  0.3098  0.2110  0.0002
  260loPI   C3B 4159  17.737   7.393   8.014  0.1082  0.2023  0.2136
  260loPI   C4B 4160  17.450   7.293   7.653 -0.0339  0.0934 -0.0341
  261loPI    C1 4161   4.685   1.715  10.560 -0.0704 -0.4110  0.0669
  261loPI    C2 4162   4.388   1.818  10.807  0.0522  0.0436  0.0349
  261loPI    C3 4163   4.702   1.611  10.945 -0.0148  0.0466  0.1938
  261loPI   PO4 4164   4.568   1.697  10.316  0.3069 -0.1170 -0.1476
  261loPI   GL1 4165   4.497   1.974  10.008 -0.1230  0.1146  0.1949
  261loPI   GL2 4166   4.811   2.084  10.077  0.0168  0.1815 -0.0073
  261loPI   C1A 4167   4.357   2.141   9.697  0.1742 -0.0186 -0.3301
  261loPI   C2A 4168   4.431   2.224   9.320  0.0986 -0.0935  0.2642
  261loPI   C3A 4169   4.303   2.362   8.918  0.1255 -0.1118 -0.0161
  261loPI   C4A 4170   4.281   2.423   8.537  0.3222 -0.0547  0.0080
  261loPI   C5A 4171   4.213   2.294   8.240 -0.1675 -0.4703  0.2983
  261loPI   C6A 4172   4.107   2.433   7.869  0.0065  0.3013  0.1566
  261loPI   C1B 4173   4.859   2.255   9.638  0.0151 -0.1175  0.1889
  261loPI   C2B 4174   4.872   2.355   9.252 -0.0440  0.0223 -0.1865
  261loPI   C3B 4175   4.829   2.498   8.842 -0.1714 -0.0937 -0.2440
  261loPI   C4B 4176   4.628   2.775   8.655  0.4428  0.0126  0.2775
  262loPI    C1 4177  13.567   4.668  10.820 -0.3214 -0.0333  0.0873
  262loPI    C2 4178  13.835   4.725  11.111 -0.0012  0.1768 -0.2398
  262loPI    C3 4179  13.467   4.596  11.200  0.1013  0.2037  0.2501
  262loPI   PO4 4180  13.772   4.567  10.631  0.1028  0.0990  0.0450
  262loPI   GL1 4181  14.042   4.502  10.289  0.2029  0.1165 -0.0409
  262loPI   GL2 4182  14.328   4.439  10.177  0.2857 -0.2822  0.0149
  262loPI   C1A 4183  13.826   4.654   9.880 -0.2363  0.1738 -0.0569
  262loPI   C2A 4184  13.900   4.704   9.500  0.0404 -0.1187  0.0418
  262loPI   C3A 4185  13.971   4.757   9.133 -0.1875  0.3003  0.1031
  262loPI   C4A 4186  13.697   4.832   8.718  0.3311  0.3022 -0.0708
  262loPI   C5A 4187  13.450   4.939   8.375  0.1729 -0.0032 -0.1063
  262loPI   C6A 4188  13.143   5.159   8.100  0.0322 -0.0686 -0.0791
  262loPI   C1B 4189  14.335   4.711   9.854 -0.4101 -0.3717 -0.2045
  262loPI   C2B 4190  14.538   4.896   9.559  0.0003 -0.2857 -0.0084
  262loPI   C3B 4191  14.420   5.175   9.142 -0.2906  0.0715  0.2710
  262loPI   C4B 4192  14.272   5.496   8.922  0.3267  0.1049 -0.0578
  263loPI    C1 4193   5.839   3.403  10.877  0.0583  0.0446 -0.0088
  263loPI    C2 4194   5.886   3.592  11.226 -0.1352  0.0265  0.0278
  263loPI    C3 4195   5.586   3.332  11.178 -0.0030 -0.1051 -0.0947
  263loPI   PO4 4196   5.783   3.645  10.656  0.0951 -0.1792 -0.0573
  263loPI   GL1 4197   5.829   3.699  10.257  0.0341  0.2186 -0.1011
  263loPI   GL2 4198   5.547   3.876  10.280 -0.1497 -0.2480  0.2282
  263loPI   C1A 4199   5.903   3.392   9.838 -0.0521  0.0876  0.1997
  263loPI   C2A 4200   5.893   3.394   9.384  0.0027 -0.1643 -0.0729
  263loPI   C3A 4201   6.195   3.733   9.209 -0.0230 -0.2246 -0.0401
  263loPI   C4A 4202   6.136   3.984   8.922 -0.1824  0.2455  0.1172
  263loPI   C5A 4203   6.067   4.173   8.569  0.1253 -0.0735 -0.0776
  263loPI   C6A 4204   6.085   4.095   8.147  0.1668  0.1212 -0.1525
  263loPI   C1B 4205   5.485   3.684   9.889  0.3537  0.0872 -0.0846
  263loPI   C2B 4206   5.468   3.655   9.509 -0.4095 -0.3147  0.0044
  263loPI   C3B 4207   5.463   3.747   9.098 -0.2363 -0.0315  0.2010
  263loPI   C4B 4208   5.762   3.699   8.713 -0.1864  0.2760  0.0302
  264loPI    C1 4209  13.497  10.029  10.144  0.2176  0.0506  0.1897
  264loPI    C2 4210  13.491  10.411  10.026  0.1176  0.0142  0.0751
  264loPI    C3 4211  13.735  10.297  10.322 -0.0791  0.2293  0.3246
  264loPI   PO4 4212  13.586   9.872   9.863 -0.0986 -0.0115 -0.1473
  264loPI   GL1 4213  13.413   9.824   9.423 -0.3533 -0.0369  0.0539
  264loPI   GL2 4214  13.445   9.496   9.528 -0.0357 -0.1591 -0.2734
  264loPI   C1A 4215  13.766   9.673   9.142 -0.0477 -0.1965 -0.0999
  264loPI   C2A 4216  13.747   9.574   8.644 -0.1682 -0.0439  0.2182
  264loPI   C3A 4217  13.393   9.700   8.364  0.3297  0.0129 -0.1315
  264loPI   C4A 4218  13.436   9.563   7.937 -0.3602  0.0341  0.0607
  264loPI   C5A 4219  13.703   9.230   7.671  0.0329 -0.2883  0.4734
  264loPI   C6A 4220  13.803   8.755   7.643 -0.3779  0.2728  0.1022
  264loPI   C1B 4221  13.851   9.283   9.490  0.1764 -0.2107  0.0105
  264loPI   C2B 4222  14.037   9.160   9.126  0.0954 -0.1730  0.0221
  264loPI   C3B 4223  14.281   9.128   8.732 -0.1286  0.6663  0.0063
  264loPI   C4B 4224  14.239   8.841   8.515  0.0541  0.2514 -0.2492
  265loPI    C1 4225   6.039  15.287  10.145 -0.0158  0.1912 -0.1272
  265loPI    C2 4226   6.387  15.174  10.305 -0.1087 -0.1087 -0.1303
  265loPI    C3 4227   6.124  15.382  10.524  0.0135 -0.0001 -0.0850
  265loPI   PO4 4228   6.033  15.358   9.865  0.1543  0.1251 -0.1363
  265loPI   GL1 4229   6.020  15.342   9.535 -0.0690 -0.0444 -0.0233
  265loPI   GL2 4230   5.883  15.079   9.417  0.0896  0.2119  0.0065
  265loPI   C1A 4231   5.996  15.508   9.161 -0.1856  0.2277  0.1386
  265loPI   C2A 4232   5.701  15.694   8.896 -0.0173  0.0697 -0.0578
  265loPI   C3A 4233   5.639  15.956   8.535  0.0424 -0.0009  0.0453
  265loPI   C4A 4234   5.403  15.951   8.137 -0.0291 -0.0632 -0.1605
  265loPI   C5A 4235   5.343  15.706   7.747 -0.2687  0.0410 -0.0528
  265loPI   C6A 4236   5.253  15.412   7.449  0.0957 -0.4119 -0.3413
  265loPI   C1B 4237   6.073  14.717   9.167  0.0754 -0.0571  0.0407
  265loPI   C2B 4238   5.903  14.681   8.817 -0.0737  0.1592  0.1061
  265loPI   C3B 4239   5.909  14.625   8.303  0.0093 -0.1431  0.0495
  265loPI   C4B 4240   5.998  14.638   7.856 -0.1560 -0.2848 -0.0156
  266loPI    C1 4241   9.826  10.630  10.184  0.1429  0.1230  0.0480
  266loPI    C2 4242   9.787  10.926  10.450  0.0444  0.1128  0.0457
  266loPI    C3 4243  10.074  10.650  10.497 -0.0012  0.0850  0.1656
  266loPI   PO4 4244   9.890  10.776   9.901 -0.0749 -0.2957  0.4205
  266loPI   GL1 4245   9.661  10.835   9.537  0.2546  0.0636  0.2645
  266loPI   GL2 4246   9.589  10.488   9.612 -0.1128 -0.1343 -0.2544
  266loPI   C1A 4247   9.906  10.901   9.173  0.0859  0.1436  0.0020
  266loPI   C2A 4248   9.745  11.118   8.749  0.0012  0.2238  0.0367
  266loPI   C3A 4249   9.761  11.234   8.303 -0.1306 -0.3828 -0.2740
  266loPI   C4A 4250   9.702  11.210   7.906 -0.0319  0.0835  0.3926
  266loPI   C5A 4251   9.407  11.330   7.538 -0.3767 -0.1944 -0.0537
  266loPI   C6A 4252   9.374  11.713   7.135  0.0197  0.2492 -0.1769
  266loPI   C1B 4253   9.841  10.369   9.244  0.1953  0.1794  0.3481
  266loPI   C2B 4254   9.960  10.203   8.837  0.0118  0.0057 -0.0884
  266loPI   C3B 4255   9.903  10.166   8.381  0.4657 -0.1098 -0.2140
  266loPI   C4B 4256   9.999  10.364   7.957  0.0882  0.1154  0.2713
  267loPI    C1 4257   3.334  18.160  10.271 -0.0294  0.3785 -0.0521
  267loPI    C2 4258   3.652  17.919  10.299 -0.2878  0.0140 -0.1758
  267loPI    C3 4259   3.682  18.304  10.404  0.0844 -0.1118  0.2032
  267loPI   PO4 4260   3.185  18.259   9.979  0.2026  0.3981 -0.0354
  267loPI   GL1 4261   3.190  18.267   9.435  0.2550 -0.1611 -0.3268
  267loPI   GL2 4262   3.260  17.953   9.502  0.0727 -0.2303  0.0417
  267loPI   C1A 4263   3.089  18.284   8.987 -0.0172 -0.0113 -0.1314
  267loPI   C2A 4264   2.844  18.189   8.772  0.1237  0.0631  0.0257
  267loPI   C3A 4265   2.758  18.386   8.463  0.0875  0.1038 -0.0875
  267loPI   C4A 4266   2.648  18.581   8.170  0.0573  0.0932 -0.0182
  267loPI   C5A 4267   2.213  18.782   8.020 -0.0114  0.0841  0.1627
  267loPI   C6A 4268   1.906  18.511   7.841  0.2157 -0.1375  0.2472
  267loPI   C1B 4269   3.273  17.773   8.996 -0.0990  0.2959 -0.0636
  267loPI   C2B 4270   3.030  17.694   8.599 -0.0161  0.1862  0.1413
  267loPI   C3B 4271   2.766  17.532   8.211 -0.3205  0.0157  0.0707
  267loPI   C4B 4272   2.612  17.268   7.950  0.0155  0.2402  0.2992
  268loPI    C1 4273  16.943  12.343  10.183  0.0208  0.0118 -0.1839
  268loPI    C2 4274  16.708  12.591  10.390 -0.1291  0.1003 -0.4547
  268loPI    C3 4275  16.872  12.274  10.570 -0.0756  0.2976 -0.1483
  268loPI   PO4 4276  16.862  12.308  10.002  0.3240 -0.0095 -0.3166
  268loPI   GL1 4277  16.528  12.374   9.607 -0.3009  0.1159 -0.3842
  268loPI   GL2 4278  16.596  12.659   9.739  0.1100  0.1182 -0.3313
  268loPI   C1A 4279  16.658  12.320   9.191 -0.2378 -0.1566  0.1725
  268loPI   C2A 4280  16.860  11.988   8.867  0.1311  0.0910  0.0388
  268loPI   C3A 4281  17.003  11.735   8.556  0.2599 -0.0409 -0.0204
  268loPI   C4A 4282  17.130  11.768   8.152 -0.1197 -0.0074 -0.1107
  268loPI   C5A 4283  17.487  11.790   8.055 -0.4241  0.1415 -0.0787
  268loPI   C6A 4284  17.854  11.981   7.957  0.1778  0.2611  0.2144
  268loPI   C1B 4285  16.501  12.819   9.208  0.0974 -0.1798  0.1159
  268loPI   C2B 4286  16.251  12.723   8.843  0.1284 -0.0190 -0.0090
  268loPI   C3B 4287  16.254  12.639   8.384 -0.1027 -0.0341  0.0789
  268loPI   C4B 4288  16.536  12.614   7.990  0.0646  0.2350  0.1664
  269loPI    C1 4289  13.543   7.643  10.455  0.2633 -0.0598 -0.2665
  269loPI    C2 4290  13.831   7.630  10.732  0.0744  0.1975 -0.0535
  269loPI    C3 4291  13.560   7.336  10.712  0.2744  0.0191 -0.1726
  269loPI   PO4 4292  13.675   7.627  10.149 -0.0609 -0.0361  0.1548
  269loPI   GL1 4293  13.895   7.590   9.774 -0.1159  0.1102 -0.1921
  269loPI   GL2 4294  13.569   7.880   9.685 -0.3616  0.0582  0.1466
  269loPI   C1A 4295  13.892   7.178   9.530  0.1953  0.1938  0.0139
  269loPI   C2A 4296  13.655   7.116   9.176 -0.0668 -0.0914  0.0254
  269loPI   C3A 4297  13.677   7.012   8.684  0.3446 -0.0319 -0.3374
  269loPI   C4A 4298  13.720   6.771   8.281  0.1822 -0.3016  0.1438
  269loPI   C5A 4299  13.565   6.427   7.985 -0.0184  0.3190 -0.2789
  269loPI   C6A 4300  13.657   6.156   7.677  0.2075  0.4556 -0.1190
  269loPI   C1B 4301  13.445   7.645   9.398 -0.1239 -0.1585  0.0242
  269loPI   C2B 4302  13.300   7.605   8.976  0.0442  0.2083  0.0499
  269loPI   C3B 4303  13.025   7.477   8.763 -0.1081 -0.0312 -0.1362
  269loPI   C4B 4304  12.831   7.233   8.404 -0.0950  0.0829  0.0908
  270loPI    C1 4305  10.731  15.679  10.006 -0.0345 -0.1338  0.1421
  270loPI    C2 4306  10.421  15.504  10.190  0.0263 -0.2929  0.0954
  270loPI    C3 4307  10.609  15.812  10.363 -0.3363 -0.0080 -0.0039
  270loPI   PO4 4308  10.892  15.374   9.929 -0.0659 -0.1051 -0.1715
  270loPI   GL1 4309  11.242  15.540   9.762 -0.2830  0.0269  0.2600
  270loPI   GL2 4310  10.993  15.722   9.612 -0.2253  0.2186  0.5029
  270loPI   C1A 4311  11.417  15.553   9.356  0.1082 -0.1061  0.0338
  270loPI   C2A 4312  11.543  15.640   9.028  0.1189 -0.1733  0.0586
  270loPI   C3A 4313  11.604  15.819   8.612  0.0225  0.1417 -0.0146
  270loPI   C4A 4314  11.633  16.154   8.262 -0.1153  0.0250  0.2516
  270loPI   C5A 4315  11.657  15.978   7.754 -0.2709 -0.1425 -0.1694
  270loPI   C6A 4316  11.283  15.969   7.406 -0.4340  0.0011 -0.0184
  270loPI   C1B 4317  10.963  15.719   9.219 -0.2161 -0.1889 -0.3730
  270loPI   C2B 4318  10.655  15.480   8.936 -0.2018  0.2495  0.1612
  270loPI   C3B 4319  10.437  15.464   8.605  0.2841 -0.1708  0.0313
  270loPI   C4B 4320  10.142  15.601   8.292  0.2304 -0.1836  0.0559
  271loPI    C1 4321   0.189   7.748  10.325 -0.0224 -0.1264  0.1117
  271loPI    C2 4322   0.514   7.916  10.487 -0.0517 -0.1069  0.1504
  271loPI    C3 4323   0.151   8.006  10.628 -0.0884  0.0287 -0.0268
  271loPI   PO4 4324   0.297   7.692  10.073  0.2837 -0.2379  0.0228
  271loPI   GL1 4325   0.652   7.775   9.652 -0.0080 -0.0760  0.1135
  271loPI   GL2 4326   0.842   7.688   9.284  0.0257 -0.1953  0.1083
  271loPI   C1A 4327   0.262   7.839   9.405  0.0040 -0.0090  0.3174
  271loPI   C2A 4328   0.164   8.085   9.020 -0.0948 -0.0032 -0.0557
  271loPI   C3A 4329   0.325   8.267   8.680  0.0081  0.0721  0.1073
  271loPI   C4A 4330   0.240   8.391   8.180  0.1046  0.0212  0.3377
  271loPI   C5A 4331   0.247   8.479   7.716  0.3459 -0.0771  0.2320
  271loPI   C6A 4332   0.048   8.473   7.289  0.2436 -0.0098  0.3376
  271loPI   C1B 4333   0.874   7.535   8.870  0.3225  0.0198 -0.0059
  271loPI   C2B 4334   0.925   7.490   8.427 -0.1201  0.2462  0.0967
  271loPI   C3B 4335   0.971   7.563   8.002  0.2924  0.1635  0.3061
  271loPI   C4B 4336   1.056   7.239   7.852 -0.0640  0.2612 -0.0633
  272loPI    C1 4337   0.450  13.174  10.154  0.1733 -0.3689  0.2189
  272loPI    C2 4338   0.225  13.253  10.475  0.2176  0.4610  0.0678
  272loPI    C3 4339   0.558  13.035  10.513 -0.1693 -0.0954  0.4346
  272loPI   PO4 4340   0.377  13.357   9.981  0.3476 -0.0415 -0.0722
  272loPI   GL1 4341   0.398  13.486   9.559 -0.1744 -0.0222  0.0069
  272loPI   GL2 4342   0.644  13.481   9.473  0.2223  0.3438 -0.0574
  272loPI   C1A 4343   0.241  13.757   9.351  0.3054 -0.0951  0.1534
  272loPI   C2A 4344  -0.236  13.833   9.187 -0.0702  0.1688  0.0740
  272loPI   C3A 4345  -0.357  13.851   8.789  0.2559 -0.0406  0.1387
  272loPI   C4A 4346  -0.458  13.867   8.431 -0.1026  0.3697  0.0250
  272loPI   C5A 4347  -0.566  13.883   8.010  0.1217 -0.2584 -0.1879
  272loPI   C6A 4348  -0.691  14.081   7.615  0.1564  0.1865 -0.0730
  272loPI   C1B 4349   0.625  13.505   9.091 -0.0480  0.1410 -0.0036
  272loPI   C2B 4350   0.467  13.552   8.683  0.0714 -0.0285  0.0503
  272loPI   C3B 4351   0.410  13.757   8.258 -0.0707 -0.0217 -0.0479
  272loPI   C4B 4352   0.280  13.986   7.960  0.3261 -0.1495 -0.0332
  273loPI    C1 4353   7.341   1.302  10.662 -0.0981  0.1043 -0.0572
  273loPI    C2 4354   6.977   1.154  10.589  0.0082 -0.3568  0.3005
  273loPI    C3 4355   7.069   1.288  10.954  0.0395  0.2537  0.0799
  273loPI   PO4 4356   7.417   1.446  10.390 -0.1733  0.5051 -0.0044
  273loPI   GL1 4357   7.688   1.446  10.057  0.0639  0.1592 -0.0052
  273loPI   GL2 4358   7.751   1.683   9.986  0.3124 -0.2557  0.1022
  273loPI   C1A 4359   7.821   1.137   9.752 -0.1381  0.0307 -0.1721
  273loPI   C2A 4360   7.894   1.184   9.398 -0.0259 -0.1018 -0.0050
  273loPI   C3A 4361   7.692   1.182   8.953 -0.0577  0.3181  0.0157
  273loPI   C4A 4362   7.450   1.466   8.652  0.2198 -0.1415  0.1228
  273loPI   C5A 4363   7.392   1.600   8.251 -0.1353  0.0178  0.0780
  273loPI   C6A 4364   7.479   1.632   7.802  0.1589  0.1356 -0.0436
  273loPI   C1B 4365   7.633   1.643   9.568 -0.1287 -0.1798 -0.0365
  273loPI   C2B 4366   7.696   1.648   9.147 -0.0817 -0.4430 -0.0309
  273loPI   C3B 4367   7.677   1.863   8.747 -0.0131 -0.0017  0.2408
  273loPI   C4B 4368   7.298   1.998   8.543 -0.0539  0.3913  0.2267
  274loPI    C1 4369  17.749  12.441  10.159  0.0026  0.1456  0.1096
  274loPI    C2 4370  17.448  12.207  10.278  0.0580  0.0462  0.0555
  274loPI    C3 4371  17.380  12.503  10.018  0.0011  0.0438  0.0676
  274loPI   PO4 4372  17.892  12.317  10.020  0.1854  0.0980 -0.1052
  274loPI   GL1 4373  17.975  12.294   9.626  0.3468  0.3047  0.2509
  274loPI   GL2 4374  17.688  12.403   9.605  0.0448  0.0924 -0.1070
  274loPI   C1A 4375  17.942  12.083   9.251 -0.1550 -0.1743  0.2482
  274loPI   C2A 4376  17.807  12.114   8.867 -0.1280  0.3234  0.0559
  274loPI   C3A 4377  17.576  12.210   8.423 -0.1602 -0.0728 -0.1014
  274loPI   C4A 4378  17.499  12.412   7.989  0.2791  0.0554  0.1195
  274loPI   C5A 4379  17.644  12.629   7.713 -0.0397  0.1375  0.0438
  274loPI   C6A 4380  17.938  12.792   7.455  0.1496  0.2059 -0.1803
  274loPI   C1B 4381  17.424  12.251   9.225  0.1258  0.5176 -0.1775
  274loPI   C2B 4382  17.297  12.341   8.833  0.0454  0.4375  0.0426
  274loPI   C3B 4383  17.075  12.245   8.469  0.0328  0.0231  0.3177
  274loPI   C4B 4384  17.057  12.245   7.931  0.2786 -0.1382  0.1435
  275loPI    C1 4385   1.182   5.042  10.632 -0.1074 -0.1308  0.1067
  275loPI    C2 4386   0.923   5.032  10.936  0.0352  0.2922  0.2494
  275loPI    C3 4387   1.313   5.090  11.007  0.1924 -0.4086  0.0427
  275loPI   PO4 4388   1.019   4.853  10.398 -0.0608 -0.2911 -0.1590
  275loPI   GL1 4389   1.152   4.822  10.061  0.2549 -0.0599  0.0592
  275loPI   GL2 4390   0.969   4.540   9.815 -0.1696  0.4600 -0.0398
  275loPI   C1A 4391   1.310   4.936   9.609  0.1659  0.1738 -0.2180
  275loPI   C2A 4392   1.337   5.059   9.251 -0.1815 -0.0222 -0.1099
  275loPI   C3A 4393   1.402   5.273   8.869  0.2530  0.0387 -0.1697
  275loPI   C4A 4394   1.455   5.374   8.504  0.0761  0.2012 -0.0962
  275loPI   C5A 4395   1.830   5.518   8.180  0.1559 -0.3124  0.0085
  275loPI   C6A 4396   1.930   5.849   7.834  0.5666 -0.0253 -0.1360
  275loPI   C1B 4397   0.973   4.343   9.428 -0.0211 -0.0475 -0.0039
  275loPI   C2B 4398   0.830   4.163   9.107 -0.0650 -0.4326 -0.1184
  275loPI   C3B 4399   0.840   3.883   8.728 -0.0645 -0.0334  0.0976
  275loPI   C4B 4400   0.534   3.847   8.352 -0.1099 -0.1512 -0.1236
  276loPI    C1 4401   4.212   8.744  10.263 -0.2051 -0.1392  0.0282
  276loPI    C2 4402   3.947   8.590  10.520 -0.0252  0.0316  0.3224
  276loPI    C3 4403   4.330   8.630  10.628  0.0647  0.0559  0.0051
  276loPI   PO4 4404   4.214   8.720  10.038 -0.2925 -0.0979 -0.2065
  276loPI   GL1 4405   4.355   8.794   9.576 -0.0763 -0.0699  0.1282
  276loPI   GL2 4406   4.072   8.618   9.497  0.1778 -0.3101  0.1096
  276loPI   C1A 4407   4.000   9.067   9.269  0.1140  0.1550  0.2281
  276loPI   C2A 4408   3.681   9.142   9.114 -0.0220  0.0534  0.0990
  276loPI   C3A 4409   3.359   9.106   8.753  0.1076  0.3031  0.0130
  276loPI   C4A 4410   3.338   8.903   8.348 -0.0673  0.0051  0.0902
  276loPI   C5A 4411   3.432   8.895   7.794  0.1904 -0.1168 -0.1540
  276loPI   C6A 4412   3.716   9.232   7.461 -0.1606  0.1520 -0.1791
  276loPI   C1B 4413   4.188   8.554   9.093  0.1392 -0.0510 -0.3078
  276loPI   C2B 4414   4.519   8.405   8.802  0.1605 -0.0576  0.1013
  276loPI   C3B 4415   4.716   8.361   8.438  0.1942 -0.0704 -0.3961
  276loPI   C4B 4416   4.637   8.233   7.970 -0.0474  0.0407 -0.2048
  277loPI    C1 4417  15.367   5.702  10.376 -0.0951 -0.2371 -0.3855
  277loPI    C2 4418  15.622   5.394  10.390 -0.0432 -0.1807  0.0511
  277loPI    C3 4419  15.575   5.630  10.710 -0.2935  0.0965 -0.1837
  277loPI   PO4 4420  15.183   5.626  10.086 -0.1251 -0.0611 -0.0867
  277loPI   GL1 4421  15.254   5.612   9.758  0.1830  0.2779 -0.1960
  277loPI   GL2 4422  15.480   5.331   9.739 -0.1195 -0.2883 -0.2267
  277loPI   C1A 4423  15.090   5.776   9.471 -0.2918  0.2336 -0.2527
  277loPI   C2A 4424  15.125   5.692   9.014 -0.1275 -0.0336  0.2405
  277loPI   C3A 4425  15.151   5.581   8.533 -0.0325  0.0238  0.1739
  277loPI   C4A 4426  15.249   5.714   8.142  0.0623 -0.3525  0.2660
  277loPI   C5A 4427  15.425   5.815   7.784  0.1975 -0.2996  0.0112
  277loPI   C6A 4428  15.756   5.969   7.645  0.0682 -0.0361  0.1310
  277loPI   C1B 4429  15.456   5.499   9.350 -0.1215  0.1544 -0.1643
  277loPI   C2B 4430  15.589   5.548   8.923  0.1256 -0.1202  0.2356
  277loPI   C3B 4431  15.646   5.706   8.452  0.2727 -0.2099  0.1383
  277loPI   C4B 4432  15.690   5.390   8.031  0.0293  0.0195  0.1126
  278loPI    C1 4433  17.749  14.236   9.845  0.0693 -0.0143  0.0159
  278loPI    C2 4434  17.720  14.066  10.205 -0.1930  0.2161  0.1073
  278loPI    C3 4435  17.939  14.397  10.158  0.0715  0.0282 -0.0072
  278loPI   PO4 4436  17.510  14.083   9.710 -0.1065 -0.2613 -0.2694
  278loPI   GL1 4437  17.403  13.896   9.286 -0.1659  0.0576 -0.2412
  278loPI   GL2 4438  17.521  14.264   9.190 -0.1344  0.0338 -0.0906
  278loPI   C1A 4439  17.242  13.570   8.948  0.1405 -0.2858 -0.1348
  278loPI   C2A 4440  17.014  13.409   8.563  0.0503  0.0759  0.0613
  278loPI   C3A 4441  16.718  13.433   8.199 -0.0448 -0.3216  0.1214
  278loPI   C4A 4442  16.583  13.635   8.043 -0.1903 -0.1605  0.3529
  278loPI   C5A 4443  16.208  13.803   7.780  0.1600  0.2875 -0.1385
  278loPI   C6A 4444  15.894  13.527   7.570 -0.1702 -0.0455 -0.3061
  278loPI   C1B 4445  17.407  14.044   8.749 -0.1562 -0.1646  0.0458
  278loPI   C2B 4446  17.375  14.297   8.389  0.3428  0.0738 -0.1247
  278loPI   C3B 4447  17.486  14.535   8.015  0.0831 -0.1017 -0.0060
  278loPI   C4B 4448  17.475  14.855   7.688  0.0019  0.1808  0.0988
  279loPI    C1 4449   2.095   4.091  10.851 -0.0439  0.0338  0.0020
  279loPI    C2 4450   2.255   3.877  11.149  0.1481 -0.0076 -0.1291
  279loPI    C3 4451   2.038   4.203  11.231  0.3270  0.0680  0.0516
  279loPI   PO4 4452   2.099   3.975  10.604 -0.1603  0.0372 -0.0242
  279loPI   GL1 4453   2.270   4.137  10.207 -0.1128 -0.0600  0.3633
  279loPI   GL2 4454   2.594   4.098  10.180  0.2808 -0.1020 -0.4181
  279loPI   C1A 4455   2.359   3.752   9.788  0.2557 -0.0546 -0.2010
  279loPI   C2A 4456   2.279   3.679   9.337  0.0208 -0.2838  0.2032
  279loPI   C3A 4457   2.288   3.759   8.900 -0.0824 -0.0930  0.1915
  279loPI   C4A 4458   2.569   3.787   8.632 -0.2138 -0.1405 -0.1640
  279loPI   C5A 4459   2.901   3.747   8.450 -0.3774  0.0751 -0.1555
  279loPI   C6A 4460   3.154   3.758   8.066 -0.4364  0.0465 -0.2995
  279loPI   C1B 4461   2.568   4.178   9.751  0.0475 -0.0826 -0.3161
  279loPI   C2B 4462   2.667   4.039   9.350  0.0894  0.0512 -0.0119
  279loPI   C3B 4463   2.787   4.125   8.934 -0.1782 -0.0931 -0.0705
  279loPI   C4B 4464   3.153   4.183   8.657  0.0198  0.4367 -0.0184
  280loPI    C1 4465   8.822   1.262  10.865 -0.0352 -0.1229  0.0157
  280loPI    C2 4466   8.810   1.647  10.971 -0.2846 -0.1090 -0.0585
  280loPI    C3 4467   8.750   1.362  11.246 -0.0006 -0.0999  0.0163
  280loPI   PO4 4468   8.986   1.233  10.689  0.2746  0.1663 -0.0960
  280loPI   GL1 4469   9.016   1.079  10.200  0.1498  0.4759  0.0184
  280loPI   GL2 4470   8.672   0.909  10.212 -0.0619  0.2275 -0.0308
  280loPI   C1A 4471   8.880   1.006   9.722  0.0883 -0.0067  0.0332
  280loPI   C2A 4472   8.950   1.154   9.235 -0.0563  0.2312 -0.1557
  280loPI   C3A 4473   8.754   1.319   8.939 -0.0741 -0.3632  0.3208
  280loPI   C4A 4474   8.635   1.072   8.715  0.3541  0.0235  0.3214
  280loPI   C5A 4475   8.407   0.904   8.316 -0.0096  0.2644 -0.1934
  280loPI   C6A 4476   8.064   0.851   8.086  0.0582 -0.0112 -0.3891
  280loPI   C1B 4477   8.688   0.605   9.896 -0.0512  0.3627  0.1892
  280loPI   C2B 4478   8.706   0.508   9.508 -0.1184  0.0961  0.0964
  280loPI   C3B 4479   8.577   0.700   9.116 -0.3751 -0.0746  0.2661
  280loPI   C4B 4480   8.527   0.578   8.742 -0.2320 -0.0505 -0.0938
  281loPI    C1 4481  15.123  13.030  10.348 -0.0733 -0.0844 -0.0434
  281loPI    C2 4482  15.083  12.670  10.519  0.1560 -0.0520  0.0823
  281loPI    C3 4483  15.276  12.963  10.711 -0.0013  0.1299 -0.0331
  281loPI   PO4 4484  15.145  12.885  10.049 -0.0141  0.1474  0.2353
  281loPI   GL1 4485  15.020  12.825   9.663 -0.1229 -0.1618  0.0561
  281loPI   GL2 4486  14.761  12.919   9.641  0.1388 -0.4914 -0.1623
  281loPI   C1A 4487  15.315  12.978   9.363  0.2295  0.2910  0.0201
  281loPI   C2A 4488  15.354  13.071   8.920 -0.3172 -0.2492 -0.0651
  281loPI   C3A 4489  15.135  12.920   8.512  0.2139 -0.0057  0.2591
  281loPI   C4A 4490  15.190  13.082   8.159  0.0837 -0.0422 -0.0863
  281loPI   C5A 4491  15.521  13.148   7.806 -0.0614 -0.1969  0.0946
  281loPI   C6A 4492  15.875  12.997   7.553 -0.1768  0.1438 -0.0804
  281loPI   C1B 4493  14.932  12.719   9.204 -0.1714 -0.1314  0.0093
  281loPI   C2B 4494  14.907  12.582   8.772 -0.2808 -0.1987  0.2745
  281loPI   C3B 4495  14.904  12.464   8.387  0.1212  0.2717  0.2454
  281loPI   C4B 4496  15.046  12.539   7.967 -0.2644 -0.1565  0.1991
  282loPI    C1 4497  13.093  11.920   9.961  0.2584 -0.2324  0.1317
  282loPI    C2 4498  12.941  11.551   9.992 -0.3162 -0.0086  0.0999
  282loPI    C3 4499  12.738  11.864  10.137  0.1236  0.3093  0.0492
  282loPI   PO4 4500  13.415  11.797   9.793 -0.2966 -0.1652  0.1232
  282loPI   GL1 4501  13.414  11.836   9.285 -0.2414  0.2038  0.1818
  282loPI   GL2 4502  13.595  11.667   9.313  0.1622  0.0494 -0.0728
  282loPI   C1A 4503  13.216  11.842   8.931 -0.1200 -0.0668 -0.0224
  282loPI   C2A 4504  13.024  11.575   8.624 -0.1408 -0.0897 -0.3175
  282loPI   C3A 4505  13.084  11.437   8.261  0.1598  0.1124  0.2420
  282loPI   C4A 4506  13.241  11.063   8.098  0.0519 -0.1205 -0.0641
  282loPI   C5A 4507  13.226  10.909   7.624  0.1850  0.2921  0.4950
  282loPI   C6A 4508  13.200  10.494   7.374  0.1067 -0.0519  0.0661
  282loPI   C1B 4509  13.487  11.362   9.002  0.0110  0.0459 -0.0182
  282loPI   C2B 4510  13.404  11.206   8.588 -0.2300 -0.0688  0.3968
  282loPI   C3B 4511  13.423  10.794   8.512  0.3665  0.1390 -0.2174
  282loPI   C4B 4512  13.561  10.489   8.295  0.1576 -0.1913 -0.1351
  283loPI    C1 4513  12.671   5.984  10.707 -0.3333 -0.0702  0.1392
  283loPI    C2 4514  12.624   5.695  10.980  0.0879 -0.1569  0.1266
  283loPI    C3 4515  12.834   6.023  11.070 -0.0895 -0.0133  0.0252
  283loPI   PO4 4516  12.683   5.657  10.470  0.0739  0.0503 -0.1662
  283loPI   GL1 4517  12.702   5.685   9.990 -0.1531 -0.1220  0.2484
  283loPI   GL2 4518  12.973   5.442   9.884 -0.3849 -0.1652 -0.0749
  283loPI   C1A 4519  12.544   5.581   9.492  0.2367 -0.2155 -0.0461
  283loPI   C2A 4520  12.661   5.783   9.109 -0.0576  0.0518 -0.0020
  283loPI   C3A 4521  12.550   5.846   8.731 -0.0909  0.1715  0.1585
  283loPI   C4A 4522  12.451   5.951   8.382  0.1046 -0.2051  0.0305
  283loPI   C5A 4523  12.470   5.643   8.039  0.0653 -0.1883  0.0059
  283loPI   C6A 4524  12.451   5.297   7.666 -0.1171  0.3659  0.0430
  283loPI   C1B 4525  13.042   5.308   9.483  0.1818 -0.2861  0.2144
  283loPI   C2B 4526  12.672   5.236   9.151  0.1096  0.1840  0.1907
  283loPI   C3B 4527  12.561   5.081   8.844  0.1290  0.0459  0.2541
  283loPI   C4B 4528  12.851   4.864   8.577  0.0797  0.0233 -0.0703
  284loPI    C1 4529  11.835   7.830  10.386  0.1157 -0.2452 -0.0001
  284loPI    C2 4530  11.945   8.002  10.731 -0.2120 -0.1119  0.0417
  284loPI    C3 4531  11.660   8.169  10.505  0.1778 -0.0567 -0.4270
  284loPI   PO4 4532  12.167   7.759  10.254  0.0152 -0.0249 -0.1095
  284loPI   GL1 4533  12.232   7.885   9.881  0.1236  0.1832  0.0800
  284loPI   GL2 4534  11.859   7.960   9.879 -0.1812  0.2461 -0.0467
  284loPI   C1A 4535  12.184   7.853   9.530  0.2339  0.3193 -0.1033
  284loPI   C2A 4536  12.180   7.579   9.169  0.1297  0.0179  0.0350
  284loPI   C3A 4537  12.000   7.577   8.639 -0.3140 -0.0195 -0.2202
  284loPI   C4A 4538  12.074   7.826   8.226 -0.2079  0.0100 -0.0985
  284loPI   C5A 4539  12.384   8.040   7.991 -0.1269  0.2721  0.0034
  284loPI   C6A 4540  12.305   8.376   7.634  0.3255 -0.2200  0.0133
  284loPI   C1B 4541  11.719   8.018   9.416  0.1690  0.1650  0.0798
  284loPI   C2B 4542  11.728   7.891   9.087  0.0946  0.3479  0.0205
  284loPI   C3B 4543  11.519   7.768   8.754 -0.1856  0.0059 -0.0119
  284loPI   C4B 4544  11.442   7.481   8.457 -0.2494  0.1388  0.0172
  285loPI    C1 4545  18.267  16.675  10.611  0.2445  0.0568  0.0240
  285loPI    C2 4546  17.929  16.865  10.514  0.2048 -0.0567 -0.0622
  285loPI    C3 4547  18.134  16.975  10.840  0.2392  0.2047 -0.1701
  285loPI   PO4 4548  18.396  16.657  10.360 -0.0003  0.3299  0.0336
  285loPI   GL1 4549  18.051  16.727   9.976  0.1641 -0.0679 -0.1090
  285loPI   GL2 4550  18.199  16.990   9.948 -0.1721 -0.0331 -0.2195
  285loPI   C1A 4551  17.736  16.884   9.712  0.3378 -0.1523 -0.1587
  285loPI   C2A 4552  17.636  17.071   9.297  0.2958  0.1726  0.2280
  285loPI   C3A 4553  17.551  17.106   8.734 -0.1111  0.4895 -0.0851
  285loPI   C4A 4554  17.437  17.096   8.388 -0.1082  0.1582 -0.0781
  285loPI   C5A 4555  17.349  16.973   8.038 -0.0493  0.1681 -0.2049
  285loPI   C6A 4556  17.612  16.688   7.864 -0.2187 -0.2209 -0.0788
  285loPI   C1B 4557  18.191  16.902   9.492 -0.2738 -0.1425 -0.1549
  285loPI   C2B 4558  18.170  17.158   9.150  0.2971 -0.3098 -0.1215
  285loPI   C3B 4559  18.257  17.148   8.694 -0.1883  0.1930 -0.1389
  285loPI   C4B 4560  18.347  16.926   8.244 -0.0615  0.1326 -0.1365
  286loPI    C1 4561   4.045   3.943  10.540 -0.0883 -0.1195  0.0685
  286loPI    C2 4562   3.788   4.216  10.680 -0.0794 -0.0989  0.0446
  286loPI    C3 4563   3.908   3.916  10.915  0.2408  0.1561  0.2142
  286loPI   PO4 4564   3.972   3.853  10.353 -0.2685 -0.0230  0.2195
  286loPI   GL1 4565   4.213   3.928   9.956 -0.4377 -0.0050  0.0537
  286loPI   GL2 4566   4.377   3.639  10.078 -0.2371  0.1007  0.1984
  286loPI   C1A 4567   4.207   4.017   9.533 -0.3075  0.2169  0.0327
  286loPI   C2A 4568   4.035   3.859   9.155  0.0675  0.1292 -0.1249
  286loPI   C3A 4569   4.107   3.987   8.723  0.0651 -0.0618  0.1585
  286loPI   C4A 4570   4.020   3.632   8.401  0.0730  0.4111 -0.0681
  286loPI   C5A 4571   4.276   3.415   8.059  0.0699  0.0498  0.1746
  286loPI   C6A 4572   4.733   3.281   8.046 -0.1961  0.1441  0.0948
  286loPI   C1B 4573   4.571   3.588   9.697 -0.0713 -0.2480 -0.0201
  286loPI   C2B 4574   4.571   3.696   9.310  0.2433  0.0219 -0.1316
  286loPI   C3B 4575   4.518   3.625   8.973 -0.1024  0.0820 -0.1300
  286loPI   C4B 4576   4.518   3.696   8.481  0.1851 -0.0751 -0.0545
  287loPI    C1 4577  12.053   8.497  10.959 -0.0615 -0.3031 -0.1724
  287loPI    C2 4578  11.751   8.281  11.108 -0.0901  0.0938  0.3736
  287loPI    C3 4579  12.129   8.162  11.165 -0.1223 -0.1273  0.1422
  287loPI   PO4 4580  11.936   8.534  10.724  0.4262  0.3106  0.1275
  287loPI   GL1 4581  11.802   8.616  10.228  0.0897 -0.1869  0.1049
  287loPI   GL2 4582  11.534   8.458  10.121  0.0687 -0.2269 -0.0049
  287loPI   C1A 4583  11.761   8.701   9.718  0.2075  0.1867 -0.3220
  287loPI   C2A 4584  11.734   8.585   9.323  0.2581  0.0814 -0.0954
  287loPI   C3A 4585  11.740   8.369   8.944 -0.1822 -0.0394 -0.0936
  287loPI   C4A 4586  11.805   8.220   8.534  0.2362  0.0592 -0.0956
  287loPI   C5A 4587  11.603   7.917   8.267 -0.0722 -0.1023 -0.1398
  287loPI   C6A 4588  11.626   7.675   7.983  0.1966 -0.1063  0.1388
  287loPI   C1B 4589  11.424   8.299   9.665  0.0384 -0.0776 -0.2234
  287loPI   C2B 4590  11.327   8.250   9.199  0.1049 -0.0279  0.3390
  287loPI   C3B 4591  11.274   8.158   8.782 -0.1365  0.0475  0.2290
  287loPI   C4B 4592  11.169   7.995   8.394  0.0552 -0.1609  0.1886
  288loPI    C1 4593   5.472   8.674  10.432  0.1263 -0.0265 -0.1537
  288loPI    C2 4594   5.642   8.780  10.777  0.0117 -0.0879 -0.0774
  288loPI    C3 4595   5.702   8.413  10.630  0.0819 -0.0528 -0.1365
  288loPI   PO4 4596   5.446   8.998  10.372  0.1090 -0.1569 -0.2499
  288loPI   GL1 4597   5.383   9.096   9.989 -0.1084  0.3379 -0.0476
  288loPI   GL2 4598   5.618   8.749   9.938 -0.0266 -0.1245  0.0151
  288loPI   C1A 4599   5.164   9.170   9.608 -0.4420 -0.3601  0.0462
  288loPI   C2A 4600   5.041   9.154   9.056 -0.0225  0.4571 -0.1349
  288loPI   C3A 4601   5.007   9.184   8.564  0.0191  0.1473 -0.3471
  288loPI   C4A 4602   4.963   9.381   8.138  0.0880 -0.0795  0.2224
  288loPI   C5A 4603   5.053   9.402   7.726  0.1789  0.1628 -0.0123
  288loPI   C6A 4604   4.827   9.487   7.358  0.1917 -0.0985  0.0638
  288loPI   C1B 4605   5.490   8.643   9.623  0.0888  0.1513  0.1909
  288loPI   C2B 4606   5.360   8.662   9.141  0.0329  0.2918 -0.2380
  288loPI   C3B 4607   5.128   8.741   8.684 -0.0138 -0.1220  0.3415
  288loPI   C4B 4608   4.995   8.788   8.253  0.2259 -0.2072 -0.1910
  289loPI    C1 4609  18.214   2.315  10.568  0.0285 -0.2874  0.1599
  289loPI    C2 4610  17.866   2.421  10.733 -0.0666 -0.2072 -0.0886
  289loPI    C3 4611  18.193   2.387  10.961 -0.1247  0.2121  0.0662
  289loPI   PO4 4612  18.106   2.003  10.425  0.1276 -0.0384 -0.1772
  289loPI   GL1 4613  17.907   2.030  10.040  0.0912 -0.1044 -0.0962
  289loPI   GL2 4614  17.630   1.833  10.011 -0.0121  0.2331  0.1475
  289loPI   C1A 4615  17.842   2.127   9.603  0.1277 -0.3227  0.0720
  289loPI   C2A 4616  17.849   2.338   9.243 -0.4053  0.0201 -0.1854
  289loPI   C3A 4617  17.880   2.269   8.787 -0.0081  0.1311 -0.0816
  289loPI   C4A 4618  17.930   2.053   8.360  0.0593  0.0465  0.1020
  289loPI   C5A 4619  18.073   1.798   8.024 -0.2948 -0.0822 -0.1124
  289loPI   C6A 4620  18.390   1.477   7.905  0.0635 -0.2254 -0.1875
  289loPI   C1B 4621  17.449   1.634   9.669 -0.1515 -0.1639 -0.0235
  289loPI   C2B 4622  17.301   1.573   9.210 -0.0537 -0.2490  0.0640
  289loPI   C3B 4623  17.234   1.530   8.716 -0.2843 -0.3398  0.2124
  289loPI   C4B 4624  17.356   1.341   8.277  0.3093 -0.0049  0.5258
  290loPI    C1 4625  12.300   1.274  10.770 -0.3635  0.0082 -0.2306
  290loPI    C2 4626  12.350   0.937  10.980  0.3955  0.0193 -0.3674
  290loPI    C3 4627  12.542   1.272  11.088 -0.2183  0.3744 -0.3326
  290loPI   PO4 4628  12.316   1.271  10.588 -0.0999 -0.2543  0.0428
  290loPI   GL1 4629  12.481   1.195  10.229  0.0043  0.1809 -0.2793
  290loPI   GL2 4630  12.129   1.172  10.157 -0.0388 -0.0475  0.1139
  290loPI   C1A 4631  12.517   1.349   9.853 -0.2553  0.0284  0.2741
  290loPI   C2A 4632  12.409   1.540   9.380 -0.2557  0.1537 -0.0977
  290loPI   C3A 4633  12.280   1.492   8.983  0.0734 -0.0811  0.1276
  290loPI   C4A 4634  12.076   1.349   8.556  0.2465 -0.0806  0.0628
  290loPI   C5A 4635  11.666   1.277   8.380  0.1127  0.1837  0.1955
  290loPI   C6A 4636  11.427   1.305   8.024  0.1361 -0.0570  0.0551
  290loPI   C1B 4637  12.075   1.287   9.711  0.1829  0.0130 -0.4282
  290loPI   C2B 4638  11.879   1.226   9.258 -0.0397 -0.0481  0.0487
  290loPI   C3B 4639  11.745   1.467   8.926  0.1173  0.4378 -0.0202
  290loPI   C4B 4640  11.476   1.775   8.599 -0.2343 -0.1427 -0.2319
  291loPI    C1 4641   8.811  12.265   9.841  0.1336 -0.1984  0.1144
  291loPI    C2 4642   9.034  12.594   9.883 -0.1103 -0.0305  0.1119
  291loPI    C3 4643   9.092  12.281  10.125  0.0819  0.0362  0.1539
  291loPI   PO4 4644   8.803  12.221   9.596 -0.2153  0.2077 -0.0829
  291loPI   GL1 4645   8.737  12.119   9.185  0.1680  0.1182 -0.1346
  291loPI   GL2 4646   8.369  12.173   9.330 -0.3350 -0.1473  0.1095
  291loPI   C1A 4647   8.924  11.917   8.865 -0.2014  0.1423 -0.1494
  291loPI   C2A 4648   8.959  11.922   8.408  0.0093  0.0952 -0.2183
  291loPI   C3A 4649   9.021  11.895   7.919  0.2213 -0.0236  0.2784
  291loPI   C4A 4650   8.956  11.934   7.525  0.2413  0.0753  0.3427
  291loPI   C5A 4651   9.157  12.200   7.147 -0.3143  0.0180  0.1530
  291loPI   C6A 4652   9.403  12.372   6.898  0.1238 -0.2617  0.2628
  291loPI   C1B 4653   8.535  12.428   8.860  0.3429  0.0370  0.2229
  291loPI   C2B 4654   8.572  12.307   8.404  0.2867  0.0630 -0.0539
  291loPI   C3B 4655   8.622  12.236   7.916 -0.0954 -0.2870  0.2957
  291loPI   C4B 4656   8.507  12.089   7.605  0.1757 -0.1932  0.1303
  292loPI    C1 4657  17.397  11.515   9.823 -0.0562 -0.1773 -0.0402
  292loPI    C2 4658  17.749  11.383   9.958 -0.0781 -0.2384 -0.0427
  292loPI    C3 4659  17.447  11.444  10.213 -0.0055  0.0051 -0.0128
  292loPI   PO4 4660  17.519  11.618   9.563  0.3661  0.0185 -0.1310
  292loPI   GL1 4661  17.216  11.781   9.254 -0.0230  0.2337  0.0620
  292loPI   GL2 4662  16.980  11.575   9.134 -0.1045  0.1101  0.2774
  292loPI   C1A 4663  17.378  11.880   8.839  0.3680  0.0822  0.1310
  292loPI   C2A 4664  17.757  11.635   8.429  0.1866 -0.1553  0.1740
  292loPI   C3A 4665  17.906  11.465   8.168 -0.0486 -0.1982  0.0763
  292loPI   C4A 4666  18.257  11.510   8.003 -0.3159  0.0116  0.2189
  292loPI   C5A 4667  18.658  11.464   7.849 -0.3456  0.0109 -0.0008
  292loPI   C6A 4668  19.080  11.436   7.894  0.0431 -0.1003  0.1190
  292loPI   C1B 4669  17.161  11.322   8.825 -0.1285  0.2277  0.0794
  292loPI   C2B 4670  17.360  11.361   8.472  0.4835  0.1848  0.0803
  292loPI   C3B 4671  17.251  11.217   8.063  0.2902 -0.1306  0.1625
  292loPI   C4B 4672  17.150  11.034   7.688  0.2525 -0.2391 -0.2812
  293loPI    C1 4673  12.576   7.975  10.408  0.0503  0.2187  0.0414
  293loPI    C2 4674  12.526   7.781  10.754  0.0447 -0.1054 -0.1373
  293loPI    C3 4675  12.397   8.158  10.715  0.1127 -0.0398  0.2350
  293loPI   PO4 4676  12.762   7.833  10.221 -0.1185  0.1636 -0.0853
  293loPI   GL1 4677  12.670   7.541   9.918  0.1356  0.2801 -0.0754
  293loPI   GL2 4678  12.782   7.219   9.976 -0.3204 -0.2800 -0.0443
  293loPI   C1A 4679  12.582   7.608   9.503  0.1213 -0.1667  0.0593
  293loPI   C2A 4680  12.662   7.704   9.020  0.3504  0.2762  0.2588
  293loPI   C3A 4681  12.570   7.695   8.539 -0.0568 -0.0456 -0.2772
  293loPI   C4A 4682  12.670   7.572   8.067  0.0529  0.3642 -0.0595
  293loPI   C5A 4683  12.909   7.797   7.817 -0.1394 -0.4048 -0.1090
  293loPI   C6A 4684  13.263   7.844   7.719 -0.2920  0.2412  0.0250
  293loPI   C1B 4685  12.837   7.180   9.642  0.0239  0.0647 -0.2366
  293loPI   C2B 4686  12.633   7.214   9.213  0.0059  0.1715  0.0709
  293loPI   C3B 4687  12.432   7.288   8.860  0.2890  0.0178  0.1654
  293loPI   C4B 4688  12.317   7.269   8.442 -0.3158 -0.0957  0.0715
  294loPI    C1 4689   8.456  16.219  10.005 -0.0768  0.0086 -0.1281
  294loPI    C2 4690   8.436  15.820   9.982  0.1531 -0.0281  0.2240
  294loPI    C3 4691   8.134  16.027  10.145  0.0272 -0.0546  0.0275
  294loPI   PO4 4692   8.558  16.283   9.882 -0.1205 -0.0649 -0.2262
  294loPI   GL1 4693   8.574  16.073   9.410  0.1914 -0.0489  0.1017
  294loPI   GL2 4694   8.709  16.375   9.397 -0.1768 -0.3553  0.0688
  294loPI   C1A 4695   8.475  15.741   9.107 -0.0022  0.1287  0.1716
  294loPI   C2A 4696   8.716  15.476   8.773 -0.1953  0.1685 -0.0936
  294loPI   C3A 4697   8.739  15.372   8.365 -0.1223 -0.0921  0.1519
  294loPI   C4A 4698   8.585  15.361   7.897  0.4158  0.0476 -0.3303
  294loPI   C5A 4699   8.334  15.220   7.502 -0.1428 -0.0695  0.2299
  294loPI   C6A 4700   8.042  14.962   7.386 -0.0789  0.0186 -0.3413
  294loPI   C1B 4701   8.723  16.189   8.941  0.0476 -0.0347 -0.1008
  294loPI   C2B 4702   8.776  16.099   8.444 -0.1253  0.2037 -0.1152
  294loPI   C3B 4703   8.602  16.226   8.034  0.2368  0.0153 -0.2825
  294loPI   C4B 4704   8.224  16.243   7.802 -0.3238 -0.3043 -0.2237
  295loPI    C1 4705  14.438  13.174   9.986  0.3480  0.1826  0.0546
  295loPI    C2 4706  14.604  13.361  10.298  0.3979 -0.0027  0.1405
  295loPI    C3 4707  14.670  12.970  10.241 -0.1590 -0.1276  0.2852
  295loPI   PO4 4708  14.458  13.349   9.795  0.0227  0.1460  0.1575
  295loPI   GL1 4709  14.408  13.516   9.445  0.0465  0.1032 -0.4724
  295loPI   GL2 4710  14.620  13.896   9.497 -0.2578  0.3862  0.0153
  295loPI   C1A 4711  14.478  13.693   9.024  0.0917  0.1823  0.0049
  295loPI   C2A 4712  14.740  13.685   8.612  0.2811  0.0457  0.0312
  295loPI   C3A 4713  14.849  13.610   8.208 -0.2018 -0.2529 -0.3219
  295loPI   C4A 4714  15.206  13.595   8.057 -0.1097  0.1143  0.0127
  295loPI   C5A 4715  15.618  13.603   8.158 -0.0120  0.0223  0.1688
  295loPI   C6A 4716  15.872  14.034   8.237 -0.1060  0.0579  0.1224
  295loPI   C1B 4717  14.900  13.718   9.243 -0.1904 -0.0971  0.2708
  295loPI   C2B 4718  15.145  13.599   8.962 -0.0339 -0.0777 -0.1378
  295loPI   C3B 4719  15.287  13.409   8.558 -0.1449 -0.2697 -0.0923
  295loPI   C4B 4720  15.571  13.233   8.460  0.1815  0.0362 -0.1509
  296loPI    C1 4721   4.663  11.267   9.648 -0.0325  0.1566 -0.0424
  296loPI    C2 4722   4.942  11.410   9.897 -0.1147  0.2498 -0.0031
  296loPI    C3 4723   4.555  11.487   9.964 -0.1522  0.0993 -0.0428
  296loPI   PO4 4724   4.680  11.270   9.400 -0.0862  0.1567  0.2025
  296loPI   GL1 4725   4.630  11.529   9.012  0.0343 -0.1709 -0.3632
  296loPI   GL2 4726   4.405  11.872   8.978 -0.3191  0.0244  0.0395
  296loPI   C1A 4727   4.496  11.672   8.562 -0.0359  0.3665 -0.2481
  296loPI   C2A 4728   4.550  11.582   8.144 -0.0483 -0.0719  0.2121
  296loPI   C3A 4729   4.708  11.564   7.710 -0.2315 -0.0755  0.2819
  296loPI   C4A 4730   4.505  11.670   7.256 -0.1495  0.0937 -0.1071
  296loPI   C5A 4731   4.522  12.119   7.283 -0.0911  0.2398 -0.1094
  296loPI   C6A 4732   4.416  12.436   7.636  0.0686  0.2938 -0.0246
  296loPI   C1B 4733   4.262  12.220   8.622  0.0703 -0.4724 -0.2828
  296loPI   C2B 4734   4.040  12.274   8.236 -0.0736 -0.1168 -0.1240
  296loPI   C3B 4735   3.818  12.121   7.902 -0.1034 -0.3787 -0.1612
  296loPI   C4B 4736   3.945  12.264   7.599 -0.2767 -0.0657 -0.0312
  297loPI    C1 4737   3.618   7.562  10.707 -0.1570 -0.1285 -0.2002
  297loPI    C2 4738   3.276   7.658  10.891 -0.0667 -0.0586 -0.0670
  297loPI    C3 4739   3.597   7.557  11.107 -0.0260 -0.2035 -0.1939
  297loPI   PO4 4740   3.490   7.592  10.432  0.1155 -0.0984 -0.5996
  297loPI   GL1 4741   3.324   7.521  10.076  0.1109 -0.0750 -0.2747
  297loPI   GL2 4742   3.658   7.306  10.037 -0.0684  0.3234 -0.1631
  297loPI   C1A 4743   3.447   7.648   9.757  0.2187 -0.2510  0.3745
  297loPI   C2A 4744   3.411   7.704   9.399  0.1343  0.1290 -0.3095
  297loPI   C3A 4745   3.450   7.900   8.948 -0.0657 -0.1323  0.2419
  297loPI   C4A 4746   3.348   7.874   8.564  0.2196  0.2245 -0.2452
  297loPI   C5A 4747   3.004   8.012   8.275  0.1753 -0.4105  0.0349
  297loPI   C6A 4748   2.688   8.138   8.045  0.1382  0.0451  0.2561
  297loPI   C1B 4749   3.726   7.255   9.608  0.0072 -0.2384  0.1175
  297loPI   C2B 4750   3.577   7.217   9.277  0.0390  0.1191  0.0189
  297loPI   C3B 4751   3.605   7.438   8.871  0.0471 -0.4230  0.0381
  297loPI   C4B 4752   3.825   7.761   8.555 -0.2063 -0.0608  0.0669
  298loPI    C1 4753   7.265  14.602   9.695 -0.1797 -0.0265  0.1098
  298loPI    C2 4754   7.055  14.584   9.355 -0.0686 -0.0619  0.0424
  298loPI    C3 4755   7.086  14.261   9.589 -0.0618 -0.0660  0.0356
  298loPI   PO4 4756   7.202  14.840   9.752 -0.3704 -0.0849  0.0037
  298loPI   GL1 4757   6.994  15.084   9.418 -0.0473  0.2605 -0.0534
  298loPI   GL2 4758   7.177  15.395   9.292 -0.3485 -0.3410 -0.2381
  298loPI   C1A 4759   6.854  15.040   9.056  0.2004  0.2620  0.0756
  298loPI   C2A 4760   7.084  15.096   8.663 -0.4836 -0.0107  0.1128
  298loPI   C3A 4761   7.226  15.376   8.360  0.0612  0.0020  0.0089
  298loPI   C4A 4762   7.181  15.511   7.914  0.2488 -0.0995  0.1398
  298loPI   C5A 4763   7.550  15.570   7.653 -0.1082 -0.1955  0.6167
  298loPI   C6A 4764   7.834  15.867   7.814 -0.1341 -0.0466 -0.1357
  298loPI   C1B 4765   6.951  15.520   9.024  0.1139 -0.0227  0.0640
  298loPI   C2B 4766   6.981  15.720   8.683  0.0112  0.0959  0.1936
  298loPI   C3B 4767   6.925  15.881   8.200  0.1289  0.2520 -0.0262
  298loPI   C4B 4768   6.818  15.979   7.804 -0.0742  0.1895  0.2752
  299loPI    C1 4769  17.891  15.093  10.034 -0.1339 -0.2205  0.0255
  299loPI    C2 4770  17.921  14.893  10.379 -0.4319 -0.0850  0.1332
  299loPI    C3 4771  17.936  15.293  10.377  0.0787 -0.0977 -0.0719
  299loPI   PO4 4772  18.006  14.894   9.810 -0.0558  0.0343  0.0165
  299loPI   GL1 4773  17.912  14.804   9.360  0.1998 -0.0070  0.2436
  299loPI   GL2 4774  17.918  14.511   9.418 -0.3823  0.0065 -0.1907
  299loPI   C1A 4775  17.592  14.992   9.036  0.2695  0.1657  0.1852
  299loPI   C2A 4776  17.484  15.167   8.619  0.5762 -0.1118 -0.3085
  299loPI   C3A 4777  17.597  15.442   8.300 -0.0232 -0.1568 -0.0017
  299loPI   C4A 4778  17.654  15.405   7.924  0.1948 -0.3422  0.0529
  299loPI   C5A 4779  17.666  15.281   7.460 -0.1141 -0.2667 -0.0484
  299loPI   C6A 4780  17.456  15.374   7.060  0.1861 -0.0397 -0.0713
  299loPI   C1B 4781  17.826  14.516   8.924  0.1866 -0.0329 -0.0311
  299loPI   C2B 4782  17.728  14.609   8.568 -0.1568  0.2577  0.1711
  299loPI   C3B 4783  17.985  14.809   8.303 -0.2700 -0.5380  0.0002
  299loPI   C4B 4784  17.900  14.974   7.940 -0.0286  0.1225 -0.1609
  300loPI    C1 4785   2.943   6.768  10.685 -0.1822 -0.1207 -0.0490
  300loPI    C2 4786   2.625   6.971  10.819 -0.0268 -0.0135  0.1623
  300loPI    C3 4787   2.680   6.590  10.929  0.0336  0.0355  0.3041
  300loPI   PO4 4788   2.968   6.795  10.448 -0.0769  0.1745  0.2291
  300loPI   GL1 4789   2.772   6.586  10.160 -0.1073  0.0626 -0.0916
  300loPI   GL2 4790   2.960   6.294  10.172  0.0240 -0.2240  0.1396
  300loPI   C1A 4791   2.684   6.571   9.755  0.1235 -0.2383  0.0888
  300loPI   C2A 4792   2.949   6.336   9.456 -0.2979  0.1994 -0.3565
  300loPI   C3A 4793   3.073   6.167   9.064 -0.1879  0.0684  0.0674
  300loPI   C4A 4794   3.058   5.900   8.604  0.0953 -0.0254 -0.1997
  300loPI   C5A 4795   2.974   5.952   8.112 -0.1457 -0.0744  0.0618
  300loPI   C6A 4796   2.816   5.829   7.650 -0.0029  0.1444  0.0644
  300loPI   C1B 4797   2.692   6.092   9.848 -0.0771  0.1206 -0.2375
  300loPI   C2B 4798   2.669   5.907   9.369  0.1608 -0.4081 -0.1507
  300loPI   C3B 4799   2.557   5.967   8.941 -0.0018 -0.3707 -0.2410
  300loPI   C4B 4800   2.531   5.992   8.494 -0.2262  0.0520 -0.0018
  301loPI    C1 4801   1.125   0.875  10.770 -0.1900  0.4062 -0.3164
  301loPI    C2 4802   1.491   0.760  10.655 -0.1816 -0.1554  0.2173
  301loPI    C3 4803   1.448   1.043  10.935 -0.1519 -0.1841  0.2509
  301loPI   PO4 4804   0.946   0.986  10.615 -0.1999  0.2768 -0.1448
  301loPI   GL1 4805   0.675   1.129  10.307  0.1031 -0.0793 -0.0956
  301loPI   GL2 4806   1.027   1.252  10.195 -0.2328 -0.0867  0.0712
  301loPI   C1A 4807   0.647   1.004   9.833  0.0435 -0.0914  0.1061
  301loPI   C2A 4808   0.488   0.793   9.472 -0.3167  0.5247 -0.0784
  301loPI   C3A 4809   0.233   0.791   9.100  0.0401  0.0978 -0.0325
  301loPI   C4A 4810   0.007   0.741   8.620  0.0370  0.1297 -0.2314
  301loPI   C5A 4811   0.173   0.578   8.238  0.1319  0.1371  0.1978
  301loPI   C6A 4812   0.430   0.334   8.067 -0.0406 -0.2397 -0.2678
  301loPI   C1B 4813   0.964   1.375   9.745  0.2086 -0.1207 -0.0030
  301loPI   C2B 4814   0.768   1.256   9.321 -0.0461  0.2329  0.0612
  301loPI   C3B 4815   0.761   0.921   8.986 -0.0771 -0.0635  0.0727
  301loPI   C4B 4816   0.515   0.660   8.642 -0.3673 -0.0731 -0.2386
  302loPI    C1 4817  13.058   0.015  10.836 -0.0845  0.0996 -0.0277
  302loPI    C2 4818  13.406   0.204  10.893 -0.0363 -0.0345  0.1318
  302loPI    C3 4819  13.071   0.346  11.060 -0.0353  0.0201  0.0879
  302loPI   PO4 4820  13.054  -0.050  10.576 -0.0343  0.3734 -0.0414
  302loPI   GL1 4821  13.083  -0.173  10.135  0.0230 -0.1844 -0.1100
  302loPI   GL2 4822  12.840   0.039  10.012  0.0081  0.1944  0.0902
  302loPI   C1A 4823  13.203   0.092   9.723  0.0979 -0.2017  0.0634
  302loPI   C2A 4824  13.013   0.137   9.329  0.2066  0.2502 -0.1037
  302loPI   C3A 4825  13.009   0.087   8.914 -0.1816 -0.1867  0.0577
  302loPI   C4A 4826  13.123  -0.135   8.493  0.0024  0.1670 -0.1232
  302loPI   C5A 4827  13.142  -0.330   8.034  0.1920 -0.1490 -0.0993
  302loPI   C6A 4828  12.969  -0.250   7.624  0.2442  0.1316  0.2092
  302loPI   C1B 4829  12.818   0.424   9.729  0.0335 -0.1111 -0.0638
  302loPI   C2B 4830  12.778   0.630   9.390 -0.0538  0.1251 -0.0723
  302loPI   C3B 4831  12.865   0.955   9.128  0.1756  0.1501 -0.2639
  302loPI   C4B 4832  12.782   1.373   8.940 -0.0723  0.0639  0.2650
  303loPI    C1 4833   9.146  14.335   9.812 -0.0597  0.1139  0.1385
  303loPI    C2 4834   8.862  14.088   9.679  0.2545 -0.1910  0.0161
  303loPI    C3 4835   9.009  14.042  10.048  0.2887 -0.1643  0.0057
  303loPI   PO4 4836   9.385  14.283   9.589 -0.2688 -0.1616 -0.1084
  303loPI   GL1 4837   9.414  14.498   9.192  0.0595  0.1512  0.2405
  303loPI   GL2 4838   9.586  14.203   9.075 -0.0295  0.0360  0.0414
  303loPI   C1A 4839   9.336  14.745   8.841 -0.1603 -0.1604 -0.3851
  303loPI   C2A 4840   9.366  14.850   8.349 -0.1418  0.3339  0.1675
  303loPI   C3A 4841   9.781  14.781   8.023  0.0209  0.2974  0.1231
  303loPI   C4A 4842   9.748  14.604   7.601  0.1292  0.0090  0.1712
  303loPI   C5A 4843   9.539  14.514   7.224  0.3335  0.1446  0.0539
  303loPI   C6A 4844   9.207  14.685   6.916  0.1143  0.0695  0.1853
  303loPI   C1B 4845   9.674  14.328   8.714  0.0439 -0.2886  0.1771
  303loPI   C2B 4846   9.835  14.580   8.436  0.0268 -0.0800 -0.0658
  303loPI   C3B 4847  10.020  14.378   8.137  0.0927 -0.0510 -0.1150
  303loPI   C4B 4848  10.417  14.215   8.113 -0.0973 -0.0449  0.0525
  304loPI    C1 4849   1.264   6.205  10.310 -0.1129  0.0251  0.2340
  304loPI    C2 4850   1.605   6.384  10.418  0.0080 -0.1111  0.0827
  304loPI    C3 4851   1.493   6.043  10.595 -0.0323 -0.0851  0.1076
  304loPI   PO4 4852   1.306   6.208  10.059  0.0753 -0.0897  0.0115
  304loPI   GL1 4853   1.421   6.134   9.703  0.0717 -0.1014 -0.0497
  304loPI   GL2 4854   1.183   6.207   9.460 -0.2015  0.2188 -0.1604
  304loPI   C1A 4855   1.677   5.910   9.428  0.2419 -0.0383  0.1450
  304loPI   C2A 4856   1.575   5.842   8.877 -0.1544  0.0585 -0.0953
  304loPI   C3A 4857   1.706   5.913   8.516  0.1473 -0.1347  0.1771
  304loPI   C4A 4858   2.021   6.022   8.321  0.1830  0.0083  0.3010
  304loPI   C5A 4859   2.424   6.050   8.011 -0.0444  0.1537 -0.0117
  304loPI   C6A 4860   2.614   6.304   7.759 -0.0681  0.3274 -0.0401
  304loPI   C1B 4861   1.334   6.214   9.085 -0.0792  0.0369  0.0447
  304loPI   C2B 4862   1.467   6.335   8.688  0.0233 -0.0336  0.2759
  304loPI   C3B 4863   1.699   6.484   8.476 -0.0743  0.3070 -0.0966
  304loPI   C4B 4864   1.754   6.330   8.002 -0.0594 -0.1867 -0.0985
  305loPI    C1 4865  12.612   9.790  10.260  0.0151  0.1983 -0.0412
  305loPI    C2 4866  12.775   9.562  10.546 -0.0678 -0.0654 -0.2015
  305loPI    C3 4867  12.465   9.800  10.632  0.0342  0.0064 -0.0276
  305loPI   PO4 4868  12.659   9.928  10.104 -0.1563  0.0913  0.4089
  305loPI   GL1 4869  12.806   9.779   9.682  0.2052  0.0358 -0.3150
  305loPI   GL2 4870  12.563   9.736   9.619 -0.0259  0.0124 -0.0507
  305loPI   C1A 4871  12.934   9.654   9.237 -0.2170 -0.0485  0.3331
  305loPI   C2A 4872  13.229   9.557   8.888 -0.0909  0.4358 -0.2570
  305loPI   C3A 4873  13.297   9.179   8.489  0.0203 -0.0790  0.0746
  305loPI   C4A 4874  13.405   8.801   8.426  0.2080 -0.2841  0.0231
  305loPI   C5A 4875  13.252   8.453   8.184 -0.0078  0.0343 -0.0037
  305loPI   C6A 4876  12.967   8.302   7.870  0.2421  0.4118  0.1609
  305loPI   C1B 4877  12.434   9.779   9.293  0.0051 -0.1062  0.0038
  305loPI   C2B 4878  12.521   9.503   8.940 -0.1402 -0.0550  0.1318
  305loPI   C3B 4879  12.431   9.256   8.632  0.1245  0.0763 -0.1952
  305loPI   C4B 4880  12.495   9.063   8.164  0.0506 -0.0585 -0.1313
  306loPI    C1 4881   9.136  17.177   9.789  0.1984  0.0411 -0.0483
  306loPI    C2 4882   9.021  17.269  10.161 -0.0251 -0.1673 -0.0628
  306loPI    C3 4883   8.787  17.363   9.850 -0.0936 -0.4666 -0.1051
  306loPI   PO4 4884   9.463  17.233   9.800  0.1900  0.1745  0.0759
  306loPI   GL1 4885   9.806  17.315   9.581  0.0378  0.2697 -0.0389
  306loPI   GL2 4886   9.465  17.243   9.348  0.1950 -0.0215  0.1490
  306loPI   C1A 4887   9.917  17.496   9.195 -0.1528  0.3622  0.2168
  306loPI   C2A 4888  10.023  17.773   8.840  0.0701 -0.1033 -0.1795
  306loPI   C3A 4889   9.852  17.860   8.530  0.4185  0.2265  0.0829
  306loPI   C4A 4890   9.757  17.916   8.141 -0.3686 -0.3606 -0.3033
  306loPI   C5A 4891   9.937  18.161   7.674 -0.2164 -0.1842  0.2669
  306loPI   C6A 4892   9.763  18.062   7.265 -0.3050  0.2409 -0.3057
  306loPI   C1B 4893   9.584  17.047   8.976  0.3329  0.0118 -0.0807
  306loPI   C2B 4894   9.638  16.579   9.041  0.1938 -0.0375  0.1071
  306loPI   C3B 4895   9.623  16.173   8.899  0.1136 -0.2492 -0.0181
  306loPI   C4B 4896   9.814  15.972   9.142 -0.3697 -0.2936 -0.0896
  307loPI    C1 4897   8.559   5.198  10.573  0.1685  0.2690 -0.3021
  307loPI    C2 4898   8.306   5.453  10.748  0.0915  0.0454 -0.0801
  307loPI    C3 4899   8.496   5.179  10.968  0.0624 -0.1833 -0.3350
  307loPI   PO4 4900   8.659   5.300  10.419  0.1319 -0.2902  0.3306
  307loPI   GL1 4901   8.608   5.296   9.973 -0.1334  0.0599 -0.2195
  307loPI   GL2 4902   8.907   5.419  10.022 -0.0413  0.0921  0.1200
  307loPI   C1A 4903   8.405   5.299   9.524  0.0169 -0.0160 -0.0819
  307loPI   C2A 4904   8.446   5.297   9.075  0.1001 -0.0101  0.0048
  307loPI   C3A 4905   8.334   5.289   8.734  0.2398  0.0290 -0.3432
  307loPI   C4A 4906   8.027   5.376   8.478  0.2324  0.0382 -0.0841
  307loPI   C5A 4907   7.832   5.749   8.278  0.0438  0.0442 -0.1284
  307loPI   C6A 4908   7.920   6.171   8.172  0.2105 -0.2222  0.1613
  307loPI   C1B 4909   8.943   5.317   9.600 -0.1341 -0.1083  0.0493
  307loPI   C2B 4910   9.154   5.304   9.201  0.0526 -0.1636  0.1954
  307loPI   C3B 4911   9.296   5.353   8.815 -0.1972  0.2671  0.0759
  307loPI   C4B 4912   9.557   5.355   8.546  0.0555 -0.1178  0.1081
  308loPI    C1 4913   8.646   8.012  10.326 -0.2450  0.0921  0.0123
  308loPI    C2 4914   8.808   7.878  10.666 -0.2844  0.0378  0.0098
  308loPI    C3 4915   8.841   8.264  10.568  0.1064 -0.0281 -0.1379
  308loPI   PO4 4916   8.747   7.803  10.199  0.2007 -0.3899 -0.2095
  308loPI   GL1 4917   8.759   7.617   9.813 -0.2004  0.0052  0.1067
  308loPI   GL2 4918   8.574   7.872   9.772  0.0492  0.0516 -0.2679
  308loPI   C1A 4919   9.158   7.619   9.711 -0.2248  0.2241  0.1013
  308loPI   C2A 4920   9.503   7.603   9.521  0.0768 -0.3325  0.0136
  308loPI   C3A 4921   9.634   7.585   9.132 -0.0435  0.0148  0.1660
  308loPI   C4A 4922   9.548   7.239   8.817 -0.2589 -0.0041 -0.1710
  308loPI   C5A 4923   9.444   6.909   8.600 -0.3885 -0.0591 -0.1379
  308loPI   C6A 4924   9.018   6.726   8.443 -0.0587 -0.1193  0.0112
  308loPI   C1B 4925   8.793   7.920   9.392 -0.1172  0.1455  0.0358
  308loPI   C2B 4926   8.982   7.802   9.096 -0.0288 -0.0261  0.2253
  308loPI   C3B 4927   9.172   7.594   8.743  0.0670  0.2494 -0.2174
  308loPI   C4B 4928   9.357   7.565   8.316 -0.2318  0.1235 -0.0686
  309loPI    C1 4929   6.199  13.613   9.812  0.0478  0.1428  0.0930
  309loPI    C2 4930   6.044  13.409  10.120 -0.0259  0.1968  0.0920
  309loPI    C3 4931   6.395  13.598  10.160  0.0151  0.1170  0.1103
  309loPI   PO4 4932   6.082  13.811   9.804 -0.1031  0.1366  0.1816
  309loPI   GL1 4933   5.994  14.016   9.424  0.1228  0.2439 -0.2865
  309loPI   GL2 4934   6.317  14.005   9.374 -0.0164  0.0705  0.1654
  309loPI   C1A 4935   5.737  14.246   9.128 -0.1505  0.1755 -0.2551
  309loPI   C2A 4936   5.633  14.242   8.744 -0.1137  0.1368  0.1522
  309loPI   C3A 4937   5.433  14.421   8.400  0.2580  0.0221 -0.3318
  309loPI   C4A 4938   5.498  14.535   8.015 -0.2238  0.3283 -0.0239
  309loPI   C5A 4939   5.588  14.389   7.521  0.0688  0.2108 -0.0002
  309loPI   C6A 4940   5.550  14.023   7.300 -0.0705 -0.1302  0.1783
  309loPI   C1B 4941   6.218  14.244   8.953 -0.1945  0.1315  0.2891
  309loPI   C2B 4942   6.101  14.246   8.565 -0.0859 -0.1073  0.1433
  309loPI   C3B 4943   5.908  14.195   8.079 -0.0111 -0.0860  0.1491
  309loPI   C4B 4944   5.793  14.056   7.780 -0.0055 -0.2935 -0.1651
  310loPI    C1 4945   1.471  17.370  10.642  0.0698 -0.0719  0.1713
  310loPI    C2 4946   1.089  17.273  10.576  0.0735  0.0241  0.0029
  310loPI    C3 4947   1.198  17.424  10.929 -0.0291 -0.0788  0.0795
  310loPI   PO4 4948   1.510  17.485  10.380 -0.1768  0.2152  0.1397
  310loPI   GL1 4949   1.363  17.772  10.130  0.0993  0.3109  0.4452
  310loPI   GL2 4950   1.479  17.992   9.978  0.0933  0.0393  0.3121
  310loPI   C1A 4951   0.982  17.611   9.958  0.0390  0.1941  0.1936
  310loPI   C2A 4952   0.672  17.808   9.771  0.0780  0.0397  0.3412
  310loPI   C3A 4953   0.766  17.967   9.366  0.3114  0.0906 -0.1351
  310loPI   C4A 4954   0.616  18.009   8.974  0.2000 -0.0265 -0.2639
  310loPI   C5A 4955   0.742  17.748   8.584 -0.0709  0.0900  0.1513
  310loPI   C6A 4956   0.872  17.656   8.152  0.0354 -0.1321 -0.0371
  310loPI   C1B 4957   1.394  17.732   9.603  0.2023 -0.0425  0.0134
  310loPI   C2B 4958   1.034  17.330   9.540 -0.0446 -0.0250 -0.1015
  310loPI   C3B 4959   0.703  17.236   9.359 -0.1053 -0.1715 -0.0284
  310loPI   C4B 4960   0.565  17.177   8.885 -0.2494  0.1110  0.1398
  311loPI    C1 4961   2.895  10.495   9.655  0.0208 -0.1753  0.0716
  311loPI    C2 4962   3.121  10.824   9.687  0.0622 -0.2032  0.0662
  311loPI    C3 4963   3.260  10.472   9.819  0.0432 -0.2303  0.0144
  311loPI   PO4 4964   2.579  10.543   9.704 -0.1088  0.0571  0.0823
  311loPI   GL1 4965   2.229  10.435   9.386 -0.0485  0.0504 -0.0713
  311loPI   GL2 4966   2.525  10.202   9.285  0.0696  0.5547 -0.0570
  311loPI   C1A 4967   1.907  10.476   9.093  0.1012  0.0888  0.0722
  311loPI   C2A 4968   2.017  10.347   8.631  0.2322  0.1464 -0.0647
  311loPI   C3A 4969   2.062  10.262   8.260  0.3068  0.1085  0.6237
  311loPI   C4A 4970   1.925  10.148   7.763 -0.0205  0.1646  0.2375
  311loPI   C5A 4971   1.661   9.837   7.595  0.1301  0.0776 -0.2215
  311loPI   C6A 4972   1.583   9.414   7.410 -0.3045 -0.1148  0.4032
  311loPI   C1B 4973   2.538  10.298   8.886  0.0886 -0.0974  0.1360
  311loPI   C2B 4974   2.507  10.296   8.407 -0.2616 -0.1712  0.4615
  311loPI   C3B 4975   2.503  10.177   7.971  0.1744  0.0252 -0.0052
  311loPI   C4B 4976   2.352  10.027   7.478 -0.2353 -0.0553  0.2385
  312loPI    C1 4977   0.114   4.076  10.731 -0.0853 -0.1895  0.2414
  312loPI    C2 4978   0.227   3.908  11.076 -0.0288 -0.1118  0.2611
  312loPI    C3 4979   0.500   4.073  10.836 -0.0887 -0.0120  0.2612
  312loPI   PO4 4980   0.140   3.911  10.527  0.0146 -0.2147 -0.0309
  312loPI   GL1 4981   0.159   3.884  10.155  0.0287 -0.2166  0.1748
  312loPI   GL2 4982   0.287   3.593  10.072 -0.2026 -0.0311  0.0566
  312loPI   C1A 4983  -0.085   3.838   9.670 -0.1028  0.4124  0.0906
  312loPI   C2A 4984  -0.147   3.768   9.234 -0.2853  0.1955 -0.3533
  312loPI   C3A 4985  -0.281   3.601   8.909  0.3058 -0.3028 -0.1441
  312loPI   C4A 4986  -0.378   3.408   8.480 -0.1875  0.1261 -0.2919
  312loPI   C5A 4987  -0.531   3.341   8.181 -0.1808 -0.1575  0.2534
  312loPI   C6A 4988  -0.870   3.461   7.857  0.1137  0.1944 -0.0961
  312loPI   C1B 4989   0.209   3.286   9.785 -0.1107 -0.2994  0.3377
  312loPI   C2B 4990   0.451   2.820   9.677 -0.3623  0.0834 -0.0595
  312loPI   C3B 4991   0.491   2.685   9.284  0.1087  0.0882  0.0874
  312loPI   C4B 4992   0.200   2.668   8.964 -0.0773  0.2797  0.1440
  313loPI    C1 4993   4.895  12.285   9.868 -0.3600  0.1378 -0.3772
  313loPI    C2 4994   5.006  11.904   9.913 -0.0017  0.2864  0.0887
  313loPI    C3 4995   4.640  12.020  10.025 -0.1013  0.0888 -0.0265
  313loPI   PO4 4996   4.984  12.310   9.595  0.2340  0.1600 -0.1057
  313loPI   GL1 4997   5.044  12.123   9.251  0.1304  0.2837  0.3612
  313loPI   GL2 4998   4.997  11.813   9.114 -0.0103 -0.1092  0.0539
  313loPI   C1A 4999   5.352  12.051   8.848  0.2873 -0.3000 -0.3172
  313loPI   C2A 5000   5.382  12.224   8.415  0.0374  0.3621  0.1130
  313loPI   C3A 5001   5.610  12.460   8.052  0.2410  0.1031  0.0037
  313loPI   C4A 5002   5.412  12.682   7.655  0.0934 -0.2481  0.0722
  313loPI   C5A 5003   5.360  12.567   7.181  0.0739 -0.0342  0.2767
  313loPI   C6A 5004   5.073  12.244   6.969 -0.1492 -0.1347 -0.0714
  313loPI   C1B 5005   4.945  11.772   8.682 -0.0608 -0.4831 -0.5288
  313loPI   C2B 5006   5.172  11.822   8.208  0.1181 -0.0794  0.2619
  313loPI   C3B 5007   5.121  11.812   7.792 -0.1325  0.0008  0.0361
  313loPI   C4B 5008   4.919  11.923   7.450  0.1408 -0.0138 -0.1153
  314loPI    C1 5009   4.092  10.993   9.549  0.1590  0.0639 -0.0076
  314loPI    C2 5010   4.390  10.874   9.788  0.0623 -0.0216  0.0716
  314loPI    C3 5011   4.161  11.184   9.893 -0.0150 -0.0934  0.1172
  314loPI   PO4 5012   4.206  11.077   9.343 -0.1004  0.0299  0.1440
  314loPI   GL1 5013   4.240  10.923   9.014 -0.2518 -0.1219 -0.0559
  314loPI   GL2 5014   4.596  11.045   8.908 -0.0224  0.0937  0.0898
  314loPI   C1A 5015   4.189  10.802   8.694 -0.1270  0.0212 -0.2843
  314loPI   C2A 5016   3.915  10.587   8.336  0.0320  0.0422 -0.0442
  314loPI   C3A 5017   3.873  10.303   7.975  0.0073 -0.0242 -0.0947
  314loPI   C4A 5018   3.789  10.263   7.616 -0.1134 -0.5105  0.0644
  314loPI   C5A 5019   3.426  10.456   7.315  0.2440 -0.3395 -0.3519
  314loPI   C6A 5020   2.929  10.694   7.284  0.0193 -0.0282 -0.0745
  314loPI   C1B 5021   4.590  11.030   8.423  0.0813 -0.2280  0.1307
  314loPI   C2B 5022   4.607  11.062   7.993 -0.3670 -0.1023  0.0135
  314loPI   C3B 5023   4.535  10.693   7.691  0.0287 -0.1134 -0.1361
  314loPI   C4B 5024   4.245  10.360   7.617 -0.2991 -0.0473 -0.1367
  315loPI    C1 5025  10.594   3.959  10.529 -0.0197  0.1239 -0.2752
  315loPI    C2 5026  10.870   4.091  10.786 -0.0571 -0.0724 -0.1322
  315loPI    C3 5027  10.967   3.817  10.512 -0.1040 -0.1273 -0.0944
  315loPI   PO4 5028  10.455   4.191  10.500 -0.4316  0.1227 -0.2160
  315loPI   GL1 5029  10.409   4.240  10.052 -0.0780  0.2504  0.2353
  315loPI   GL2 5030  10.180   4.021  10.148  0.0018 -0.0095  0.3474
  315loPI   C1A 5031  10.777   4.208   9.956  0.1931 -0.0441  0.1004
  315loPI   C2A 5032  11.035   4.096   9.617  0.0942  0.0499 -0.3037
  315loPI   C3A 5033  11.153   4.050   9.161 -0.1983  0.1004  0.3886
  315loPI   C4A 5034  11.116   4.114   8.738  0.2885 -0.0748  0.3552
  315loPI   C5A 5035  11.097   3.990   8.286  0.0184 -0.3039  0.0282
  315loPI   C6A 5036  10.898   3.795   7.950 -0.2510 -0.1350  0.0466
  315loPI   C1B 5037  10.194   4.011   9.647 -0.2162  0.3704  0.0934
  315loPI   C2B 5038  10.573   4.000   9.331  0.0395  0.1417  0.1304
  315loPI   C3B 5039  10.555   3.954   8.807  0.2296 -0.1448 -0.2368
  315loPI   C4B 5040  10.656   4.340   8.424 -0.0438  0.1403 -0.1402
  316loPI    C1 5041  14.171  17.431  10.361  0.2528  0.3643  0.3412
  316loPI    C2 5042  13.787  17.468  10.467  0.0718 -0.1100 -0.1061
  316loPI    C3 5043  14.070  17.440  10.748 -0.2668 -0.1974  0.2351
  316loPI   PO4 5044  14.173  17.706  10.205 -0.2198 -0.0107  0.0009
  316loPI   GL1 5045  14.229  18.145  10.056  0.0533 -0.1620  0.0866
  316loPI   GL2 5046  14.356  18.444  10.262  0.2323  0.2472  0.0235
  316loPI   C1A 5047  14.334  18.165   9.590 -0.0843 -0.3123 -0.2607
  316loPI   C2A 5048  14.294  18.216   9.256 -0.0109  0.0893  0.2517
  316loPI   C3A 5049  14.365  18.252   8.824 -0.2968  0.1100 -0.0740
  316loPI   C4A 5050  14.506  18.136   8.398  0.0388  0.1778 -0.1856
  316loPI   C5A 5051  14.642  18.390   8.093 -0.0420  0.0964  0.1272
  316loPI   C6A 5052  14.657  18.305   7.699 -0.0021 -0.3977  0.3736
  316loPI   C1B 5053  14.522  18.612   9.859  0.2552  0.1574 -0.0760
  316loPI   C2B 5054  14.427  18.646   9.462  0.0939  0.0164 -0.1930
  316loPI   C3B 5055  14.451  18.784   9.057 -0.2034 -0.1243  0.1334
  316loPI   C4B 5056  14.182  18.708   8.779 -0.0795  0.0354  0.3423
  317loPI    C1 5057  13.297  17.270  10.667  0.0390  0.2307 -0.0752
  317loPI    C2 5058  13.199  17.001  10.946  0.0471  0.1210 -0.1776
  317loPI    C3 5059  13.229  17.387  11.043  0.0995  0.0767 -0.0153
  317loPI   PO4 5060  13.401  17.105  10.477 -0.1758 -0.1754  0.1364
  317loPI   GL1 5061  13.592  17.008  10.097 -0.3205  0.1245  0.1140
  317loPI   GL2 5062  13.948  17.232   9.925  0.0570  0.0560  0.2135
  317loPI   C1A 5063  13.537  17.130   9.681  0.1325 -0.0088 -0.0875
  317loPI   C2A 5064  13.285  17.372   9.404  0.1598 -0.2928  0.1877
  317loPI   C3A 5065  13.074  17.758   9.283 -0.0161 -0.0450  0.1975
  317loPI   C4A 5066  12.812  17.842   8.910  0.3643  0.0294  0.3085
  317loPI   C5A 5067  12.436  17.662   8.612  0.1906  0.0025  0.2406
  317loPI   C6A 5068  12.579  17.400   8.230 -0.1755  0.1819 -0.1750
  317loPI   C1B 5069  14.074  17.079   9.482 -0.3980  0.2797 -0.2127
  317loPI   C2B 5070  14.422  17.222   9.276 -0.2654 -0.0037  0.2873
  317loPI   C3B 5071  14.469  17.221   8.814 -0.2071  0.1607  0.1046
  317loPI   C4B 5072  14.599  16.967   8.485  0.1435  0.1928 -0.0579
  318loPI    C1 5073  14.983   6.642  10.785 -0.1647  0.0380  0.0553
  318loPI    C2 5074  15.002   6.248  10.852  0.4245  0.0582  0.0597
  318loPI    C3 5075  14.958   6.501  11.159 -0.1301 -0.0051  0.0416
  318loPI   PO4 5076  15.077   6.616  10.479  0.0296  0.1468 -0.4386
  318loPI   GL1 5077  14.897   6.862  10.098  0.0471  0.0619 -0.2579
  318loPI   GL2 5078  14.980   6.862   9.696  0.0154 -0.2484  0.0334
  318loPI   C1A 5079  14.747   7.223   9.865  0.2153  0.1093  0.1180
  318loPI   C2A 5080  14.565   7.333   9.489  0.0249  0.0542  0.1799
  318loPI   C3A 5081  14.591   7.459   9.074 -0.2122 -0.2448 -0.0611
  318loPI   C4A 5082  14.609   7.335   8.723  0.0315 -0.0183  0.1236
  318loPI   C5A 5083  14.892   7.214   8.341 -0.1173  0.1391 -0.6498
  318loPI   C6A 5084  14.901   6.953   8.049  0.2515 -0.4436  0.0609
  318loPI   C1B 5085  14.640   6.525   9.560  0.2401 -0.3873  0.0482
  318loPI   C2B 5086  14.269   6.454   9.320  0.1186  0.0936  0.1541
  318loPI   C3B 5087  13.995   6.205   8.991 -0.1750  0.0470 -0.0246
  318loPI   C4B 5088  13.965   5.930   8.626 -0.0618  0.2199 -0.1968
  319loPI    C1 5089   5.842  12.521   9.643 -0.2350  0.0540  0.0280
  319loPI    C2 5090   6.190  12.628   9.809 -0.1772 -0.0339 -0.0356
  319loPI    C3 5091   5.941  12.384  10.005 -0.0048 -0.3246 -0.1708
  319loPI   PO4 5092   5.902  12.360   9.428  0.1571 -0.3787  0.4089
  319loPI   GL1 5093   5.812  12.075   9.043 -0.0409  0.0063 -0.0242
  319loPI   GL2 5094   6.157  12.131   9.024 -0.2178 -0.1408  0.1066
  319loPI   C1A 5095   5.819  11.808   8.618 -0.0412  0.0019  0.0135
  319loPI   C2A 5096   5.833  11.931   8.150 -0.1068 -0.0514 -0.2841
  319loPI   C3A 5097   5.895  12.140   7.802  0.2249  0.0617  0.2015
  319loPI   C4A 5098   5.870  12.097   7.289  0.3117  0.1610  0.0557
  319loPI   C5A 5099   6.292  11.903   7.072  0.1076  0.0439 -0.0645
  319loPI   C6A 5100   6.549  11.818   6.843 -0.2850  0.1865 -0.1483
  319loPI   C1B 5101   5.995  12.318   8.626 -0.3719  0.0760 -0.0321
  319loPI   C2B 5102   6.068  12.475   8.199  0.0816  0.1588  0.2515
  319loPI   C3B 5103   5.991  12.741   7.852  0.2247  0.1825  0.3730
  319loPI   C4B 5104   5.870  12.570   7.506 -0.2037  0.1269  0.0357
  320loPI    C1 5105  15.189  14.836  10.521 -0.2549 -0.0292  0.5373
  320loPI    C2 5106  14.922  14.918  10.235  0.0039 -0.1930  0.2430
  320loPI    C3 5107  14.860  14.611  10.484  0.0229 -0.3712  0.0310
  320loPI   PO4 5108  15.418  14.874  10.300  0.2042 -0.0981 -0.1982
  320loPI   GL1 5109  15.291  15.157   9.984 -0.2431 -0.1672 -0.0052
  320loPI   GL2 5110  14.971  15.315   9.908 -0.3010 -0.1082 -0.0539
  320loPI   C1A 5111  15.604  15.161   9.661 -0.0677  0.0062  0.3732
  320loPI   C2A 5112  15.692  15.497   9.283  0.0148  0.0396 -0.0640
  320loPI   C3A 5113  15.729  15.840   8.863  0.1466  0.0568 -0.2255
  320loPI   C4A 5114  15.786  16.035   8.539 -0.1868  0.0327 -0.0362
  320loPI   C5A 5115  16.007  16.317   8.230  0.2007 -0.0228  0.1534
  320loPI   C6A 5116  16.312  16.631   8.013 -0.0377  0.0507 -0.1553
  320loPI   C1B 5117  14.913  15.643   9.643 -0.1152  0.1696  0.0594
  320loPI   C2B 5118  15.042  15.948   9.464  0.1328 -0.0285  0.2371
  320loPI   C3B 5119  15.240  15.907   9.023 -0.1285  0.0274  0.0068
  320loPI   C4B 5120  15.275  15.870   8.529  0.0421  0.0974  0.1970
  321loPI    C1 5121   6.727   3.477  10.773  0.2471  0.0559  0.0942
  321loPI    C2 5122   6.778   3.830  10.953 -0.2151  0.0542  0.2417
  321loPI    C3 5123   6.734   3.498  11.173  0.4050 -0.1323  0.1030
  321loPI   PO4 5124   6.644   3.616  10.499  0.0537  0.1009 -0.1423
  321loPI   GL1 5125   6.793   3.774  10.106  0.3264  0.0464  0.2240
  321loPI   GL2 5126   6.975   3.644   9.930  0.4082  0.4845 -0.2518
  321loPI   C1A 5127   6.518   3.858   9.771  0.0714 -0.0294  0.2919
  321loPI   C2A 5128   6.608   3.969   9.348  0.1386 -0.3242 -0.0422
  321loPI   C3A 5129   6.609   4.167   8.952 -0.2435  0.0996  0.0502
  321loPI   C4A 5130   6.782   4.387   8.608 -0.0336 -0.0792 -0.0567
  321loPI   C5A 5131   6.463   4.380   8.289 -0.1125 -0.0771 -0.1463
  321loPI   C6A 5132   6.634   4.218   7.844 -0.1347 -0.1635 -0.1002
  321loPI   C1B 5133   7.031   3.846   9.506  0.0525  0.1971 -0.3484
  321loPI   C2B 5134   7.040   4.170   9.207  0.0149  0.3005  0.0825
  321loPI   C3B 5135   7.290   4.384   8.914  0.0295  0.3907  0.3385
  321loPI   C4B 5136   7.245   4.466   8.543 -0.0955  0.2549 -0.0260
  322loPI    C1 5137   1.788   0.322  10.723 -0.1960 -0.0993 -0.0889
  322loPI    C2 5138   1.914  -0.052  10.659  0.1419 -0.0373  0.1837
  322loPI    C3 5139   1.587   0.013  10.879 -0.0327 -0.1772 -0.0301
  322loPI   PO4 5140   1.777   0.436  10.400  0.1449  0.1731  0.0115
  322loPI   GL1 5141   1.459   0.473  10.201  0.0864  0.2542 -0.1830
  322loPI   GL2 5142   1.254   0.783  10.223  0.0668 -0.2707  0.1154
  322loPI   C1A 5143   1.569   0.331   9.712 -0.0853 -0.1424 -0.1455
  322loPI   C2A 5144   1.596   0.064   9.478 -0.1408  0.3512 -0.1782
  322loPI   C3A 5145   1.592  -0.215   9.077 -0.1231 -0.0050 -0.2657
  322loPI   C4A 5146   1.657  -0.465   8.746  0.1787 -0.2171  0.4971
  322loPI   C5A 5147   1.895  -0.701   8.531 -0.2210 -0.0716  0.0915
  322loPI   C6A 5148   1.905  -0.824   8.191 -0.3565  0.0780 -0.2482
  322loPI   C1B 5149   1.366   0.820   9.852  0.0156 -0.1639  0.0799
  322loPI   C2B 5150   1.593   0.789   9.451  0.1311 -0.1834 -0.0682
  322loPI   C3B 5151   1.642   0.798   8.959 -0.1388 -0.3440  0.1673
  322loPI   C4B 5152   1.634   0.661   8.520 -0.1869 -0.1615  0.1130
  323loPI    C1 5153  18.653  10.233   9.897  0.1247  0.0310  0.1024
  323loPI    C2 5154  18.633  10.270  10.295 -0.0775 -0.2730  0.1241
  323loPI    C3 5155  18.959  10.392  10.098  0.0037 -0.0759  0.3763
  323loPI   PO4 5156  18.648   9.968   9.823  0.1037 -0.1649  0.0967
  323loPI   GL1 5157  18.713   9.872   9.448 -0.3466  0.0453  0.1201
  323loPI   GL2 5158  18.402   9.851   9.344  0.1406 -0.0295  0.1345
  323loPI   C1A 5159  18.898   9.615   9.116 -0.1189 -0.1485 -0.1282
  323loPI   C2A 5160  18.854   9.465   8.811 -0.1382  0.3460 -0.1312
  323loPI   C3A 5161  18.757   9.091   8.646  0.4753  0.1562  0.0280
  323loPI   C4A 5162  18.866   8.890   8.310 -0.3258 -0.2909 -0.0486
  323loPI   C5A 5163  19.101   8.957   7.936 -0.0194  0.0423 -0.0749
  323loPI   C6A 5164  19.156   9.140   7.551 -0.5133 -0.2712 -0.1212
  323loPI   C1B 5165  18.481   9.814   8.881 -0.1130 -0.0354  0.2408
  323loPI   C2B 5166  18.630   9.823   8.450 -0.0114  0.0322 -0.1722
  323loPI   C3B 5167  18.722   9.427   8.232 -0.1351  0.1933 -0.0399
  323loPI   C4B 5168  18.782   9.458   7.785 -0.1033 -0.3147  0.1816
  324loPI    C1 5169  16.786   3.449  10.495 -0.5028  0.0451  0.0335
  324loPI    C2 5170  16.836   3.586  10.123 -0.2454  0.0135  0.0550
  324loPI    C3 5171  16.723   3.207  10.183 -0.1810 -0.0129  0.0108
  324loPI   PO4 5172  16.566   3.578  10.633 -0.1536  0.1423 -0.4854
  324loPI   GL1 5173  16.190   3.525  10.398  0.1766 -0.1906  0.0652
  324loPI   GL2 5174  16.362   3.857  10.200  0.0090  0.0830 -0.0675
  324loPI   C1A 5175  16.096   3.522   9.951 -0.0979  0.1748  0.2347
  324loPI   C2A 5176  16.136   3.739   9.616  0.0054 -0.1374 -0.1004
  324loPI   C3A 5177  16.124   3.699   9.119  0.2006 -0.1491  0.1957
  324loPI   C4A 5178  16.187   3.737   8.615 -0.1352 -0.1826  0.0319
  324loPI   C5A 5179  16.260   3.420   8.287  0.2667 -0.0369 -0.0361
  324loPI   C6A 5180  16.720   3.220   8.111  0.0722 -0.1827 -0.2047
  324loPI   C1B 5181  16.553   3.721   9.821 -0.2781  0.2791  0.0993
  324loPI   C2B 5182  16.591   3.308   9.652 -0.2688 -0.1216 -0.3830
  324loPI   C3B 5183  16.408   3.174   9.138  0.2495 -0.2079  0.1060
  324loPI   C4B 5184  16.163   3.158   8.785 -0.1188  0.1856 -0.0524
  325loPI    C1 5185  18.264  12.619  10.189 -0.1315  0.4317  0.0133
  325loPI    C2 5186  18.406  12.864  10.471  0.0391  0.0415  0.2747
  325loPI    C3 5187  18.048  12.691  10.518 -0.0004  0.0957  0.1775
  325loPI   PO4 5188  18.332  12.639   9.928  0.0648 -0.1526  0.1295
  325loPI   GL1 5189  18.482  12.450   9.552  0.1907 -0.0049 -0.1382
  325loPI   GL2 5190  18.414  12.195   9.297  0.4290  0.1236  0.3639
  325loPI   C1A 5191  18.145  12.632   9.308 -0.2655 -0.0231  0.4202
  325loPI   C2A 5192  17.765  12.590   9.140 -0.0679  0.1626  0.1824
  325loPI   C3A 5193  17.751  12.668   8.636  0.2590  0.2815 -0.0462
  325loPI   C4A 5194  17.695  12.831   8.172 -0.1239  0.2221 -0.0438
  325loPI   C5A 5195  17.451  13.085   7.828 -0.1285  0.1933  0.2125
  325loPI   C6A 5196  16.954  13.228   7.749 -0.1282  0.1640 -0.1963
  325loPI   C1B 5197  18.249  12.334   8.888  0.0289 -0.1496 -0.1092
  325loPI   C2B 5198  18.116  12.367   8.458 -0.3587  0.1585  0.2181
  325loPI   C3B 5199  18.002  12.437   8.099  0.0469 -0.0362  0.0773
  325loPI   C4B 5200  18.057  12.929   7.889 -0.0888 -0.4984  0.0158
  326loPI    C1 5201  13.856  12.869   9.707  0.2913  0.0896  0.0583
  326loPI    C2 5202  13.728  12.753  10.068 -0.1867  0.2405 -0.0552
  326loPI    C3 5203  13.934  13.093  10.029  0.3628 -0.0576  0.1442
  326loPI   PO4 5204  13.837  12.638   9.584 -0.1318  0.2301 -0.1106
  326loPI   GL1 5205  13.935  12.472   9.175 -0.0382  0.0089  0.0350
  326loPI   GL2 5206  13.996  12.082   9.168  0.0570 -0.1733  0.2410
  326loPI   C1A 5207  13.968  12.868   8.857  0.3103  0.2138  0.1552
  326loPI   C2A 5208  14.069  12.970   8.406  0.1799  0.1276 -0.0033
  326loPI   C3A 5209  14.207  13.011   8.015  0.0423  0.1007 -0.0359
  326loPI   C4A 5210  14.209  13.358   7.671 -0.0207 -0.0353  0.0760
  326loPI   C5A 5211  14.519  13.446   7.357 -0.1235 -0.3273 -0.0959
  326loPI   C6A 5212  14.900  13.613   7.293 -0.1572 -0.3812  0.1005
  326loPI   C1B 5213  13.791  11.819   8.868 -0.0957  0.0441  0.2589
  326loPI   C2B 5214  13.502  11.743   8.461  0.0829 -0.1610  0.1128
  326loPI   C3B 5215  13.484  11.773   8.060 -0.3576  0.1007  0.0189
  326loPI   C4B 5216  13.397  11.786   7.600 -0.0250 -0.0774  0.1028
  327loPI    C1 5217  11.019   1.062  10.910 -0.2524  0.1062  0.0232
  327loPI    C2 5218  10.710   1.239  11.092 -0.2650  0.0033  0.1027
  327loPI    C3 5219  11.082   1.295  11.229 -0.2887 -0.1886  0.2500
  327loPI   PO4 5220  10.950   1.122  10.619  0.0085 -0.3480  0.2944
  327loPI   GL1 5221  10.776   0.896  10.310  0.0741 -0.0495  0.2661
  327loPI   GL2 5222  10.645   0.692  10.145  0.1118  0.0048 -0.0345
  327loPI   C1A 5223  10.822   1.114   9.936  0.0340 -0.1041  0.3687
  327loPI   C2A 5224  10.959   1.050   9.521  0.0778  0.0580  0.3720
  327loPI   C3A 5225  11.019   0.852   9.142 -0.1766  0.1257  0.3140
  327loPI   C4A 5226  11.266   0.587   8.906  0.1728 -0.2521  0.1140
  327loPI   C5A 5227  11.393   0.563   8.533  0.1726 -0.0533 -0.0231
  327loPI   C6A 5228  11.266   0.843   8.171  0.0534  0.0215  0.1265
  327loPI   C1B 5229  10.726   0.548   9.754  0.1288 -0.2252  0.1098
  327loPI   C2B 5230  10.604   0.607   9.279 -0.3133  0.1922 -0.2315
  327loPI   C3B 5231  10.421   0.609   8.916 -0.0255  0.0681 -0.2712
  327loPI   C4B 5232  10.471   0.495   8.523 -0.0123  0.0500 -0.1984
  328loPI    C1 5233   7.705   9.670  10.054 -0.1717 -0.1273  0.0771
  328loPI    C2 5234   7.809   9.917  10.351 -0.2497  0.0244 -0.0203
  328loPI    C3 5235   7.522   9.645  10.409 -0.0811 -0.1255  0.1242
  328loPI   PO4 5236   7.662   9.747   9.869  0.2738 -0.2090 -0.0826
  328loPI   GL1 5237   7.892   9.733   9.465  0.0348 -0.1547  0.1602
  328loPI   GL2 5238   7.749   9.590   9.172  0.2570  0.2064 -0.0655
  328loPI   C1A 5239   7.850  10.103   9.143 -0.0848 -0.1395  0.0869
  328loPI   C2A 5240   7.930  10.183   8.754 -0.5673  0.0544  0.1339
  328loPI   C3A 5241   8.261  10.045   8.377 -0.0688  0.0677  0.0978
  328loPI   C4A 5242   8.556   9.649   8.282  0.0760 -0.0327  0.1497
  328loPI   C5A 5243   8.724   9.473   7.927 -0.1549 -0.0894  0.1414
  328loPI   C6A 5244   8.976   9.518   7.702 -0.0874  0.2990  0.2023
  328loPI   C1B 5245   7.717   9.280   8.800 -0.1007 -0.1336  0.1216
  328loPI   C2B 5246   7.653   9.275   8.402 -0.2803  0.2839  0.2495
  328loPI   C3B 5247   7.317   9.084   8.180 -0.0038  0.0129  0.2227
  328loPI   C4B 5248   7.338   8.845   7.745 -0.0235  0.2811 -0.1706
  329loPI    C1 5249   0.522  14.824  10.140  0.3111 -0.0586 -0.1990
  329loPI    C2 5250   0.817  14.712  10.387  0.1491 -0.0328  0.0092
  329loPI    C3 5251   0.566  15.004  10.495  0.0922 -0.0033 -0.1990
  329loPI   PO4 5252   0.757  14.882   9.872  0.2365 -0.0310 -0.0293
  329loPI   GL1 5253   0.903  14.905   9.449 -0.2044  0.4388 -0.1989
  329loPI   GL2 5254   1.199  14.711   9.294 -0.0569  0.1187 -0.0396
  329loPI   C1A 5255   0.879  15.103   8.898  0.3146  0.3942 -0.1486
  329loPI   C2A 5256   0.909  15.492   8.783 -0.1184  0.2764  0.1662
  329loPI   C3A 5257   0.847  15.814   8.421 -0.1713 -0.0228 -0.0915
  329loPI   C4A 5258   0.993  16.129   8.103  0.1190 -0.2842  0.0019
  329loPI   C5A 5259   0.884  16.375   7.666 -0.2694 -0.1325 -0.0389
  329loPI   C6A 5260   0.947  16.340   7.238  0.0275  0.2718  0.1221
  329loPI   C1B 5261   1.350  14.658   8.909  0.0398  0.4004 -0.0803
  329loPI   C2B 5262   1.562  14.819   8.525  0.0535  0.0447 -0.0916
  329loPI   C3B 5263   1.581  14.905   8.108  0.2482 -0.0865  0.0189
  329loPI   C4B 5264   1.463  15.192   7.761 -0.0288  0.0054  0.3586
  330loPI    C1 5265   3.254  13.936  10.182 -0.3111  0.1548 -0.1170
  330loPI    C2 5266   2.955  14.186  10.272 -0.1180  0.3098  0.1057
  330loPI    C3 5267   3.329  14.272  10.385  0.0377  0.1923 -0.3008
  330loPI   PO4 5268   3.249  13.951   9.871 -0.1152  0.1653 -0.2529
  330loPI   GL1 5269   2.999  13.785   9.494  0.1022  0.3708  0.1454
  330loPI   GL2 5270   2.662  13.684   9.492 -0.0388 -0.0245 -0.0030
  330loPI   C1A 5271   3.099  13.940   9.100 -0.1228  0.0121  0.2423
  330loPI   C2A 5272   2.940  13.892   8.591 -0.5618 -0.1921 -0.2618
  330loPI   C3A 5273   2.863  13.889   8.224  0.0569  0.1490  0.3261
  330loPI   C4A 5274   2.794  14.176   7.846  0.0086 -0.1348  0.0004
  330loPI   C5A 5275   3.079  14.166   7.476  0.1324 -0.0113 -0.1249
  330loPI   C6A 5276   3.227  14.474   7.287  0.1232  0.4955  0.1537
  330loPI   C1B 5277   2.701  13.369   9.140 -0.0620 -0.1004  0.3021
  330loPI   C2B 5278   2.587  13.321   8.733 -0.0038 -0.0697  0.0514
  330loPI   C3B 5279   2.313  13.297   8.386  0.2052  0.0016 -0.1530
  330loPI   C4B 5280   2.257  13.029   8.115  0.0710 -0.0281 -0.0650
  331loPI    C1 5281  14.141  13.521  10.505  0.0421  0.1347  0.2361
  331loPI    C2 5282  14.163  13.121  10.516 -0.0573  0.1141 -0.1404
  331loPI    C3 5283  14.365  13.341  10.783 -0.0341 -0.1864  0.0953
  331loPI   PO4 5284  14.106  13.539  10.224 -0.4735 -0.1324 -0.1333
  331loPI   GL1 5285  14.093  13.751   9.869  0.1057  0.0804 -0.1998
  331loPI   GL2 5286  13.950  13.438   9.640  0.0239 -0.0050 -0.0463
  331loPI   C1A 5287  14.153  13.947   9.487 -0.0796 -0.0476 -0.1497
  331loPI   C2A 5288  13.954  14.079   9.121 -0.1349  0.0284 -0.0599
  331loPI   C3A 5289  13.818  14.146   8.696 -0.0968 -0.2264 -0.2505
  331loPI   C4A 5290  14.065  14.266   8.300  0.0294  0.1140 -0.2040
  331loPI   C5A 5291  14.221  14.352   7.945  0.1542 -0.0407 -0.4787
  331loPI   C6A 5292  14.208  14.710   7.703 -0.2681  0.0898 -0.2033
  331loPI   C1B 5293  13.819  13.566   9.271  0.0663 -0.0155  0.2437
  331loPI   C2B 5294  13.692  13.728   8.876  0.3180  0.1269  0.0887
  331loPI   C3B 5295  13.530  13.862   8.398 -0.3303 -0.0373  0.0113
  331loPI   C4B 5296  13.527  14.311   8.290 -0.0492  0.0344  0.1602
  332loPI    C1 5297  18.239  13.485   9.945 -0.0583 -0.0528  0.0147
  332loPI    C2 5298  18.533  13.542   9.680  0.0996 -0.0094  0.1962
  332loPI    C3 5299  18.589  13.640  10.063 -0.1493 -0.0112  0.2345
  332loPI   PO4 5300  18.136  13.283   9.838 -0.1385  0.0898  0.1144
  332loPI   GL1 5301  18.286  13.064   9.571 -0.1655  0.1038  0.2482
  332loPI   GL2 5302  17.937  13.040   9.397  0.4523  0.0143  0.1054
  332loPI   C1A 5303  18.293  13.243   9.123  0.3319  0.0222 -0.0595
  332loPI   C2A 5304  18.149  13.392   8.607 -0.0944 -0.3950 -0.0999
  332loPI   C3A 5305  17.946  13.408   8.206 -0.0781  0.4232 -0.3858
  332loPI   C4A 5306  17.813  13.492   7.902  0.1855 -0.1197  0.2896
  332loPI   C5A 5307  18.038  13.273   7.514 -0.0229 -0.2097  0.1522
  332loPI   C6A 5308  18.496  13.036   7.656 -0.0721 -0.1987 -0.2842
  332loPI   C1B 5309  17.815  13.052   9.044  0.3266  0.1975 -0.0372
  332loPI   C2B 5310  17.684  13.216   8.704 -0.1967 -0.1681 -0.2881
  332loPI   C3B 5311  17.502  13.307   8.305  0.0358  0.0656 -0.1573
  332loPI   C4B 5312  17.200  13.550   8.086 -0.0287  0.0255  0.2564
  333loPI    C1 5313   7.261   6.688  11.313  0.1284 -0.0568  0.0692
  333loPI    C2 5314   7.631   6.568  11.222  0.1936  0.0255  0.2213
  333loPI    C3 5315   7.542   6.673  11.597  0.0056 -0.0305  0.1933
  333loPI   PO4 5316   7.179   6.871  10.963  0.2032 -0.2841 -0.0362
  333loPI   GL1 5317   7.083   7.015  10.496  0.0124  0.2057  0.0989
  333loPI   GL2 5318   6.851   7.186  10.297 -0.0201 -0.0927 -0.1259
  333loPI   C1A 5319   6.972   6.718  10.113 -0.1609  0.0627 -0.0319
  333loPI   C2A 5320   6.999   6.696   9.598 -0.0100 -0.1606 -0.1499
  333loPI   C3A 5321   7.383   6.711   9.187 -0.1645  0.1285 -0.0867
  333loPI   C4A 5322   7.562   6.418   8.896  0.0605  0.0388  0.1757
  333loPI   C5A 5323   7.753   6.579   8.539 -0.1071 -0.1270  0.1628
  333loPI   C6A 5324   8.128   6.724   8.240 -0.2512  0.0757 -0.4051
  333loPI   C1B 5325   6.886   7.173   9.925  0.2070 -0.1282 -0.1093
  333loPI   C2B 5326   6.744   7.137   9.637 -0.0501  0.0148 -0.0003
  333loPI   C3B 5327   6.850   7.044   9.206 -0.2769  0.3414 -0.1902
  333loPI   C4B 5328   6.984   7.029   8.777 -0.4989 -0.0137  0.0920
  334loPI    C1 5329   0.111  15.513  10.175  0.0033 -0.1734 -0.1543
  334loPI    C2 5330  -0.267  15.394  10.233  0.0026 -0.0164  0.1863
  334loPI    C3 5331  -0.134  15.729  10.407  0.2053  0.1091 -0.1987
  334loPI   PO4 5332   0.046  15.484   9.874  0.1383 -0.0662 -0.2373
  334loPI   GL1 5333   0.201  15.504   9.519 -0.1227 -0.1798  0.1498
  334loPI   GL2 5334  -0.094  15.685   9.438  0.0757 -0.1150 -0.0052
  334loPI   C1A 5335   0.137  15.633   8.992  0.0542 -0.1544 -0.1178
  334loPI   C2A 5336  -0.192  15.792   8.863  0.3013  0.1009  0.0293
  334loPI   C3A 5337  -0.575  15.709   8.563 -0.0093  0.0803  0.0006
  334loPI   C4A 5338  -0.679  15.880   8.113 -0.0171 -0.1869  0.1130
  334loPI   C5A 5339  -0.368  15.958   7.736 -0.1461 -0.1154 -0.0120
  334loPI   C6A 5340   0.030  15.692   7.721  0.1899  0.0727 -0.1384
  334loPI   C1B 5341  -0.478  15.970   9.338 -0.0605 -0.2115  0.1464
  334loPI   C2B 5342  -0.537  16.278   9.014 -0.4447  0.0459 -0.3183
  334loPI   C3B 5343  -0.601  16.219   8.555 -0.1002  0.1662  0.1996
  334loPI   C4B 5344  -0.608  16.445   8.205 -0.1137  0.2031 -0.0852
  335loPI    C1 5345   1.093  18.256  10.758 -0.1571  0.0672  0.0169
  335loPI    C2 5346   0.751  18.136  10.589 -0.0203 -0.0059 -0.2122
  335loPI    C3 5347   1.044  17.872  10.656 -0.0078  0.0560 -0.0153
  335loPI   PO4 5348   1.155  18.418  10.645  0.0414 -0.0053  0.1533
  335loPI   GL1 5349   1.183  18.475  10.213  0.1704  0.2644 -0.0409
  335loPI   GL2 5350   1.509  18.672  10.350 -0.2391  0.2527  0.1942
  335loPI   C1A 5351   1.080  18.719   9.867 -0.1208  0.0712 -0.2727
  335loPI   C2A 5352   1.038  18.892   9.436 -0.2940 -0.0269 -0.0944
  335loPI   C3A 5353   1.329  19.163   9.219  0.2035 -0.1542  0.1498
  335loPI   C4A 5354   1.193  19.277   8.778 -0.0987  0.1440 -0.0201
  335loPI   C5A 5355   1.183  19.153   8.298 -0.1450  0.3272 -0.0837
  335loPI   C6A 5356   1.525  19.208   7.967  0.2080 -0.1520  0.1120
  335loPI   C1B 5357   1.607  18.434   9.916  0.1221 -0.1146  0.1684
  335loPI   C2B 5358   1.696  18.195   9.590 -0.0703  0.0058  0.0038
  335loPI   C3B 5359   1.533  17.985   9.166  0.1724 -0.0063  0.0131
  335loPI   C4B 5360   1.099  18.038   8.851 -0.1821 -0.0920 -0.2877
  336loPI    C1 5361  16.083   8.387  10.243  0.0442  0.1294 -0.0388
  336loPI    C2 5362  16.351   8.091  10.255 -0.2068 -0.1036 -0.1016
  336loPI    C3 5363  16.197   8.234  10.595 -0.0516 -0.0128 -0.0687
  336loPI   PO4 5364  15.963   8.356   9.937 -0.1772  0.0704  0.3372
  336loPI   GL1 5365  15.695   8.470   9.534  0.0131  0.0305  0.1058
  336loPI   GL2 5366  15.957   8.219   9.451 -0.3931  0.2341  0.2353
  336loPI   C1A 5367  15.622   8.576   9.093 -0.1424  0.1589 -0.0958
  336loPI   C2A 5368  15.587   8.612   8.588  0.2569  0.2055  0.1035
  336loPI   C3A 5369  15.507   8.351   8.202 -0.1259 -0.0076  0.0838
  336loPI   C4A 5370  15.378   8.183   7.897  0.0047 -0.0264  0.1641
  336loPI   C5A 5371  15.192   7.796   7.715  0.0029 -0.1558 -0.1886
  336loPI   C6A 5372  14.811   7.814   7.429 -0.0994  0.2404  0.2660
  336loPI   C1B 5373  15.987   8.075   9.089 -0.1821  0.2325  0.0272
  336loPI   C2B 5374  15.958   8.334   8.746  0.1196 -0.5343 -0.0195
  336loPI   C3B 5375  15.998   8.418   8.299 -0.0002 -0.0925 -0.0247
  336loPI   C4B 5376  15.987   8.375   7.888  0.3947 -0.0212  0.2620
  337loPI    C1 5377  10.231  10.190  10.346 -0.1555  0.1926 -0.1026
  337loPI    C2 5378   9.832  10.171  10.335 -0.1448 -0.2479  0.0841
  337loPI    C3 5379  10.025  10.123  10.682  0.0725 -0.0076 -0.0004
  337loPI   PO4 5380  10.322  10.103  10.154 -0.0702 -0.2037 -0.1174
  337loPI   GL1 5381  10.292   9.939   9.710  0.0265  0.1407  0.1334
  337loPI   GL2 5382  10.278   9.640   9.647 -0.2811 -0.1922 -0.0042
  337loPI   C1A 5383  10.083   9.941   9.278  0.1047 -0.0352 -0.1650
  337loPI   C2A 5384  10.125   9.735   8.922  0.0529 -0.0746 -0.0093
  337loPI   C3A 5385  10.008   9.672   8.502 -0.0587  0.0884  0.1673
  337loPI   C4A 5386   9.861   9.692   8.054 -0.0259 -0.1084 -0.0870
  337loPI   C5A 5387   9.737   9.913   7.646  0.2304  0.2028  0.2660
  337loPI   C6A 5388   9.428  10.178   7.553  0.2253 -0.1829  0.2403
  337loPI   C1B 5389  10.110   9.315   9.413  0.2681 -0.1274  0.0806
  337loPI   C2B 5390  10.114   9.235   9.021 -0.0244  0.2564 -0.2863
  337loPI   C3B 5391  10.044   9.215   8.568 -0.1960  0.2311  0.2161
  337loPI   C4B 5392  10.210   9.093   8.179  0.2025  0.1053  0.0847
  338loPI    C1 5393  11.906  15.161  10.554 -0.0458  0.0372 -0.0060
  338loPI    C2 5394  11.525  15.272  10.503 -0.0070  0.0748 -0.2227
  338loPI    C3 5395  11.800  15.542  10.610 -0.0935 -0.0095  0.2334
  338loPI   PO4 5396  11.901  14.957  10.295  0.0478 -0.0648  0.1658
  338loPI   GL1 5397  11.774  14.816   9.942 -0.1589 -0.1918 -0.0773
  338loPI   GL2 5398  11.707  14.549   9.804 -0.0503 -0.0194  0.0639
  338loPI   C1A 5399  12.012  14.872   9.496  0.0062 -0.3032  0.0657
  338loPI   C2A 5400  11.978  14.912   9.034  0.1150  0.2252  0.2069
  338loPI   C3A 5401  12.038  14.906   8.598 -0.1661  0.1400 -0.1344
  338loPI   C4A 5402  12.175  14.975   8.251 -0.2219 -0.0867  0.3282
  338loPI   C5A 5403  12.385  15.264   7.949 -0.2133  0.2864  0.1144
  338loPI   C6A 5404  12.814  15.330   7.601 -0.1648 -0.0138  0.0935
  338loPI   C1B 5405  11.637  14.536   9.400  0.2431  0.0772 -0.0168
  338loPI   C2B 5406  11.581  14.642   8.992 -0.0232 -0.1438 -0.4100
  338loPI   C3B 5407  11.586  14.642   8.512  0.0084 -0.1426 -0.0852
  338loPI   C4B 5408  11.428  14.622   8.100 -0.0809 -0.1336  0.4105
  339loPI    C1 5409   4.063  11.701   9.827 -0.0462  0.0245  0.0153
  339loPI    C2 5410   4.219  11.878  10.150  0.0335 -0.0351  0.0097
  339loPI    C3 5411   4.020  11.533  10.187  0.1514 -0.1073 -0.0204
  339loPI   PO4 5412   4.138  11.908   9.634  0.0956 -0.0756  0.2851
  339loPI   GL1 5413   4.050  12.078   9.292  0.1550 -0.2033  0.1024
  339loPI   GL2 5414   3.900  11.838   9.092  0.2316 -0.1388  0.0234
  339loPI   C1A 5415   4.060  12.537   8.995  0.1107 -0.3638 -0.1707
  339loPI   C2A 5416   4.093  12.783   8.644  0.0727 -0.0506 -0.1266
  339loPI   C3A 5417   3.838  12.791   8.314 -0.0126 -0.1453 -0.0004
  339loPI   C4A 5418   3.771  12.813   7.914 -0.1247 -0.0337  0.0688
  339loPI   C5A 5419   3.585  12.857   7.415  0.0575  0.0874 -0.0188
  339loPI   C6A 5420   3.471  12.949   6.958 -0.1130  0.0470  0.2311
  339loPI   C1B 5421   3.990  11.798   8.683 -0.0551 -0.3116  0.0072
  339loPI   C2B 5422   4.116  11.824   8.255  0.3934 -0.2145 -0.1085
  339loPI   C3B 5423   4.265  11.834   7.803  0.0247 -0.0717 -0.3582
  339loPI   C4B 5424   4.091  11.883   7.299  0.1128 -0.1041  0.1279
  340loPI    C1 5425   9.717   9.108  10.634 -0.0778  0.0321  0.1082
  340loPI    C2 5426   9.641   8.763  10.822 -0.2116 -0.0204 -0.0398
  340loPI    C3 5427   9.728   9.091  11.034 -0.1484 -0.1288  0.1041
  340loPI   PO4 5428   9.477   9.114  10.389  0.0578 -0.1460  0.0863
  340loPI   GL1 5429   9.294   9.023   9.994 -0.3375  0.0453  0.0871
  340loPI   GL2 5430   9.267   8.718  10.025  0.0359 -0.0476 -0.0079
  340loPI   C1A 5431   9.217   9.185   9.531 -0.1823  0.2351  0.0084
  340loPI   C2A 5432   8.960   9.065   9.163 -0.1978 -0.1702 -0.3149
  340loPI   C3A 5433   9.091   8.926   8.749  0.2102 -0.1608 -0.3484
  340loPI   C4A 5434   9.368   8.872   8.447  0.5793 -0.1129 -0.1643
  340loPI   C5A 5435   9.418   8.526   8.110 -0.0450 -0.1194 -0.0016
  340loPI   C6A 5436   9.774   8.398   7.952  0.1980 -0.1964  0.1391
  340loPI   C1B 5437   9.356   8.699   9.561 -0.1835  0.1097  0.0011
  340loPI   C2B 5438   9.425   8.647   9.060  0.1136  0.0021 -0.3045
  340loPI   C3B 5439   9.576   8.433   8.644  0.2447 -0.0080 -0.0671
  340loPI   C4B 5440   9.477   8.128   8.343 -0.0107 -0.0307  0.1099
  341loPI    C1 5441   3.728  10.051  10.016  0.1523  0.1052  0.0021
  341loPI    C2 5442   3.821   9.663   9.985 -0.0451  0.0582 -0.0134
  341loPI    C3 5443   4.036   9.901  10.223  0.1388 -0.0389 -0.0804
  341loPI   PO4 5444   3.619  10.114   9.746 -0.1420 -0.1050 -0.0370
  341loPI   GL1 5445   3.778  10.189   9.333 -0.1824 -0.0210  0.2218
  341loPI   GL2 5446   4.052  10.102   9.187 -0.0656  0.3103 -0.0691
  341loPI   C1A 5447   3.627   9.843   9.032  0.3538 -0.1173 -0.1077
  341loPI   C2A 5448   3.625   9.518   8.770 -0.1225  0.2699  0.1953
  341loPI   C3A 5449   3.800   9.223   8.447 -0.1242 -0.0418  0.0483
  341loPI   C4A 5450   3.869   8.754   8.262 -0.0824 -0.2235  0.1344
  341loPI   C5A 5451   3.772   8.545   7.859 -0.0257  0.0772  0.0958
  341loPI   C6A 5452   3.716   8.654   7.516  0.1213  0.2006 -0.2686
  341loPI   C1B 5453   4.411   9.906   9.019 -0.0204  0.1593  0.1057
  341loPI   C2B 5454   4.536   9.982   8.577  0.2748  0.1254  0.2227
  341loPI   C3B 5455   4.382  10.208   8.109 -0.6102  0.3260 -0.2158
  341loPI   C4B 5456   4.194   9.933   7.862  0.3116 -0.2565  0.0635
  342loPI    C1 5457   2.598  12.359  10.306  0.0811  0.2003 -0.1420
  342loPI    C2 5458   2.341  12.666  10.305 -0.2772 -0.0923 -0.0792
  342loPI    C3 5459   2.465  12.510  10.652  0.3689  0.3497 -0.0932
  342loPI   PO4 5460   2.740  12.375  10.150 -0.2009 -0.2376 -0.0976
  342loPI   GL1 5461   2.582  12.293   9.722  0.0165  0.3673 -0.2107
  342loPI   GL2 5462   2.360  12.107   9.636 -0.1750 -0.3933  0.1957
  342loPI   C1A 5463   2.456  12.426   9.198 -0.2030 -0.4093  0.0992
  342loPI   C2A 5464   2.386  12.368   8.778 -0.0393  0.1410 -0.1496
  342loPI   C3A 5465   2.506  12.225   8.373 -0.0072 -0.0158  0.1943
  342loPI   C4A 5466   2.734  11.894   7.982 -0.0615  0.0452 -0.0913
  342loPI   C5A 5467   2.968  11.661   7.697 -0.1955  0.0125 -0.0067
  342loPI   C6A 5468   3.299  11.621   7.431  0.0416  0.0282 -0.0566
  342loPI   C1B 5469   2.392  11.875   9.239 -0.5033  0.1155  0.2773
  342loPI   C2B 5470   2.339  11.864   8.772 -0.0112  0.2773 -0.0292
  342loPI   C3B 5471   2.418  11.694   8.337  0.1379  0.0516 -0.0159
  342loPI   C4B 5472   2.252  11.626   7.966  0.0279  0.5194  0.1542
  343loPI    C1 5473   0.982   3.306  10.523  0.0541  0.3080  0.0498
  343loPI    C2 5474   0.774   3.565  10.746 -0.2210 -0.0384  0.2041
  343loPI    C3 5475   1.088   3.374  10.903 -0.1955 -0.0149  0.1817
  343loPI   PO4 5476   1.064   3.432  10.323 -0.1849  0.2331  0.1931
  343loPI   GL1 5477   1.389   3.421   9.956  0.0739 -0.2015 -0.0040
  343loPI   GL2 5478   1.621   3.197  10.024  0.1886 -0.2554  0.1516
  343loPI   C1A 5479   1.458   3.561   9.520  0.2040 -0.0918  0.0365
  343loPI   C2A 5480   1.405   3.461   9.083  0.0829  0.0364 -0.4670
  343loPI   C3A 5481   1.125   3.339   8.660 -0.0381  0.1590 -0.1467
  343loPI   C4A 5482   1.072   3.489   8.271 -0.0775 -0.1980 -0.2783
  343loPI   C5A 5483   0.906   3.382   7.843 -0.2230 -0.1788  0.0173
  343loPI   C6A 5484   0.887   3.050   7.571 -0.0211 -0.0563  0.0347
  343loPI   C1B 5485   1.932   3.457   9.707 -0.0647  0.1693 -0.5551
  343loPI   C2B 5486   1.833   3.423   9.238 -0.0853  0.1954 -0.0855
  343loPI   C3B 5487   1.905   3.437   8.774  0.1681  0.0806  0.1201
  343loPI   C4B 5488   2.138   3.628   8.388 -0.0297 -0.2336  0.1319
  344loPI    C1 5489  11.787   5.779  10.838  0.0733 -0.2513 -0.1161
  344loPI    C2 5490  12.138   5.886  10.679  0.0915  0.0719  0.1313
  344loPI    C3 5491  12.127   5.695  11.031  0.0189  0.0716  0.1289
  344loPI   PO4 5492  11.622   5.812  10.554 -0.0626  0.0564 -0.2623
  344loPI   GL1 5493  11.419   5.530  10.311  0.0851  0.1357 -0.1716
  344loPI   GL2 5494  11.331   5.935  10.116  0.0945 -0.1602 -0.0260
  344loPI   C1A 5495  11.716   5.472   9.945 -0.1308 -0.2166 -0.0101
  344loPI   C2A 5496  11.698   5.283   9.505  0.0023 -0.0575  0.0903
  344loPI   C3A 5497  11.761   5.388   9.098 -0.1167 -0.1695  0.0123
  344loPI   C4A 5498  11.673   5.349   8.598  0.0107  0.0664 -0.2752
  344loPI   C5A 5499  11.402   5.501   8.382  0.0984  0.3263 -0.0803
  344loPI   C6A 5500  11.085   5.771   8.406  0.3768  0.0329 -0.0402
  344loPI   C1B 5501  11.443   5.765   9.663  0.2270  0.0956 -0.3053
  344loPI   C2B 5502  11.249   5.710   9.272  0.1831  0.1818  0.2326
  344loPI   C3B 5503  11.237   5.476   8.917  0.3925  0.1976 -0.0747
  344loPI   C4B 5504  10.899   5.385   8.602 -0.1752 -0.0677  0.1787
  345loPI    C1 5505   5.144  14.932  10.121 -0.2617  0.2901 -0.3118
  345loPI    C2 5506   4.765  14.890  10.242 -0.1068 -0.2692  0.0171
  345loPI    C3 5507   5.053  14.968  10.509  0.0554 -0.1606 -0.1864
  345loPI   PO4 5508   5.046  14.734   9.836  0.3098 -0.0979  0.0208
  345loPI   GL1 5509   4.825  14.569   9.489 -0.1304  0.3048  0.1194
  345loPI   GL2 5510   4.605  14.373   9.290 -0.1222 -0.1024 -0.0231
  345loPI   C1A 5511   4.989  14.416   8.925 -0.1826 -0.0582  0.1919
  345loPI   C2A 5512   4.960  14.594   8.495  0.3955  0.1039 -0.1378
  345loPI   C3A 5513   5.058  14.742   8.135  0.3197 -0.1079 -0.3357
  345loPI   C4A 5514   5.082  14.655   7.662 -0.1464 -0.0749  0.0275
  345loPI   C5A 5515   4.982  14.911   7.396  0.2671  0.0692  0.1847
  345loPI   C6A 5516   5.325  14.968   7.108 -0.0641  0.2374 -0.0770
  345loPI   C1B 5517   4.518  14.411   8.712  0.0502 -0.0630 -0.1398
  345loPI   C2B 5518   4.497  14.473   8.307 -0.0579 -0.0555 -0.3386
  345loPI   C3B 5519   4.372  14.336   7.897  0.1295 -0.2583 -0.0620
  345loPI   C4B 5520   4.233  14.137   7.555 -0.2524 -0.1009 -0.0121
  346loPI    C1 5521  16.270  16.350  10.213 -0.4964 -0.4551 -0.0319
  346loPI    C2 5522  16.459  16.212  10.538 -0.0293  0.0314 -0.0837
  346loPI    C3 5523  16.133  16.440  10.578  0.0085  0.0639  0.0439
  346loPI   PO4 5524  16.463  16.523  10.116  0.2362  0.0721  0.1520
  346loPI   GL1 5525  16.468  16.653   9.823  0.2142  0.1575 -0.2935
  346loPI   GL2 5526  16.168  16.853   9.924  0.5235  0.1925 -0.3094
  346loPI   C1A 5527  16.622  16.954   9.576 -0.1651  0.1236  0.5607
  346loPI   C2A 5528  16.591  17.056   9.104 -0.0059 -0.2122 -0.2053
  346loPI   C3A 5529  16.519  16.973   8.677 -0.3667 -0.1002  0.3372
  346loPI   C4A 5530  16.300  17.093   8.418  0.0254  0.1780  0.2117
  346loPI   C5A 5531  15.979  16.909   8.294 -0.1793 -0.1936  0.1642
  346loPI   C6A 5532  15.858  16.817   7.914 -0.0552 -0.0538  0.4515
  346loPI   C1B 5533  16.131  17.039   9.576 -0.4617 -0.2722 -0.1407
  346loPI   C2B 5534  16.108  17.082   9.062  0.1060  0.1371  0.2800
  346loPI   C3B 5535  15.842  17.237   8.747 -0.1262 -0.2070  0.0857
  346loPI   C4B 5536  15.814  17.467   8.391 -0.1107  0.3744 -0.0292
  347loPI    C1 5537   1.308   2.760  10.465 -0.1658  0.2321 -0.1628
  347loPI    C2 5538   1.493   3.111  10.517  0.2391  0.0187 -0.1175
  347loPI    C3 5539   1.584   2.801  10.753  0.0152 -0.1678 -0.2723
  347loPI   PO4 5540   1.221   2.865  10.177  0.0316  0.1215  0.0029
  347loPI   GL1 5541   0.895   2.631   9.870  0.4154 -0.3059  0.0621
  347loPI   GL2 5542   0.686   2.410  10.016 -0.1959  0.0215  0.3059
  347loPI   C1A 5543   0.992   2.670   9.441  0.1744 -0.0296  0.0043
  347loPI   C2A 5544   0.830   2.941   9.010 -0.1822  0.1257 -0.2710
  347loPI   C3A 5545   1.011   2.877   8.613 -0.2758 -0.2289  0.2628
  347loPI   C4A 5546   1.071   2.923   8.224  0.2700 -0.0845 -0.2659
  347loPI   C5A 5547   0.649   3.087   8.112 -0.0412 -0.0142 -0.1742
  347loPI   C6A 5548   0.440   3.487   8.046  0.3096  0.2051 -0.1840
  347loPI   C1B 5549   0.570   2.324   9.641 -0.0238 -0.1532  0.1042
  347loPI   C2B 5550   0.596   2.162   9.204  0.0928 -0.0976 -0.2847
  347loPI   C3B 5551   0.567   1.836   8.868 -0.0856 -0.1790  0.0543
  347loPI   C4B 5552   0.649   1.604   8.471 -0.0327  0.0307  0.2114
  348loPI    C1 5553  16.014   3.195  10.815  0.0554 -0.0397  0.2096
  348loPI    C2 5554  16.181   3.533  10.950 -0.1175  0.1527 -0.0476
  348loPI    C3 5555  15.921   3.333  11.178 -0.0274  0.2012  0.0989
  348loPI   PO4 5556  15.926   3.156  10.589 -0.0183 -0.0913  0.0005
  348loPI   GL1 5557  15.934   3.107  10.227 -0.1464 -0.2684 -0.0239
  348loPI   GL2 5558  16.199   3.092  10.107  0.2333 -0.0644 -0.1554
  348loPI   C1A 5559  15.715   3.189   9.857  0.0394 -0.0100  0.0498
  348loPI   C2A 5560  15.478   3.168   9.493  0.0839 -0.0575  0.2274
  348loPI   C3A 5561  15.345   3.165   9.020 -0.2134  0.1601  0.0025
  348loPI   C4A 5562  15.390   3.096   8.611  0.1196 -0.0462 -0.0493
  348loPI   C5A 5563  15.442   2.885   8.216  0.0099 -0.0113 -0.0811
  348loPI   C6A 5564  15.698   2.419   8.244  0.1031  0.1695 -0.0307
  348loPI   C1B 5565  16.150   3.137   9.650 -0.0105  0.3094 -0.2788
  348loPI   C2B 5566  15.951   3.275   9.335  0.1856 -0.2756  0.1832
  348loPI   C3B 5567  15.809   3.336   9.035 -0.2046 -0.1431  0.1032
  348loPI   C4B 5568  15.767   3.555   8.679 -0.0349  0.1015 -0.0240
  349loPI    C1 5569  15.737  10.695   9.525 -0.0133 -0.0714 -0.0247
  349loPI    C2 5570  15.825  10.790   9.903 -0.0611 -0.1134 -0.0030
  349loPI    C3 5571  16.019  10.491   9.721 -0.0506 -0.1048 -0.0058
  349loPI   PO4 5572  15.723  10.904   9.431  0.2074  0.2008 -0.1621
  349loPI   GL1 5573  15.842  10.943   9.044  0.0102  0.1421  0.0320
  349loPI   GL2 5574  15.704  11.198   8.983 -0.3456 -0.0510 -0.0062
  349loPI   C1A 5575  15.886  10.859   8.520  0.2274  0.2959 -0.1147
  349loPI   C2A 5576  15.883  11.098   8.130 -0.2194  0.0870  0.1024
  349loPI   C3A 5577  16.097  11.430   7.965  0.1753 -0.2883  0.0809
  349loPI   C4A 5578  16.352  11.579   7.718 -0.0975 -0.0965  0.0364
  349loPI   C5A 5579  16.491  11.817   7.329 -0.1490 -0.1221 -0.0106
  349loPI   C6A 5580  16.306  11.801   7.017  0.0572 -0.0557  0.1354
  349loPI   C1B 5581  15.776  11.464   8.474  0.1769 -0.1406 -0.2358
  349loPI   C2B 5582  15.477  11.520   7.956 -0.1614  0.1430 -0.3150
  349loPI   C3B 5583  15.042  11.582   7.697 -0.1504 -0.0009 -0.1885
  349loPI   C4B 5584  14.639  11.527   7.467  0.2727  0.0122  0.4782
  350loPI    C1 5585   6.748  11.570   9.467  0.0772  0.0671 -0.1786
  350loPI    C2 5586   6.481  11.762   9.239 -0.2491  0.0919  0.2134
  350loPI    C3 5587   6.779  11.965   9.413 -0.3502  0.1744  0.2914
  350loPI   PO4 5588   6.690  11.289   9.394 -0.1396  0.0298  0.2106
  350loPI   GL1 5589   6.758  11.254   8.999 -0.2525  0.3748 -0.0559
  350loPI   GL2 5590   6.748  11.505   8.884 -0.1255 -0.0323 -0.3695
  350loPI   C1A 5591   7.120  11.210   8.711  0.0578  0.3037  0.0457
  350loPI   C2A 5592   7.095  11.343   8.286 -0.1543  0.2510  0.0335
  350loPI   C3A 5593   7.042  11.393   7.827 -0.2113  0.1778  0.1237
  350loPI   C4A 5594   7.068  11.407   7.349 -0.0204 -0.0383 -0.2251
  350loPI   C5A 5595   7.330  11.323   6.903 -0.0718 -0.0143 -0.2441
  350loPI   C6A 5596   7.630  11.437   6.508 -0.1024 -0.0111 -0.1370
  350loPI   C1B 5597   6.622  11.349   8.450  0.1931  0.1950 -0.0415
  350loPI   C2B 5598   6.563  11.589   8.092  0.1831  0.0624  0.0481
  350loPI   C3B 5599   6.620  11.655   7.681  0.1878  0.0472  0.1034
  350loPI   C4B 5600   6.733  11.743   7.307  0.1805  0.0551  0.2584
  351loPI    C1 5601  12.681   3.878  10.822 -0.0810 -0.0169 -0.2614
  351loPI    C2 5602  12.577   3.841  11.207  0.0471  0.1901 -0.2054
  351loPI    C3 5603  12.372   3.645  10.925  0.1412 -0.2064 -0.0065
  351loPI   PO4 5604  13.026   3.849  10.665 -0.1190 -0.0067  0.1807
  351loPI   GL1 5605  13.495   3.838  10.463 -0.0859  0.0380 -0.1988
  351loPI   GL2 5606  13.641   4.064  10.320 -0.3222 -0.3400 -0.0853
  351loPI   C1A 5607  13.258   3.786  10.048 -0.0645 -0.2397 -0.2946
  351loPI   C2A 5608  12.933   3.938   9.899 -0.1376  0.2325  0.1750
  351loPI   C3A 5609  12.623   3.693   9.815  0.0709  0.3002  0.2261
  351loPI   C4A 5610  12.312   3.754   9.498 -0.1560 -0.0414  0.1117
  351loPI   C5A 5611  12.224   3.747   9.033  0.1202  0.4290 -0.2267
  351loPI   C6A 5612  11.942   3.896   8.781 -0.0744 -0.1893 -0.1782
  351loPI   C1B 5613  13.795   4.037   9.901 -0.0131  0.0095 -0.0683
  351loPI   C2B 5614  13.991   4.167   9.631 -0.0861 -0.2546 -0.2394
  351loPI   C3B 5615  13.937   4.276   9.255  0.1726 -0.0776 -0.1114
  351loPI   C4B 5616  13.822   4.369   8.693  0.1620  0.1390  0.0203
  352loPI    C1 5617  16.576  17.260  10.909  0.0159  0.1218 -0.0519
  352loPI    C2 5618  16.291  17.488  11.075 -0.1641 -0.0166 -0.1670
  352loPI    C3 5619  16.425  17.163  11.267 -0.1333  0.0097 -0.1442
  352loPI   PO4 5620  16.396  17.278  10.613 -0.1091  0.2722  0.0836
  352loPI   GL1 5621  16.187  17.358  10.194 -0.0881  0.1826 -0.1665
  352loPI   GL2 5622  15.864  17.316  10.237  0.1706  0.0073  0.0928
  352loPI   C1A 5623  16.377  17.451   9.789 -0.0635  0.0590  0.1814
  352loPI   C2A 5624  16.289  17.529   9.331 -0.0589 -0.1601 -0.1146
  352loPI   C3A 5625  16.337  17.454   8.884 -0.0712 -0.1172 -0.2018
  352loPI   C4A 5626  16.282  17.577   8.431 -0.4275  0.2106 -0.3102
  352loPI   C5A 5627  16.131  17.737   7.990  0.2028  0.0864 -0.2868
  352loPI   C6A 5628  16.289  17.581   7.610  0.1084  0.1484  0.0767
  352loPI   C1B 5629  15.775  17.389   9.785  0.0442 -0.1431  0.2100
  352loPI   C2B 5630  15.795  17.494   9.330  0.3029  0.0797 -0.0268
  352loPI   C3B 5631  15.507  17.672   9.002 -0.0871  0.1770 -0.2247
  352loPI   C4B 5632  15.403  17.642   8.665 -0.2703  0.0710  0.3295
  353loPI    C1 5633  13.128   7.380  10.311  0.0893 -0.0693  0.0287
  353loPI    C2 5634  13.034   7.249  10.677 -0.0512  0.2184  0.0984
  353loPI    C3 5635  13.031   7.641  10.598 -0.2435  0.1469 -0.2723
  353loPI   PO4 5636  13.375   7.232  10.235 -0.4081 -0.3548  0.0732
  353loPI   GL1 5637  13.580   7.191   9.917  0.1356  0.4339  0.0706
  353loPI   GL2 5638  13.276   7.254   9.763  0.0379 -0.1376 -0.1934
  353loPI   C1A 5639  13.457   6.785   9.688  0.0241  0.0873 -0.2185
  353loPI   C2A 5640  13.290   6.675   9.303 -0.0556 -0.1432  0.4647
  353loPI   C3A 5641  13.432   6.667   9.019 -0.1894 -0.1864  0.1978
  353loPI   C4A 5642  13.586   6.502   8.666 -0.2453 -0.1900  0.1496
  353loPI   C5A 5643  13.343   6.327   8.412 -0.1023  0.1477 -0.1141
  353loPI   C6A 5644  13.398   5.953   8.045 -0.0046  0.0421 -0.1185
  353loPI   C1B 5645  13.201   7.223   9.291  0.0380  0.1070 -0.2007
  353loPI   C2B 5646  13.150   6.995   8.854  0.0432 -0.1243 -0.0433
  353loPI   C3B 5647  13.164   6.779   8.570  0.2055 -0.1468 -0.2552
  353loPI   C4B 5648  12.951   6.761   8.174 -0.0916  0.1129  0.0838
  354loPI    C1 5649   1.790  14.286  10.166 -0.1105  0.0647  0.0786
  354loPI    C2 5650   2.078  14.538  10.282 -0.1619  0.1588  0.0030
  354loPI    C3 5651   1.978  14.228  10.514  0.0281  0.1020  0.0104
  354loPI   PO4 5652   1.648  14.485  10.035  0.0980  0.0750  0.2980
  354loPI   GL1 5653   1.746  14.653   9.689 -0.1630  0.2695 -0.0698
  354loPI   GL2 5654   2.073  14.564   9.812 -0.1334 -0.0632  0.1209
  354loPI   C1A 5655   1.664  14.463   9.267  0.0911 -0.1165  0.2256
  354loPI   C2A 5656   1.709  14.312   8.864 -0.0760  0.0649  0.0336
  354loPI   C3A 5657   1.621  14.324   8.481  0.0633  0.0059  0.1444
  354loPI   C4A 5658   1.703  14.400   8.054 -0.1004 -0.2093 -0.3894
  354loPI   C5A 5659   1.900  14.281   7.695 -0.0599 -0.2524  0.2221
  354loPI   C6A 5660   2.124  14.143   7.304  0.0187 -0.0873 -0.0410
  354loPI   C1B 5661   2.167  14.452   9.266  0.0850 -0.0045 -0.0740
  354loPI   C2B 5662   2.248  14.279   8.836 -0.0374 -0.3065 -0.1044
  354loPI   C3B 5663   2.043  14.167   8.394 -0.2000 -0.2921 -0.1875
  354loPI   C4B 5664   1.927  13.907   8.082 -0.2292 -0.1405  0.1220
  355loPI    C1 5665  17.664   8.509   9.942  0.0535 -0.0837 -0.2213
  355loPI    C2 5666  17.277   8.492  10.041  0.0517  0.0283 -0.2081
  355loPI    C3 5667  17.555   8.541  10.325  0.0598  0.1605 -0.2382
  355loPI   PO4 5668  17.579   8.526   9.619 -0.1855 -0.1206 -0.4512
  355loPI   GL1 5669  17.644   8.710   9.215  0.1555 -0.0728 -0.3183
  355loPI   GL2 5670  17.884   8.478   9.220 -0.2147  0.0822  0.1971
  355loPI   C1A 5671  17.454   8.469   8.918  0.2901  0.3084  0.0589
  355loPI   C2A 5672  17.376   8.302   8.460 -0.0563  0.1896  0.0424
  355loPI   C3A 5673  17.505   8.383   8.053  0.1984 -0.1338  0.1495
  355loPI   C4A 5674  17.528   8.336   7.506 -0.1422 -0.1717 -0.2110
  355loPI   C5A 5675  17.905   8.326   7.255  0.3959 -0.1288  0.1822
  355loPI   C6A 5676  18.186   8.252   6.952  0.0866  0.0099  0.4120
  355loPI   C1B 5677  17.866   8.671   8.795 -0.0065  0.2901 -0.1393
  355loPI   C2B 5678  17.719   8.637   8.426 -0.2926  0.1393 -0.0854
  355loPI   C3B 5679  17.933   8.702   8.146  0.3850  0.1864 -0.5019
  355loPI   C4B 5680  17.851   8.695   7.756  0.1046  0.2684  0.0486
  356loPI    C1 5681   1.114  12.055  10.034 -0.2945 -0.1610  0.0742
  356loPI    C2 5682   1.198  12.440  10.107  0.0280 -0.1863 -0.1421
  356loPI    C3 5683   1.080  12.201  10.405 -0.0045  0.0370  0.0266
  356loPI   PO4 5684   1.344  12.091   9.805 -0.2467  0.1027 -0.1169
  356loPI   GL1 5685   1.412  12.247   9.432  0.1839  0.0324 -0.3410
  356loPI   GL2 5686   1.515  12.468   9.230 -0.0221  0.2928  0.1085
  356loPI   C1A 5687   1.010  12.314   9.290 -0.0598 -0.4152  0.1409
  356loPI   C2A 5688   0.886  12.654   8.982  0.1369  0.0061  0.1831
  356loPI   C3A 5689   1.076  12.722   8.575  0.3026  0.2351 -0.1226
  356loPI   C4A 5690   1.280  12.684   8.041  0.0777  0.0905 -0.3930
  356loPI   C5A 5691   1.112  12.566   7.466  0.1157  0.2987  0.1088
  356loPI   C6A 5692   1.114  12.777   7.100 -0.1416  0.3519 -0.3523
  356loPI   C1B 5693   1.305  12.268   8.907 -0.1213  0.1017 -0.1237
  356loPI   C2B 5694   0.927  12.231   8.674 -0.1237  0.1091 -0.1115
  356loPI   C3B 5695   0.884  12.363   8.247  0.2405  0.1158  0.0393
  356loPI   C4B 5696   0.675  12.431   7.801  0.2026  0.2352 -0.0585
  357loPI    C1 5697  12.261   7.015  10.722 -0.0037  0.2560 -0.0384
  357loPI    C2 5698  12.627   6.872  10.646 -0.1007 -0.1115  0.1618
  357loPI    C3 5699  12.433   6.759  10.977 -0.2926  0.2847  0.1898
  357loPI   PO4 5700  12.199   7.059  10.473  0.0642 -0.1614  0.1077
  357loPI   GL1 5701  12.140   6.941  10.102  0.0211  0.2673  0.3106
  357loPI   GL2 5702  12.265   7.230  10.041 -0.0095 -0.2532  0.1148
  357loPI   C1A 5703  11.805   6.852   9.729 -0.1116 -0.1869  0.1982
  357loPI   C2A 5704  11.601   6.885   9.319  0.1379  0.0809 -0.0461
  357loPI   C3A 5705  11.413   6.833   8.916 -0.0551 -0.2466 -0.0443
  357loPI   C4A 5706  11.440   6.972   8.598 -0.4049  0.0774  0.0698
  357loPI   C5A 5707  11.464   6.974   8.115 -0.0647 -0.2380 -0.0385
  357loPI   C6A 5708  11.783   7.162   7.937 -0.2082  0.2843 -0.1031
  357loPI   C1B 5709  12.259   7.202   9.623 -0.3392 -0.0132 -0.0831
  357loPI   C2B 5710  12.038   7.130   9.267 -0.2223  0.0870 -0.1922
  357loPI   C3B 5711  11.945   6.903   8.818  0.0828  0.2306 -0.2554
  357loPI   C4B 5712  11.943   6.912   8.371  0.1839 -0.2027  0.0518
  358loPI    C1 5713  16.963   6.550   9.741 -0.0092  0.4007 -0.1902
  358loPI    C2 5714  17.345   6.449   9.682 -0.0890  0.0903 -0.1960
  358loPI    C3 5715  17.219   6.546  10.049 -0.0642 -0.0786 -0.1418
  358loPI   PO4 5716  16.927   6.686   9.521 -0.1208 -0.1479 -0.1114
  358loPI   GL1 5717  16.885   6.614   9.141  0.0214 -0.2358 -0.0432
  358loPI   GL2 5718  16.546   6.563   9.210 -0.1253 -0.0850  0.0797
  358loPI   C1A 5719  16.884   6.431   8.731  0.0015 -0.1262 -0.1491
  358loPI   C2A 5720  16.902   6.551   8.267  0.0045  0.0168 -0.2103
  358loPI   C3A 5721  16.779   6.689   7.885 -0.0201 -0.0685 -0.1053
  358loPI   C4A 5722  16.663   6.702   7.395  0.3094  0.3358  0.0091
  358loPI   C5A 5723  16.955   6.570   7.103  0.0627  0.0036  0.1075
  358loPI   C6A 5724  17.150   6.605   6.822 -0.4280  0.0253  0.0822
  358loPI   C1B 5725  16.414   6.779   8.899  0.0703 -0.0541 -0.2345
  358loPI   C2B 5726  16.281   6.877   8.502  0.2377  0.0929  0.1143
  358loPI   C3B 5727  16.343   6.905   8.095  0.0050  0.0663 -0.0485
  358loPI   C4B 5728  16.303   6.839   7.752 -0.2051 -0.0038  0.4079
  359loPI    C1 5729   5.661   2.907  10.832  0.2041 -0.3378  0.0653
  359loPI    C2 5730   5.449   2.567  10.827  0.2574 -0.3692 -0.3082
  359loPI    C3 5731   5.840   2.558  10.914  0.2042 -0.3678 -0.0614
  359loPI   PO4 5732   5.577   2.991  10.571  0.1728  0.1708  0.1085
  359loPI   GL1 5733   5.402   2.724  10.268 -0.0162  0.2688  0.1899
  359loPI   GL2 5734   5.772   2.678  10.091 -0.0865 -0.0369  0.1379
  359loPI   C1A 5735   5.401   2.616   9.769 -0.0818 -0.2815  0.3866
  359loPI   C2A 5736   5.357   2.557   9.269 -0.3552 -0.4002  0.3957
  359loPI   C3A 5737   5.309   2.680   8.759 -0.0677 -0.0729 -0.0574
  359loPI   C4A 5738   5.172   2.625   8.366 -0.1490  0.0621  0.1743
  359loPI   C5A 5739   5.184   2.291   8.019  0.0256  0.1621 -0.1042
  359loPI   C6A 5740   4.809   2.022   7.813 -0.3039 -0.2968 -0.0079
  359loPI   C1B 5741   5.904   2.909   9.683  0.1671 -0.0712 -0.0003
  359loPI   C2B 5742   5.844   2.893   9.301 -0.1241 -0.0716 -0.0445
  359loPI   C3B 5743   5.879   2.958   8.866  0.0716 -0.0921 -0.1809
  359loPI   C4B 5744   6.201   2.895   8.391 -0.2069  0.1830  0.2473
  360loPI    C1 5745  10.866  11.803   9.470 -0.0139 -0.0135  0.1204
  360loPI    C2 5746  10.965  12.086   9.735  0.0180  0.1760 -0.0905
  360loPI    C3 5747  11.056  11.703   9.807 -0.0639  0.2120  0.2173
  360loPI   PO4 5748  10.601  11.873   9.379 -0.2133 -0.0672 -0.0002
  360loPI   GL1 5749  10.375  11.939   9.039  0.1408 -0.0796  0.0793
  360loPI   GL2 5750  10.073  12.013   9.010  0.0935  0.2000  0.0827
  360loPI   C1A 5751  10.464  12.060   8.545  0.0707  0.0963  0.1325
  360loPI   C2A 5752  10.579  12.328   8.170  0.0133 -0.0672  0.0736
  360loPI   C3A 5753  10.770  12.293   7.681  0.0561  0.2016  0.0474
  360loPI   C4A 5754  10.751  12.064   7.233 -0.1802 -0.2361 -0.0319
  360loPI   C5A 5755  11.061  11.719   7.061 -0.1892  0.2321  0.2140
  360loPI   C6A 5756  11.281  11.524   6.776 -0.1050  0.1058 -0.0405
  360loPI   C1B 5757   9.986  12.059   8.516  0.2527  0.1203 -0.3239
  360loPI   C2B 5758   9.970  12.215   8.099  0.0643  0.1946 -0.0249
  360loPI   C3B 5759  10.254  12.386   7.730 -0.0386 -0.2826 -0.0595
  360loPI   C4B 5760  10.276  12.261   7.194  0.2445  0.0247 -0.1672
  361loPI    C1 5761   4.142  18.224  10.271  0.1311  0.1767  0.1514
  361loPI    C2 5762   4.443  17.998  10.407  0.0720  0.1602  0.2554
  361loPI    C3 5763   4.427  18.387  10.498  0.1024  0.1777  0.1867
  361loPI   PO4 5764   4.019  18.102   9.984 -0.1261 -0.0292 -0.0843
  361loPI   GL1 5765   3.811  18.184   9.588  0.0875 -0.0566  0.2596
  361loPI   GL2 5766   3.601  18.391   9.755 -0.1587 -0.0891 -0.0866
  361loPI   C1A 5767   3.598  18.224   9.169  0.0862  0.1952 -0.3101
  361loPI   C2A 5768   3.640  18.173   8.702  0.1856 -0.0014  0.3263
  361loPI   C3A 5769   3.263  18.266   8.482 -0.0328 -0.0665 -0.1823
  361loPI   C4A 5770   3.182  18.504   8.174 -0.1319 -0.0981  0.0495
  361loPI   C5A 5771   3.252  18.704   7.781 -0.0633  0.0462  0.3742
  361loPI   C6A 5772   3.368  18.895   7.408  0.0051 -0.1132  0.0772
  361loPI   C1B 5773   3.708  18.704   9.364  0.2416 -0.3881 -0.0472
  361loPI   C2B 5774   3.749  18.647   8.877 -0.0160  0.0978 -0.0546
  361loPI   C3B 5775   3.901  18.422   8.384  0.1849  0.1666 -0.0766
  361loPI   C4B 5776   3.624  18.420   8.022  0.0182 -0.0040 -0.1454
  362loPI    C1 5777  13.161   1.648  10.756  0.3237 -0.1357  0.0648
  362loPI    C2 5778  13.250   1.671  11.145 -0.2749 -0.1251  0.2100
  362loPI    C3 5779  13.057   1.351  11.003  0.0724 -0.1978 -0.1124
  362loPI   PO4 5780  13.137   1.923  10.685  0.1676 -0.0778 -0.0832
  362loPI   GL1 5781  13.252   2.239  10.342 -0.1705  0.0076 -0.1841
  362loPI   GL2 5782  12.903   2.284  10.371 -0.0941  0.0950 -0.0688
  362loPI   C1A 5783  13.370   2.321   9.985  0.1049 -0.0241  0.0207
  362loPI   C2A 5784  13.378   2.581   9.670 -0.0118  0.1517 -0.0596
  362loPI   C3A 5785  13.209   2.729   9.198  0.0403 -0.1517  0.3199
  362loPI   C4A 5786  12.977   2.860   8.774  0.1370 -0.0708  0.0670
  362loPI   C5A 5787  12.596   2.730   8.613  0.2392 -0.3009  0.1618
  362loPI   C6A 5788  12.329   2.458   8.456  0.0914 -0.0716 -0.1222
  362loPI   C1B 5789  12.873   2.267   9.926  0.1198  0.3847  0.0615
  362loPI   C2B 5790  12.915   2.438   9.459  0.1130  0.0088 -0.5004
  362loPI   C3B 5791  12.952   2.384   8.886 -0.2315 -0.1148 -0.3384
  362loPI   C4B 5792  13.318   2.544   8.606  0.0627  0.1621  0.0296
  363loPI    C1 5793  14.010  14.893  10.303  0.1859 -0.0133 -0.1701
  363loPI    C2 5794  14.381  14.748  10.336  0.1614 -0.0147  0.1323
  363loPI    C3 5795  14.271  15.064  10.554 -0.0161 -0.0144  0.0438
  363loPI   PO4 5796  14.024  14.874  10.011 -0.1391 -0.1102  0.1467
  363loPI   GL1 5797  13.814  14.826   9.657  0.2292  0.1575 -0.2503
  363loPI   GL2 5798  13.639  15.049   9.722 -0.2932  0.1685  0.0665
  363loPI   C1A 5799  14.158  14.891   9.380  0.2812  0.0790 -0.2045
  363loPI   C2A 5800  14.320  14.909   8.965 -0.0339  0.1212  0.2813
  363loPI   C3A 5801  14.311  14.971   8.563  0.0411 -0.0187  0.2975
  363loPI   C4A 5802  14.329  14.976   8.230  0.1556 -0.1002  0.0817
  363loPI   C5A 5803  14.666  14.811   7.957  0.0704 -0.0459  0.0182
  363loPI   C6A 5804  14.999  14.554   7.899 -0.3953 -0.0765 -0.2171
  363loPI   C1B 5805  13.724  15.109   9.232 -0.1879  0.0704 -0.0651
  363loPI   C2B 5806  13.909  15.241   8.842  0.0439  0.1094  0.0188
  363loPI   C3B 5807  13.942  15.282   8.400  0.0599  0.0261  0.2572
  363loPI   C4B 5808  13.794  15.358   7.994  0.1573 -0.0805 -0.3147
  364loPI    C1 5809  15.145  16.762  10.491  0.3016  0.3578 -0.0734
  364loPI    C2 5810  14.953  17.072  10.655 -0.0657  0.1030 -0.0100
  364loPI    C3 5811  15.195  16.846  10.878 -0.0410  0.1579  0.0188
  364loPI   PO4 5812  15.211  16.756  10.315  0.3473 -0.0714 -0.2223
  364loPI   GL1 5813  15.037  16.436  10.060  0.1291  0.1474 -0.1100
  364loPI   GL2 5814  15.335  16.277  10.306  0.2917  0.0476  0.2122
  364loPI   C1A 5815  14.990  16.396   9.589 -0.0581 -0.0393  0.0752
  364loPI   C2A 5816  14.983  16.272   9.152  0.0168 -0.2694 -0.1098
  364loPI   C3A 5817  14.752  16.279   8.829 -0.1766 -0.2407 -0.0343
  364loPI   C4A 5818  14.624  16.413   8.456 -0.1074  0.0616  0.0749
  364loPI   C5A 5819  14.913  16.644   8.255 -0.2303 -0.0171 -0.0829
  364loPI   C6A 5820  15.007  17.017   8.041  0.1047  0.0927  0.2222
  364loPI   C1B 5821  15.465  16.243   9.844 -0.2223 -0.0797 -0.2324
  364loPI   C2B 5822  15.546  16.446   9.396  0.2763  0.3617 -0.1330
  364loPI   C3B 5823  15.540  16.314   8.964  0.2476 -0.1166  0.1199
  364loPI   C4B 5824  15.263  16.311   8.580  0.1916  0.0212  0.2100
  365loPI    C1 5825   1.820  11.922  10.093 -0.1100  0.0315  0.1466
  365loPI    C2 5826   1.709  12.293  10.197 -0.2339 -0.0157  0.1855
  365loPI    C3 5827   1.503  11.977  10.331 -0.1232 -0.0997  0.1601
  365loPI   PO4 5828   1.875  12.005   9.742 -0.2836  0.1482 -0.3479
  365loPI   GL1 5829   1.760  11.953   9.333  0.0334  0.0291 -0.2268
  365loPI   GL2 5830   1.483  11.811   9.168  0.0279 -0.1982  0.2091
  365loPI   C1A 5831   1.945  12.122   8.962  0.1078  0.1851  0.2546
  365loPI   C2A 5832   1.952  12.188   8.562 -0.0119  0.1132 -0.0486
  365loPI   C3A 5833   2.032  12.117   8.139 -0.1268  0.3922  0.0956
  365loPI   C4A 5834   2.355  12.162   7.903 -0.3405  0.0445  0.2885
  365loPI   C5A 5835   2.586  12.339   7.602  0.3201  0.0815 -0.2252
  365loPI   C6A 5836   2.883  12.067   7.403 -0.5402 -0.0042  0.0919
  365loPI   C1B 5837   1.367  11.640   8.846 -0.0498 -0.1842  0.2127
  365loPI   C2B 5838   1.247  11.829   8.380 -0.2249  0.2734 -0.1153
  365loPI   C3B 5839   1.185  11.818   7.986  0.0536  0.1625  0.0612
  365loPI   C4B 5840   1.187  12.169   7.777 -0.1004 -0.0500  0.1179
  366loPI    C1 5841  15.652  18.500  10.745  0.0003 -0.2635 -0.2492
  366loPI    C2 5842  15.542  18.317  11.083 -0.0067  0.1950  0.0042
  366loPI    C3 5843  15.730  18.111  10.796  0.3682 -0.1139  0.4559
  366loPI   PO4 5844  15.414  18.588  10.541  0.3359 -0.2008 -0.0603
  366loPI   GL1 5845  15.327  18.915  10.295 -0.2275  0.1753  0.2355
  366loPI   GL2 5846  15.424  19.226  10.440  0.2378 -0.3901 -0.0166
  366loPI   C1A 5847  15.485  18.947   9.936 -0.3080  0.1414  0.0394
  366loPI   C2A 5848  15.481  19.164   9.540  0.2168  0.2021  0.1182
  366loPI   C3A 5849  15.393  19.119   9.181 -0.2077  0.0358  0.5069
  366loPI   C4A 5850  15.470  19.148   8.741  0.1661 -0.2784  0.1018
  366loPI   C5A 5851  15.631  19.205   8.343  0.0247  0.0755  0.1540
  366loPI   C6A 5852  15.798  19.100   7.940  0.1055  0.2518  0.1966
  366loPI   C1B 5853  15.478  19.434  10.169  0.1114 -0.3617 -0.2025
  366loPI   C2B 5854  15.471  19.618   9.758  0.0471  0.1418 -0.0072
  366loPI   C3B 5855  15.533  19.647   9.355  0.0112 -0.0461 -0.1636
  366loPI   C4B 5856  15.500  19.727   8.925 -0.2204 -0.0633 -0.3552
  367loPI    C1 5857   4.318   7.419  10.769 -0.1337 -0.0891  0.0163
  367loPI    C2 5858   4.634   7.552  10.975 -0.2587  0.3277 -0.0530
  367loPI    C3 5859   4.335   7.369  11.166 -0.0359  0.0417  0.0293
  367loPI   PO4 5860   4.456   7.248  10.575  0.0064 -0.2492  0.2009
  367loPI   GL1 5861   4.297   6.899  10.217 -0.0986  0.0417 -0.2082
  367loPI   GL2 5862   4.540   6.825  10.116  0.0812  0.0688  0.0260
  367loPI   C1A 5863   4.165   7.134   9.823  0.0035  0.4231 -0.0124
  367loPI   C2A 5864   4.160   7.020   9.348 -0.0734 -0.1490  0.1309
  367loPI   C3A 5865   4.065   7.060   8.988 -0.0993  0.0717  0.0086
  367loPI   C4A 5866   4.011   7.309   8.502  0.0664 -0.1425  0.0335
  367loPI   C5A 5867   4.056   7.539   8.177 -0.2045  0.0115  0.2009
  367loPI   C6A 5868   3.767   7.759   7.777 -0.3628 -0.1097  0.0251
  367loPI   C1B 5869   4.778   6.557   9.909 -0.0235  0.0783 -0.0975
  367loPI   C2B 5870   4.782   6.536   9.408  0.0133 -0.3371 -0.1090
  367loPI   C3B 5871   4.774   6.503   9.053 -0.0259 -0.2301  0.0477
  367loPI   C4B 5872   4.573   6.549   8.689  0.0103  0.2094  0.0350
  368loPI    C1 5873   2.393   9.398   9.964  0.1693 -0.0916 -0.0927
  368loPI    C2 5874   2.245   9.272  10.314 -0.2034  0.1708 -0.1497
  368loPI    C3 5875   2.616   9.421  10.295 -0.0214 -0.2422  0.0484
  368loPI   PO4 5876   2.365   9.202   9.764 -0.1376 -0.1244 -0.1986
  368loPI   GL1 5877   2.468   9.317   9.447 -0.0217  0.1319  0.0388
  368loPI   GL2 5878   2.671   9.443   9.264  0.2107  0.3502  0.1943
  368loPI   C1A 5879   2.350   8.952   9.160 -0.3061 -0.4911  0.0031
  368loPI   C2A 5880   2.185   8.873   8.757 -0.1923  0.1103 -0.4459
  368loPI   C3A 5881   2.467   8.724   8.411 -0.2234 -0.2621 -0.2194
  368loPI   C4A 5882   2.851   8.538   8.342  0.2248  0.3068  0.1740
  368loPI   C5A 5883   3.143   8.432   7.952  0.2551 -0.0029 -0.0232
  368loPI   C6A 5884   3.316   8.295   7.449  0.0759  0.0100 -0.1825
  368loPI   C1B 5885   2.613   9.715   8.960 -0.1089 -0.1738 -0.0329
  368loPI   C2B 5886   2.828   9.999   8.655  0.2435  0.1527  0.1373
  368loPI   C3B 5887   2.943  10.014   8.163 -0.1293 -0.1530 -0.0785
  368loPI   C4B 5888   2.841   9.890   7.685  0.1165 -0.1280 -0.0002
  369loPI    C1 5889  11.820   0.485  10.637 -0.2128  0.0703 -0.0506
  369loPI    C2 5890  11.824   0.232  10.947 -0.2253 -0.0639 -0.1597
  369loPI    C3 5891  12.131   0.481  10.888 -0.0510 -0.2949 -0.2489
  369loPI   PO4 5892  11.569   0.326  10.494  0.0697  0.3089  0.0155
  369loPI   GL1 5893  11.480   0.183  10.086 -0.1613  0.0868 -0.0886
  369loPI   GL2 5894  11.619  -0.052   9.987  0.1125  0.2272 -0.0797
  369loPI   C1A 5895  11.254   0.395   9.805  0.1881  0.1538  0.0014
  369loPI   C2A 5896  11.368   0.564   9.430  0.1105  0.0848 -0.3597
  369loPI   C3A 5897  11.423   0.968   9.316 -0.0326  0.3003 -0.1349
  369loPI   C4A 5898  11.322   1.322   9.302 -0.2869  0.1681 -0.0513
  369loPI   C5A 5899  11.236   1.680   9.103 -0.1644 -0.2536  0.1165
  369loPI   C6A 5900  11.201   2.071   8.959 -0.2833 -0.0407 -0.1969
  369loPI   C1B 5901  11.540   0.130   9.506 -0.4817  0.0110  0.0555
  369loPI   C2B 5902  11.740   0.401   9.119  0.0094  0.1091  0.1244
  369loPI   C3B 5903  11.762   0.362   8.739  0.3656 -0.1245 -0.0992
  369loPI   C4B 5904  11.908   0.607   8.410 -0.0253  0.0010  0.0696
  370loPI    C1 5905  11.767  14.112  10.353  0.0226  0.1596  0.2818
  370loPI    C2 5906  11.699  14.504  10.311 -0.0491  0.1422  0.2338
  370loPI    C3 5907  11.450  14.280  10.530 -0.0167  0.1208  0.2489
  370loPI   PO4 5908  11.839  14.124   9.999 -0.6766 -0.1241  0.1727
  370loPI   GL1 5909  11.578  14.065   9.622  0.0930  0.0714  0.1149
  370loPI   GL2 5910  11.753  13.706   9.579  0.0743 -0.0170  0.1393
  370loPI   C1A 5911  11.540  14.054   9.257 -0.0981 -0.1058  0.1796
  370loPI   C2A 5912  11.567  14.177   8.822 -0.0239 -0.2208  0.3341
  370loPI   C3A 5913  11.679  14.201   8.381 -0.0508 -0.0200 -0.1225
  370loPI   C4A 5914  11.647  14.190   7.914  0.1631  0.1461 -0.4603
  370loPI   C5A 5915  11.439  14.468   7.648  0.1307  0.0752  0.1402
  370loPI   C6A 5916  11.111  14.694   7.534  0.0609  0.1483  0.4959
  370loPI   C1B 5917  11.901  13.811   9.054  0.3627  0.0909 -0.2454
  370loPI   C2B 5918  12.007  13.943   8.823  0.0163 -0.0550 -0.0425
  370loPI   C3B 5919  12.397  14.161   8.770 -0.2768 -0.0750 -0.2261
  370loPI   C4B 5920  12.820  14.365   8.961  0.0435 -0.1353  0.0011
  371loPI    C1 5921  14.735  18.237  10.802  0.1526  0.3483  0.0994
  371loPI    C2 5922  14.954  18.158  11.127  0.1696 -0.0537 -0.0037
  371loPI    C3 5923  14.855  17.863  10.876 -0.0694  0.2075 -0.2246
  371loPI   PO4 5924  14.810  18.465  10.689 -0.3561  0.2304 -0.1452
  371loPI   GL1 5925  14.880  18.651  10.306 -0.1078  0.0738 -0.1064
  371loPI   GL2 5926  15.000  18.345  10.184 -0.1915 -0.3697 -0.1789
  371loPI   C1A 5927  14.986  18.743   9.862 -0.1641  0.0522 -0.0132
  371loPI   C2A 5928  15.026  18.906   9.429  0.1104 -0.0845  0.1953
  371loPI   C3A 5929  14.908  18.960   9.008  0.1695 -0.1109 -0.1337
  371loPI   C4A 5930  15.053  18.961   8.561 -0.3162 -0.0157  0.2712
  371loPI   C5A 5931  15.279  18.822   8.135 -0.1832 -0.0236 -0.0763
  371loPI   C6A 5932  15.076  18.498   7.920 -0.0221  0.1798  0.3323
  371loPI   C1B 5933  15.330  18.389   9.790 -0.2068  0.4527 -0.2813
  371loPI   C2B 5934  15.468  18.651   9.381 -0.2482  0.2183  0.0898
  371loPI   C3B 5935  15.373  18.700   8.928  0.3057  0.0618 -0.0600
  371loPI   C4B 5936  15.610  18.724   8.531 -0.0139 -0.0750 -0.1735
  372loPI    C1 5937   9.609  12.693   9.852  0.1311  0.0815 -0.0895
  372loPI    C2 5938   9.875  12.615   9.564  0.0400 -0.0399 -0.1417
  372loPI    C3 5939   9.816  12.351   9.859  0.1824  0.1145  0.0274
  372loPI   PO4 5940   9.468  12.777   9.711 -0.0189 -0.5786  0.0237
  372loPI   GL1 5941   9.432  12.941   9.286 -0.4351 -0.0116 -0.1430
  372loPI   GL2 5942   9.662  12.851   9.205  0.3460  0.3290  0.3171
  372loPI   C1A 5943   9.280  12.910   8.902  0.0317  0.1278  0.1133
  372loPI   C2A 5944   9.335  12.889   8.390 -0.0057 -0.3752  0.2966
  372loPI   C3A 5945   9.211  13.177   8.102  0.0274  0.4390 -0.1476
  372loPI   C4A 5946   9.219  13.364   7.801  0.1494 -0.2700 -0.0308
  372loPI   C5A 5947   9.147  13.660   7.454  0.3580 -0.2248  0.0281
  372loPI   C6A 5948   9.072  13.751   7.101 -0.4555 -0.0828 -0.0809
  372loPI   C1B 5949   9.591  12.528   8.852 -0.2815  0.1691 -0.0860
  372loPI   C2B 5950   9.686  12.534   8.487  0.1032  0.0142 -0.0731
  372loPI   C3B 5951   9.618  12.607   8.081  0.4673 -0.1482 -0.2564
  372loPI   C4B 5952   9.440  12.880   7.769  0.1217  0.1216 -0.0052
  373loPI    C1 5953   8.347   1.938  10.274 -0.4783  0.0692  0.1446
  373loPI    C2 5954   8.358   1.848  10.663 -0.0581  0.1301  0.1508
  373loPI    C3 5955   8.439   2.221  10.541 -0.1081  0.0920 -0.0008
  373loPI   PO4 5956   8.569   1.757  10.180 -0.2143  0.1494  0.1188
  373loPI   GL1 5957   8.886   1.597  10.035 -0.1065  0.0616  0.1906
  373loPI   GL2 5958   9.049   1.866   9.967 -0.3085 -0.0251 -0.1289
  373loPI   C1A 5959   8.797   1.477   9.630 -0.2432 -0.2886 -0.0586
  373loPI   C2A 5960   8.565   1.618   9.353 -0.2830 -0.1052  0.0862
  373loPI   C3A 5961   8.548   1.766   8.848  0.5657 -0.0666 -0.0254
  373loPI   C4A 5962   8.594   1.531   8.459  0.2789 -0.0079 -0.1380
  373loPI   C5A 5963   8.310   1.360   8.058 -0.1610  0.3073 -0.2390
  373loPI   C6A 5964   8.297   1.130   7.780 -0.0909 -0.0117  0.3039
  373loPI   C1B 5965   8.955   1.982   9.563  0.1259  0.1387 -0.1296
  373loPI   C2B 5966   8.854   2.078   9.185 -0.2484 -0.2545 -0.0712
  373loPI   C3B 5967   8.660   2.284   8.828 -0.0980  0.1208  0.0645
  373loPI   C4B 5968   8.382   2.273   8.474 -0.0583  0.0950 -0.0052
  374loPI    C1 5969   0.403   4.386  10.447  0.0350  0.0054 -0.0668
  374loPI    C2 5970   0.238   4.736  10.547  0.2469  0.0933 -0.0186
  374loPI    C3 5971   0.622   4.665  10.632  0.1973 -0.1635 -0.0012
  374loPI   PO4 5972   0.384   4.365  10.195 -0.0358 -0.0439  0.0449
  374loPI   GL1 5973   0.249   4.357   9.833  0.1177  0.3018  0.1316
  374loPI   GL2 5974   0.478   4.619   9.756 -0.2154 -0.2289  0.0513
  374loPI   C1A 5975   0.004   4.271   9.427 -0.3464 -0.1085  0.1102
  374loPI   C2A 5976  -0.028   4.334   9.088 -0.1279 -0.0861  0.2823
  374loPI   C3A 5977  -0.262   4.227   8.735  0.1691  0.0243 -0.0491
  374loPI   C4A 5978  -0.187   3.920   8.467  0.0502  0.0100  0.3589
  374loPI   C5A 5979   0.023   3.628   8.194  0.0090 -0.1037  0.0910
  374loPI   C6A 5980   0.028   3.238   7.987  0.1781 -0.1651 -0.1176
  374loPI   C1B 5981   0.449   4.470   9.331 -0.4750  0.2504  0.0827
  374loPI   C2B 5982   0.432   4.560   9.020 -0.0767 -0.0591 -0.1194
  374loPI   C3B 5983   0.467   4.250   8.754 -0.4188 -0.0358  0.0239
  374loPI   C4B 5984   0.151   4.315   8.294 -0.0096 -0.0573 -0.1958
  375loPI    C1 5985   7.443   7.393  10.837 -0.0118 -0.2741  0.3479
  375loPI    C2 5986   7.058   7.365  10.945 -0.1210 -0.1136  0.0141
  375loPI    C3 5987   7.285   7.661  11.088 -0.1417 -0.1634  0.1511
  375loPI   PO4 5988   7.468   7.462  10.570 -0.1121  0.4682  0.3095
  375loPI   GL1 5989   7.305   7.399  10.160 -0.0321  0.1048  0.0345
  375loPI   GL2 5990   7.362   7.063   9.982 -0.2119 -0.3309  0.3922
  375loPI   C1A 5991   7.109   7.630   9.848 -0.1773  0.2664  0.1927
  375loPI   C2A 5992   6.965   7.645   9.395 -0.3540  0.1450 -0.0697
  375loPI   C3A 5993   6.963   7.530   8.913  0.0095 -0.0050  0.1887
  375loPI   C4A 5994   6.845   7.379   8.405 -0.3900 -0.1668 -0.1830
  375loPI   C5A 5995   6.838   7.087   8.040 -0.0847  0.1520 -0.2620
  375loPI   C6A 5996   6.972   6.668   8.017 -0.0747  0.1626 -0.0426
  375loPI   C1B 5997   7.266   7.122   9.520 -0.0915  0.1434  0.0589
  375loPI   C2B 5998   7.333   7.397   9.181  0.1193  0.3782 -0.3852
  375loPI   C3B 5999   7.381   7.819   8.936  0.1403 -0.1348  0.0037
  375loPI   C4B 6000   7.159   7.962   8.655 -0.0096 -0.1531  0.4374
  376loPI    C1 6001   0.787   0.077  10.941  0.0141 -0.1235 -0.3074
  376loPI    C2 6002   0.740  -0.294  11.082  0.2243 -0.0678 -0.0849
  376loPI    C3 6003   0.768   0.014  11.336 -0.5442  0.1812 -0.2753
  376loPI   PO4 6004   0.686   0.004  10.642 -0.0058 -0.1658 -0.0518
  376loPI   GL1 6005   0.789   0.244  10.302  0.3962  0.0228 -0.1435
  376loPI   GL2 6006   0.860   0.509  10.343 -0.0979 -0.0440 -0.0617
  376loPI   C1A 6007   0.628   0.170   9.952  0.2545  0.1014 -0.2376
  376loPI   C2A 6008   0.598   0.288   9.512 -0.0884  0.0928  0.1797
  376loPI   C3A 6009   0.720   0.467   9.120 -0.0755  0.3452  0.0277
  376loPI   C4A 6010   0.867   0.276   8.673 -0.0660  0.2272 -0.2311
  376loPI   C5A 6011   0.883  -0.007   8.277 -0.1679 -0.0279  0.0779
  376loPI   C6A 6012   0.934  -0.448   8.327 -0.0580  0.1826  0.0457
  376loPI   C1B 6013   0.906   0.555   9.883 -0.1076 -0.0728 -0.1018
  376loPI   C2B 6014   1.047   0.839   9.482 -0.2859  0.3059 -0.1181
  376loPI   C3B 6015   1.240   1.039   9.109 -0.1906 -0.0669  0.3450
  376loPI   C4B 6016   1.332   1.063   8.679  0.0889 -0.1702 -0.0192
  377loPI    C1 6017   6.554   1.408  10.334  0.1817 -0.0674 -0.1449
  377loPI    C2 6018   6.470   1.165  10.640  0.1220 -0.1553 -0.2301
  377loPI    C3 6019   6.654   1.515  10.706  0.1825 -0.2102 -0.1035
  377loPI   PO4 6020   6.690   1.181  10.151 -0.4355 -0.0977 -0.2271
  377loPI   GL1 6021   6.768   0.997   9.792  0.1487  0.0583  0.0942
  377loPI   GL2 6022   6.528   0.772   9.704 -0.0115 -0.1032  0.1122
  377loPI   C1A 6023   6.851   1.037   9.364 -0.2392 -0.2424  0.1976
  377loPI   C2A 6024   6.938   1.251   9.015 -0.2274  0.0312  0.1431
  377loPI   C3A 6025   6.999   1.299   8.607 -0.0122 -0.0996 -0.3368
  377loPI   C4A 6026   6.811   1.629   8.388 -0.2297  0.2138 -0.0778
  377loPI   C5A 6027   6.866   2.051   8.281 -0.1925 -0.1582 -0.1247
  377loPI   C6A 6028   6.942   2.488   8.050  0.1471 -0.3895 -0.0897
  377loPI   C1B 6029   6.372   0.755   9.324  0.0573 -0.2435  0.4216
  377loPI   C2B 6030   6.710   0.675   9.010 -0.2773 -0.0545  0.0809
  377loPI   C3B 6031   6.799   0.802   8.564 -0.0211 -0.3153 -0.0426
  377loPI   C4B 6032   7.177   0.658   8.233  0.2377  0.1528 -0.0820
  378loPI    C1 6033   5.349   0.172  10.073  0.2103  0.0489 -0.1919
  378loPI    C2 6034   5.134   0.188  10.411 -0.1243  0.0833 -0.4017
  378loPI    C3 6035   5.527   0.115  10.427 -0.1475  0.0232 -0.0107
  378loPI   PO4 6036   5.301   0.358   9.912 -0.0503  0.0653  0.4657
  378loPI   GL1 6037   5.547   0.477   9.528  0.2470 -0.0433  0.2555
  378loPI   GL2 6038   5.504   0.775   9.402  0.1227 -0.2077  0.0555
  378loPI   C1A 6039   5.430   0.370   9.071  0.0708 -0.2554 -0.0645
  378loPI   C2A 6040   5.179   0.272   8.753  0.2107 -0.2362  0.2670
  378loPI   C3A 6041   4.851   0.180   8.372 -0.0520 -0.0743 -0.0446
  378loPI   C4A 6042   4.678  -0.011   7.972  0.0672  0.0286  0.2822
  378loPI   C5A 6043   4.536  -0.434   7.839 -0.3335  0.2443  0.0789
  378loPI   C6A 6044   4.563  -0.666   8.162  0.0343 -0.3108  0.3286
  378loPI   C1B 6045   5.493   0.858   9.001  0.0454  0.1675  0.3911
  378loPI   C2B 6046   5.490   0.749   8.614  0.1478  0.1028  0.0487
  378loPI   C3B 6047   5.431   0.448   8.201  0.1511  0.0671 -0.3095
  378loPI   C4B 6048   5.124   0.400   7.907 -0.1936  0.2699 -0.1592
  379loPI    C1 6049   7.506  13.149   9.773 -0.2694  0.1968  0.1842
  379loPI    C2 6050   7.431  13.470  10.000  0.2225  0.3736  0.1100
  379loPI    C3 6051   7.708  13.204  10.113 -0.1003  0.0295  0.1129
  379loPI   PO4 6052   7.538  13.241   9.542  0.1118 -0.0792  0.2704
  379loPI   GL1 6053   7.683  13.085   9.203  0.2861 -0.1047 -0.2097
  379loPI   GL2 6054   7.950  13.307   9.167 -0.0438 -0.1336 -0.0593
  379loPI   C1A 6055   7.873  12.881   8.846 -0.1409 -0.1961  0.1512
  379loPI   C2A 6056   7.719  12.625   8.518 -0.1182 -0.2118  0.1490
  379loPI   C3A 6057   7.746  12.576   8.161 -0.1281  0.0279  0.0823
  379loPI   C4A 6058   8.010  12.365   7.762 -0.0412  0.0095  0.1113
  379loPI   C5A 6059   8.059  12.022   7.394  0.0698  0.0566  0.0846
  379loPI   C6A 6060   7.779  11.678   7.187 -0.0195  0.0417 -0.3393
  379loPI   C1B 6061   8.063  13.448   8.816  0.0296 -0.0596 -0.1874
  379loPI   C2B 6062   8.252  13.313   8.426  0.0472 -0.0967  0.0742
  379loPI   C3B 6063   8.277  13.567   8.035 -0.0469  0.4563 -0.2587
  379loPI   C4B 6064   8.226  13.737   7.717 -0.1761  0.4721 -0.3304
  380loPI    C1 6065  10.863   5.926  11.028 -0.0920 -0.0168 -0.1682
  380loPI    C2 6066  10.671   5.753  11.333  0.1427 -0.0017 -0.0091
  380loPI    C3 6067  10.838   5.528  11.048  0.1326 -0.0249  0.0034
  380loPI   PO4 6068  10.745   6.047  10.802  0.3110 -0.2720 -0.2123
  380loPI   GL1 6069  10.592   5.930  10.477 -0.0288  0.0820  0.2099
  380loPI   GL2 6070  10.790   5.549  10.383 -0.0704 -0.2169  0.2336
  380loPI   C1A 6071  10.513   5.817  10.086 -0.2773  0.1239  0.0371
  380loPI   C2A 6072  10.485   5.857   9.637 -0.0282  0.1266 -0.0889
  380loPI   C3A 6073  10.283   5.819   9.274 -0.2395  0.0982  0.0800
  380loPI   C4A 6074  10.097   6.032   8.951  0.3684  0.0366 -0.0144
  380loPI   C5A 6075  10.027   5.826   8.497  0.0719  0.2078  0.3470
  380loPI   C6A 6076   9.835   5.730   8.138 -0.2011  0.0758  0.0009
  380loPI   C1B 6077  10.973   5.596   9.920 -0.1275 -0.0600  0.1330
  380loPI   C2B 6078  10.894   5.504   9.457 -0.2046 -0.2607 -0.1210
  380loPI   C3B 6079  10.810   5.414   9.141 -0.1115  0.0753  0.1760
  380loPI   C4B 6080  10.517   5.583   8.889 -0.1084  0.2213  0.0839
  381loPI    C1 6081   5.525   6.985  10.508  0.0904 -0.1241  0.0001
  381loPI    C2 6082   5.357   7.124  10.843 -0.2258 -0.1421 -0.1480
  381loPI    C3 6083   5.531   6.764  10.842  0.0958  0.0080  0.0880
  381loPI   PO4 6084   5.268   7.060  10.279  0.0587  0.1164  0.1777
  381loPI   GL1 6085   5.086   6.946   9.997 -0.0700  0.0918  0.5139
  381loPI   GL2 6086   5.346   6.709   9.877 -0.4729  0.2346 -0.2543
  381loPI   C1A 6087   5.031   7.337   9.717 -0.1548 -0.0987  0.0210
  381loPI   C2A 6088   4.965   7.433   9.259  0.2834  0.2165  0.1680
  381loPI   C3A 6089   4.981   7.480   8.769  0.1021 -0.0065 -0.0914
  381loPI   C4A 6090   5.087   7.411   8.334  0.0333 -0.2849 -0.1094
  381loPI   C5A 6091   5.131   7.032   8.006  0.0463  0.0467 -0.0080
  381loPI   C6A 6092   5.442   6.716   7.900  0.1861  0.4017 -0.3227
  381loPI   C1B 6093   5.304   6.954   9.475 -0.2442 -0.0960 -0.0296
  381loPI   C2B 6094   4.985   6.943   9.174 -0.0486 -0.1313  0.2459
  381loPI   C3B 6095   5.072   6.997   8.671  0.1835  0.3214  0.4398
  381loPI   C4B 6096   4.725   7.005   8.399 -0.0446  0.2248  0.0840
  382loPI    C1 6097  12.940  13.003  10.079  0.1675  0.0149 -0.0118
  382loPI    C2 6098  12.956  13.020  10.478 -0.1400  0.0092  0.0030
  382loPI    C3 6099  12.769  12.715  10.298  0.1707 -0.0947 -0.1515
  382loPI   PO4 6100  12.831  13.245  10.017 -0.3900 -0.1497  0.2014
  382loPI   GL1 6101  12.842  13.484   9.635  0.1199 -0.3597  0.1207
  382loPI   GL2 6102  12.794  13.645   9.421 -0.1991  0.0926 -0.1281
  382loPI   C1A 6103  13.018  13.192   9.239  0.1122 -0.0307  0.0874
  382loPI   C2A 6104  12.804  13.401   8.797 -0.2262 -0.0858  0.0363
  382loPI   C3A 6105  12.801  13.483   8.359 -0.0612  0.1816  0.2792
  382loPI   C4A 6106  12.972  13.432   7.875  0.1551 -0.2876 -0.1631
  382loPI   C5A 6107  12.967  13.122   7.497 -0.0108  0.0566 -0.1636
  382loPI   C6A 6108  13.159  12.878   7.292 -0.2611  0.2786 -0.3129
  382loPI   C1B 6109  12.768  13.857   9.027  0.0931  0.0547 -0.0058
  382loPI   C2B 6110  12.935  13.927   8.600  0.0578 -0.2080  0.1503
  382loPI   C3B 6111  13.034  14.034   8.233 -0.0194  0.2089  0.2894
  382loPI   C4B 6112  13.238  14.037   8.007  0.0292  0.2177 -0.0769
  383loPI    C1 6113   7.953  17.592  10.434  0.0919 -0.0476  0.1466
  383loPI    C2 6114   8.133  17.238  10.478  0.2101  0.0103  0.1307
  383loPI    C3 6115   8.227  17.542  10.721  0.0624  0.0126  0.1856
  383loPI   PO4 6116   7.948  17.582  10.104  0.1462  0.0623 -0.1001
  383loPI   GL1 6117   7.953  17.711   9.662 -0.0048 -0.0507 -0.0842
  383loPI   GL2 6118   7.989  17.429   9.455  0.2304 -0.0049  0.0241
  383loPI   C1A 6119   8.072  17.840   9.202  0.5128  0.2201  0.0082
  383loPI   C2A 6120   7.938  17.982   8.821 -0.0425 -0.0857 -0.0788
  383loPI   C3A 6121   7.953  18.226   8.426  0.0128 -0.4406  0.1090
  383loPI   C4A 6122   7.573  18.412   8.199  0.1415  0.0306  0.0081
  383loPI   C5A 6123   7.487  18.833   8.012  0.0675 -0.0956  0.2866
  383loPI   C6A 6124   7.544  19.314   7.932 -0.6139  0.1752  0.2573
  383loPI   C1B 6125   8.238  17.425   9.069 -0.1493 -0.0220 -0.0658
  383loPI   C2B 6126   8.369  17.621   8.719  0.2058 -0.1448  0.1687
  383loPI   C3B 6127   8.615  17.841   8.329 -0.0657  0.1677 -0.0160
  383loPI   C4B 6128   9.002  18.054   8.220  0.3908  0.1654 -0.0478
  384loPI    C1 6129   6.294   4.623  10.469 -0.0917 -0.2236  0.1949
  384loPI    C2 6130   6.574   4.791  10.700  0.0335 -0.1392 -0.0155
  384loPI    C3 6131   6.273   5.013  10.557  0.0570 -0.1500 -0.0821
  384loPI   PO4 6132   6.400   4.488  10.292 -0.2140 -0.0943  0.0809
  384loPI   GL1 6133   6.254   4.353   9.844  0.0137 -0.0953 -0.1163
  384loPI   GL2 6134   5.953   4.306  10.051 -0.0582 -0.0458 -0.1901
  384loPI   C1A 6135   6.118   4.276   9.393 -0.1093 -0.1211 -0.0901
  384loPI   C2A 6136   5.732   4.161   9.177 -0.3402 -0.3580  0.0628
  384loPI   C3A 6137   5.404   4.224   8.885  0.1488  0.2732  0.0944
  384loPI   C4A 6138   5.080   4.375   8.499  0.1964 -0.0338  0.1453
  384loPI   C5A 6139   4.827   4.542   8.428  0.0859  0.0284 -0.0912
  384loPI   C6A 6140   4.648   4.973   8.519  0.3029 -0.1621  0.0012
  384loPI   C1B 6141   5.665   4.152   9.783  0.0418 -0.2733 -0.0207
  384loPI   C2B 6142   5.296   4.274   9.412 -0.1465 -0.2222  0.1689
  384loPI   C3B 6143   4.961   4.395   9.029  0.0364 -0.1786  0.3105
  384loPI   C4B 6144   4.624   4.552   8.838  0.0684 -0.0160  0.2387
  385loPI    C1 6145  14.575   4.460  10.780  0.0128 -0.1470 -0.0026
  385loPI    C2 6146  14.250   4.694  10.791  0.1246  0.0099 -0.0076
  385loPI    C3 6147  14.285   4.387  11.046 -0.1553 -0.1801 -0.1926
  385loPI   PO4 6148  14.612   4.391  10.561 -0.0248  0.2449 -0.3614
  385loPI   GL1 6149  14.681   4.101  10.174  0.0801  0.0174  0.1368
  385loPI   GL2 6150  14.935   3.915  10.329  0.1873 -0.2808 -0.1372
  385loPI   C1A 6151  14.451   4.173   9.783 -0.0039 -0.0508 -0.3141
  385loPI   C2A 6152  14.455   4.374   9.401  0.3743 -0.1125 -0.1841
  385loPI   C3A 6153  14.492   4.635   9.067 -0.2811 -0.2477 -0.0196
  385loPI   C4A 6154  14.221   4.763   8.714 -0.1436 -0.1147  0.3286
  385loPI   C5A 6155  14.431   5.081   8.551  0.0191 -0.5791  0.1081
  385loPI   C6A 6156  14.619   5.410   8.172  0.1885  0.0660 -0.1245
  385loPI   C1B 6157  14.921   3.990   9.805 -0.0467  0.0342 -0.2219
  385loPI   C2B 6158  14.868   3.947   9.381 -0.2777  0.1963  0.0040
  385loPI   C3B 6159  14.767   4.233   9.047 -0.2101  0.2713  0.3520
  385loPI   C4B 6160  14.344   4.117   8.967 -0.4262 -0.2659 -0.3051
  386loPI    C1 6161   0.752  17.196  10.928  0.0105  0.1380 -0.2372
  386loPI    C2 6162   0.380  17.059  10.983  0.1263 -0.2256 -0.3291
  386loPI    C3 6163   0.665  16.976  11.251  0.1299  0.1098 -0.2236
  386loPI   PO4 6164   0.689  17.398  10.798 -0.1565 -0.0867 -0.0558
  386loPI   GL1 6165   0.691  17.626  10.428  0.1640 -0.0687 -0.1430
  386loPI   GL2 6166   0.560  17.520  10.192 -0.2268  0.1602 -0.4005
  386loPI   C1A 6167   0.901  18.017  10.223  0.1898  0.1824  0.4581
  386loPI   C2A 6168   1.024  18.191   9.821  0.0127 -0.1686  0.3182
  386loPI   C3A 6169   1.183  18.419   9.447  0.0011 -0.0183  0.0989
  386loPI   C4A 6170   1.177  18.575   8.912 -0.0119 -0.1671  0.1565
  386loPI   C5A 6171   1.357  18.482   8.479 -0.0016  0.3049 -0.0927
  386loPI   C6A 6172   1.575  18.449   8.204  0.2880 -0.1281  0.1626
  386loPI   C1B 6173   0.418  17.253   9.804  0.0422  0.0770  0.1291
  386loPI   C2B 6174   0.203  17.133   9.420 -0.2647 -0.1150  0.2423
  386loPI   C3B 6175   0.133  17.082   9.061  0.0246 -0.1177  0.1234
  386loPI   C4B 6176   0.116  17.124   8.570 -0.2637  0.1497  0.2230
  387loPI    C1 6177  12.933   3.084  10.512 -0.1146  0.2795 -0.2207
  387loPI    C2 6178  12.919   3.066  10.912 -0.1167 -0.1130 -0.2355
  387loPI    C3 6179  12.666   3.305  10.714 -0.1499  0.0451 -0.0060
  387loPI   PO4 6180  13.190   2.894  10.533 -0.1738 -0.1780 -0.2332
  387loPI   GL1 6181  13.219   2.796  10.098  0.1459 -0.0536 -0.1302
  387loPI   GL2 6182  12.907   2.729  10.162  0.0626  0.2714 -0.0455
  387loPI   C1A 6183  13.040   2.986   9.663 -0.2768 -0.0813  0.1223
  387loPI   C2A 6184  13.041   3.244   9.231  0.0752  0.0675  0.2887
  387loPI   C3A 6185  13.056   3.359   8.757  0.1265  0.3090 -0.0021
  387loPI   C4A 6186  12.911   3.729   8.541  0.0783 -0.1294  0.1335
  387loPI   C5A 6187  12.891   4.316   8.490  0.3686  0.0428 -0.1870
  387loPI   C6A 6188  13.014   4.648   8.193  0.0750 -0.0233  0.1865
  387loPI   C1B 6189  12.599   2.789   9.805 -0.1362 -0.1514 -0.0548
  387loPI   C2B 6190  12.659   2.860   9.275 -0.3492  0.3148 -0.0340
  387loPI   C3B 6191  12.535   3.122   8.946 -0.1231 -0.1932  0.4091
  387loPI   C4B 6192  12.530   3.479   8.696 -0.0660 -0.0185 -0.0199
  388loPI    C1 6193   1.873  17.090  10.312  0.0940  0.0012  0.0493
  388loPI    C2 6194   2.104  16.815  10.488  0.2132  0.1030  0.0536
  388loPI    C3 6195   1.741  16.897  10.636  0.1543 -0.0914  0.0191
  388loPI   PO4 6196   1.861  16.959  10.063 -0.0173  0.1376  0.4789
  388loPI   GL1 6197   1.862  16.631   9.809 -0.0013 -0.1784  0.2953
  388loPI   GL2 6198   1.464  16.675   9.855  0.0165  0.0157  0.0847
  388loPI   C1A 6199   1.672  16.680   9.343  0.0882 -0.2169 -0.0675
  388loPI   C2A 6200   1.617  16.886   8.984 -0.5608  0.1447  0.2481
  388loPI   C3A 6201   1.423  16.968   8.571  0.0588 -0.0466 -0.1395
  388loPI   C4A 6202   1.358  17.245   8.212  0.2908 -0.0528  0.0090
  388loPI   C5A 6203   1.437  17.637   8.105 -0.0908  0.0461  0.0134
  388loPI   C6A 6204   1.369  18.015   8.371  0.1167  0.2306  0.0254
  388loPI   C1B 6205   1.334  16.879   9.674 -0.1024  0.2201 -0.0484
  388loPI   C2B 6206   1.287  16.976   9.264  0.3514 -0.0503  0.1110
  388loPI   C3B 6207   1.136  17.206   8.916  0.1691  0.1471  0.1116
  388loPI   C4B 6208   0.852  17.271   8.465  0.1379 -0.0019 -0.1145
  389loPI    C1 6209  13.646   0.934  10.761 -0.1813  0.1469  0.1036
  389loPI    C2 6210  13.505   0.678  11.034  0.0542 -0.0351  0.0583
  389loPI    C3 6211  13.469   1.072  11.092 -0.2744 -0.0753  0.1485
  389loPI   PO4 6212  13.534   0.734  10.449 -0.5103  0.1291  0.2193
  389loPI   GL1 6213  13.322   0.547  10.085  0.2056  0.1056  0.1549
  389loPI   GL2 6214  13.596   0.249   9.941  0.0596  0.0738 -0.0955
  389loPI   C1A 6215  13.255   0.625   9.665 -0.4573  0.0599 -0.0773
  389loPI   C2A 6216  13.219   0.548   9.217  0.0305 -0.3608 -0.1746
  389loPI   C3A 6217  13.191   0.618   8.784 -0.0011  0.5813  0.0286
  389loPI   C4A 6218  13.113   0.356   8.304  0.0630 -0.2159 -0.2589
  389loPI   C5A 6219  13.027   0.576   7.951 -0.1778  0.0715  0.2631
  389loPI   C6A 6220  12.726   0.656   7.605 -0.0269  0.1666 -0.0090
  389loPI   C1B 6221  13.631   0.246   9.569 -0.0523  0.0898  0.1137
  389loPI   C2B 6222  13.575   0.238   9.111  0.0566 -0.1361  0.3353
  389loPI   C3B 6223  13.594   0.040   8.739 -0.1871 -0.1102  0.1419
  389loPI   C4B 6224  13.602  -0.363   8.438 -0.1808  0.0396  0.3207
  390loPI    C1 6225  10.282  14.595   9.903 -0.1154  0.2314 -0.0282
  390loPI    C2 6226  10.012  14.319  10.008  0.0798  0.0166 -0.0837
  390loPI    C3 6227  10.106  14.613  10.262 -0.0229 -0.0514  0.0343
  390loPI   PO4 6228  10.284  14.605   9.654  0.1313  0.0006  0.0135
  390loPI   GL1 6229  10.248  14.840   9.336 -0.2713 -0.4112 -0.3045
  390loPI   GL2 6230  10.659  14.882   9.421  0.0935  0.5074 -0.0157
  390loPI   C1A 6231  10.174  15.220   9.104 -0.2793 -0.1593 -0.1950
  390loPI   C2A 6232  10.009  15.524   8.964  0.0292  0.0649 -0.0053
  390loPI   C3A 6233   9.981  15.863   8.672 -0.0309  0.0869 -0.1341
  390loPI   C4A 6234   9.877  16.113   8.359  0.2533  0.2379  0.2729
  390loPI   C5A 6235   9.675  16.505   8.370 -0.0290 -0.4585  0.0155
  390loPI   C6A 6236   9.596  16.817   8.532 -0.1513  0.0440 -0.0699
  390loPI   C1B 6237  10.594  14.956   9.037  0.0760  0.0868 -0.1823
  390loPI   C2B 6238  10.687  15.025   8.622  0.1010 -0.1174 -0.0497
  390loPI   C3B 6239  10.740  15.234   8.293  0.2977 -0.1531  0.0804
  390loPI   C4B 6240  10.689  15.590   7.983  0.0937  0.2156 -0.2621
  391loPI    C1 6241   3.539  12.637   9.856 -0.1086  0.0705 -0.0346
  391loPI    C2 6242   3.592  13.025   9.778 -0.4242  0.1209 -0.0118
  391loPI    C3 6243   3.398  12.913  10.109  0.1979 -0.0735  0.3022
  391loPI   PO4 6244   3.458  12.500   9.713  0.0728 -0.3414 -0.1022
  391loPI   GL1 6245   3.595  12.557   9.274  0.1099  0.5274 -0.2525
  391loPI   GL2 6246   3.578  12.207   9.211 -0.1213 -0.0606  0.0642
  391loPI   C1A 6247   3.631  12.808   8.788 -0.4372  0.0317  0.0471
  391loPI   C2A 6248   3.394  12.786   8.505 -0.1597 -0.4300  0.1989
  391loPI   C3A 6249   3.232  12.798   8.133 -0.2181  0.1297 -0.2221
  391loPI   C4A 6250   2.983  12.825   7.730  0.2307 -0.2792 -0.0225
  391loPI   C5A 6251   2.778  12.801   7.270  0.0708  0.1883 -0.2191
  391loPI   C6A 6252   2.590  12.786   6.840  0.2088  0.1104 -0.1164
  391loPI   C1B 6253   3.669  12.268   8.846  0.2609 -0.0492 -0.2444
  391loPI   C2B 6254   3.726  12.417   8.550 -0.0981 -0.0979  0.0172
  391loPI   C3B 6255   3.550  12.434   8.216 -0.0727  0.0049 -0.1349
  391loPI   C4B 6256   3.448  12.470   7.769 -0.0364 -0.0250 -0.2554
  392loPI    C1 6257  14.231   8.293  10.309  0.0226 -0.0126  0.2685
  392loPI    C2 6258  14.361   8.627  10.487  0.2241 -0.0523  0.1976
  392loPI    C3 6259  14.612   8.321  10.426  0.0595 -0.1882  0.1937
  392loPI   PO4 6260  14.097   8.412  10.037 -0.3544  0.2062 -0.3552
  392loPI   GL1 6261  14.105   8.166   9.657 -0.2620 -0.0485  0.0251
  392loPI   GL2 6262  14.234   8.511   9.592  0.1373 -0.2330  0.2741
  392loPI   C1A 6263  13.948   8.005   9.362  0.3302 -0.4101 -0.0004
  392loPI   C2A 6264  14.011   8.117   8.919 -0.5091  0.1723  0.3633
  392loPI   C3A 6265  13.848   7.925   8.544  0.0525  0.1483 -0.1895
  392loPI   C4A 6266  13.905   7.697   8.287 -0.0962 -0.1822 -0.1520
  392loPI   C5A 6267  13.691   7.579   7.957  0.2383 -0.1778 -0.5343
  392loPI   C6A 6268  13.635   7.113   7.764  0.1334  0.4921 -0.0443
  392loPI   C1B 6269  14.131   8.506   9.207 -0.2740  0.2575  0.0989
  392loPI   C2B 6270  14.046   8.664   8.897 -0.2218 -0.0696  0.1167
  392loPI   C3B 6271  13.851   8.561   8.467 -0.2068 -0.2511 -0.1441
  392loPI   C4B 6272  13.740   8.532   8.129  0.2176 -0.0080 -0.2872
  393loPI    C1 6273  14.522  15.334  10.262  0.0776 -0.1834  0.0125
  393loPI    C2 6274  14.621  15.697  10.126 -0.2133 -0.0277  0.2056
  393loPI    C3 6275  14.862  15.506  10.382 -0.0615  0.0297  0.1065
  393loPI   PO4 6276  14.350  15.271  10.104 -0.0091 -0.0681 -0.0013
  393loPI   GL1 6277  14.367  15.491   9.758  0.1122 -0.0673  0.0873
  393loPI   GL2 6278  14.102  15.304   9.669 -0.1952  0.1690 -0.1585
  393loPI   C1A 6279  14.597  15.308   9.523  0.4807  0.2343  0.1052
  393loPI   C2A 6280  14.816  15.399   9.079  0.0632 -0.0137 -0.1537
  393loPI   C3A 6281  14.689  15.300   8.619  0.1548  0.3836 -0.0186
  393loPI   C4A 6282  14.722  15.289   8.175  0.3435 -0.0691  0.2245
  393loPI   C5A 6283  14.714  15.486   7.713 -0.0097  0.2800  0.2129
  393loPI   C6A 6284  14.691  15.445   7.263 -0.0358 -0.1215  0.1078
  393loPI   C1B 6285  14.202  15.459   9.211 -0.0332  0.1904 -0.0908
  393loPI   C2B 6286  14.357  15.647   8.809 -0.0667  0.1461  0.1162
  393loPI   C3B 6287  14.282  15.601   8.338 -0.0953 -0.0835  0.0320
  393loPI   C4B 6288  14.468  15.785   8.118  0.2654 -0.1908  0.0185
  394loPI    C1 6289  13.314   5.246  10.720  0.1478 -0.0744  0.0501
  394loPI    C2 6290  13.609   5.421  10.925 -0.0176  0.0862  0.1542
  394loPI    C3 6291  13.434   5.091  11.069  0.1253 -0.0231  0.0806
  394loPI   PO4 6292  13.413   5.091  10.521  0.0853 -0.0550  0.2271
  394loPI   GL1 6293  13.591   4.912  10.264  0.1928  0.2249 -0.1013
  394loPI   GL2 6294  13.930   5.008  10.207 -0.1621 -0.0762 -0.2527
  394loPI   C1A 6295  13.605   5.261   9.906  0.1779  0.0590 -0.0953
  394loPI   C2A 6296  13.520   5.430   9.423 -0.1977 -0.4584  0.3322
  394loPI   C3A 6297  13.708   5.255   9.070  0.0180 -0.0668  0.1243
  394loPI   C4A 6298  13.935   5.241   8.603 -0.2823  0.0229  0.3153
  394loPI   C5A 6299  14.029   5.450   8.306 -0.1531 -0.0841  0.1701
  394loPI   C6A 6300  13.897   5.788   8.000  0.2252  0.1903 -0.0295
  394loPI   C1B 6301  14.101   5.133   9.875 -0.2271  0.0338  0.2267
  394loPI   C2B 6302  14.094   5.429   9.427  0.0672 -0.1144 -0.3456
  394loPI   C3B 6303  14.260   5.839   9.269 -0.0456  0.0879 -0.0594
  394loPI   C4B 6304  14.407   5.978   8.914  0.1311  0.1615 -0.1339
  395loPI    C1 6305   9.528   3.969  10.525  0.0441  0.0092 -0.0294
  395loPI    C2 6306   9.390   4.017  10.897 -0.1190 -0.1950 -0.0619
  395loPI    C3 6307   9.142   4.053  10.585  0.0101 -0.0580 -0.1502
  395loPI   PO4 6308   9.737   3.993  10.492  0.2834 -0.1104  0.0410
  395loPI   GL1 6309   9.715   3.700  10.112  0.2297 -0.1439 -0.1045
  395loPI   GL2 6310   9.318   3.603  10.202  0.1123  0.1647  0.1536
  395loPI   C1A 6311   9.745   3.759   9.678 -0.2498 -0.0295 -0.2315
  395loPI   C2A 6312   9.620   3.689   9.294  0.1119 -0.0623  0.2029
  395loPI   C3A 6313   9.545   3.564   8.903  0.2798 -0.0126  0.1506
  395loPI   C4A 6314   9.429   3.816   8.544 -0.1889  0.1429  0.2637
  395loPI   C5A 6315   9.612   4.209   8.433 -0.3571  0.2771  0.1833
  395loPI   C6A 6316   9.821   4.390   8.671 -0.1299 -0.1364 -0.0819
  395loPI   C1B 6317   9.221   3.665   9.691 -0.0643 -0.3852 -0.1239
  395loPI   C2B 6318   9.119   3.575   9.281 -0.3506  0.3382 -0.0368
  395loPI   C3B 6319   8.948   3.508   8.796  0.3580 -0.1246  0.2809
  395loPI   C4B 6320   8.628   3.786   8.638  0.2388 -0.2232  0.1882
  396loPI    C1 6321   9.625  18.083  10.323 -0.3423  0.1574  0.0517
  396loPI    C2 6322   9.689  18.476  10.364  0.0260  0.0766  0.3000
  396loPI    C3 6323   9.594  18.254  10.683 -0.0701 -0.0559  0.1806
  396loPI   PO4 6324   9.666  18.039  10.055  0.2256  0.0829  0.1874
  396loPI   GL1 6325   9.506  18.356   9.851  0.2506 -0.3173  0.0636
  396loPI   GL2 6326   9.237  18.307   9.954 -0.1134  0.2766  0.0706
  396loPI   C1A 6327   9.686  18.423   9.435  0.2153 -0.1488 -0.0861
  396loPI   C2A 6328   9.880  18.645   9.116 -0.1170 -0.0088  0.1205
  396loPI   C3A 6329   9.855  18.506   8.656  0.1914 -0.0075 -0.0029
  396loPI   C4A 6330  10.057  18.276   8.256 -0.2154 -0.3262 -0.1596
  396loPI   C5A 6331  10.277  17.967   7.995  0.1521  0.0505 -0.0275
  396loPI   C6A 6332  10.001  17.654   7.739  0.1714  0.1612  0.0402
  396loPI   C1B 6333   9.212  18.628   9.600 -0.1697  0.3315  0.2838
  396loPI   C2B 6334   8.951  18.773   9.283  0.1766 -0.0812  0.1050
  396loPI   C3B 6335   8.957  18.883   8.811 -0.1360 -0.0981  0.1526
  396loPI   C4B 6336   8.809  18.946   8.360  0.0753 -0.1392 -0.2315
  397loPI    C1 6337  16.285   9.101   9.697  0.1722 -0.1108  0.1098
  397loPI    C2 6338  16.215   9.200  10.078  0.2485 -0.1682  0.1389
  397loPI    C3 6339  16.244   8.815   9.974 -0.5175 -0.1898 -0.0552
  397loPI   PO4 6340  16.537   9.229   9.611 -0.0249  0.0299 -0.0165
  397loPI   GL1 6341  16.871   9.362   9.347 -0.0774  0.1075  0.0604
  397loPI   GL2 6342  16.891   9.052   9.101 -0.0880 -0.1922  0.1341
  397loPI   C1A 6343  16.662   9.466   8.960 -0.0311  0.1638  0.0438
  397loPI   C2A 6344  16.393   9.724   8.693  0.1707  0.0135 -0.3677
  397loPI   C3A 6345  16.467  10.058   8.528  0.2948  0.1391  0.0393
  397loPI   C4A 6346  16.278  10.478   8.753  0.2020  0.1145 -0.0807
  397loPI   C5A 6347  16.366  10.846   8.886  0.1452 -0.3416  0.1866
  397loPI   C6A 6348  16.210  11.301   8.979  0.1016  0.1049 -0.1442
  397loPI   C1B 6349  16.902   9.196   8.656  0.2926 -0.0184  0.2709
  397loPI   C2B 6350  16.898   9.462   8.244 -0.0246  0.1326  0.0488
  397loPI   C3B 6351  16.659   9.797   7.923  0.0335 -0.1690  0.2348
  397loPI   C4B 6352  16.359  10.157   7.924  0.0303  0.3429 -0.2249
  398loPI    C1 6353  18.437  17.738  10.549  0.2791 -0.1660  0.1057
  398loPI    C2 6354  18.365  17.488  10.852 -0.1992 -0.1141  0.0431
  398loPI    C3 6355  18.455  17.870  10.926  0.1564 -0.2099  0.1275
  398loPI   PO4 6356  18.258  17.773  10.422 -0.0600 -0.0370  0.0363
  398loPI   GL1 6357  18.246  18.025  10.131 -0.3448 -0.0319  0.0250
  398loPI   GL2 6358  17.942  17.960  10.003 -0.1921 -0.0905 -0.0124
  398loPI   C1A 6359  18.341  17.883   9.780 -0.0622  0.2367  0.4228
  398loPI   C2A 6360  18.246  17.869   9.378 -0.2189 -0.0662 -0.0706
  398loPI   C3A 6361  18.180  17.974   8.993 -0.1073 -0.1755 -0.0367
  398loPI   C4A 6362  18.167  18.096   8.559  0.0074 -0.4186  0.0173
  398loPI   C5A 6363  18.211  18.231   8.104  0.1121 -0.2496  0.3290
  398loPI   C6A 6364  18.179  17.895   7.768 -0.0264 -0.0295  0.1963
  398loPI   C1B 6365  17.982  18.267   9.757 -0.1667 -0.3722 -0.0199
  398loPI   C2B 6366  17.964  18.462   9.296  0.1748 -0.0344 -0.3904
  398loPI   C3B 6367  17.970  18.408   8.884  0.1767  0.0548  0.0472
  398loPI   C4B 6368  18.001  18.549   8.456  0.1164  0.0182  0.4219
  399loPI    C1 6369   2.389  18.064  10.325  0.0739 -0.0296  0.2654
  399loPI    C2 6370   2.392  17.720  10.529  0.4009 -0.0550  0.2232
  399loPI    C3 6371   2.581  18.041  10.675  0.4704 -0.0182  0.0547
  399loPI   PO4 6372   2.398  17.943  10.097  0.1152 -0.0762  0.3049
  399loPI   GL1 6373   2.054  18.002   9.853 -0.0907  0.1683 -0.2833
  399loPI   GL2 6374   1.849  17.726   9.858 -0.0377  0.1939  0.2987
  399loPI   C1A 6375   2.229  18.097   9.409 -0.3292 -0.3806 -0.0463
  399loPI   C2A 6376   2.023  18.099   9.067  0.0905  0.1920  0.3674
  399loPI   C3A 6377   2.280  18.231   8.738  0.0405 -0.2704  0.2775
  399loPI   C4A 6378   2.384  17.912   8.453  0.1247  0.3710 -0.0957
  399loPI   C5A 6379   2.373  17.753   7.984  0.0000 -0.2087 -0.1337
  399loPI   C6A 6380   2.220  17.512   7.736 -0.5223  0.0258 -0.1974
  399loPI   C1B 6381   1.878  17.711   9.492  0.3010 -0.3297  0.0556
  399loPI   C2B 6382   1.992  17.556   9.153  0.0689 -0.0876 -0.1697
  399loPI   C3B 6383   1.696  17.622   8.852 -0.2167  0.1838  0.0044
  399loPI   C4B 6384   1.259  17.627   8.674  0.3264  0.1585  0.2338
  400loPI    C1 6385  14.291  10.346   9.634  0.2460 -0.0499  0.2369
  400loPI    C2 6386  14.252  10.127   9.967  0.0758  0.1504  0.3517
  400loPI    C3 6387  13.971  10.395   9.869 -0.0389 -0.1312 -0.1248
  400loPI   PO4 6388  14.329  10.274   9.457  0.1242 -0.0460  0.0898
  400loPI   GL1 6389  14.378  10.092   9.099  0.0718 -0.1499  0.1082
  400loPI   GL2 6390  14.650   9.969   9.228 -0.0204 -0.3244 -0.0457
  400loPI   C1A 6391  14.318  10.196   8.747  0.1637  0.1602  0.0342
  400loPI   C2A 6392  14.111  10.451   8.371  0.5738  0.1485 -0.0379
  400loPI   C3A 6393  13.975  10.380   8.026  0.2985 -0.0247  0.1136
  400loPI   C4A 6394  14.192  10.085   7.700 -0.0722 -0.1674 -0.2092
  400loPI   C5A 6395  14.591   9.936   7.849  0.1473  0.1374 -0.1166
  400loPI   C6A 6396  14.928  10.045   7.826 -0.3514  0.1954  0.0764
  400loPI   C1B 6397  14.836   9.919   8.799 -0.2608 -0.1447  0.1402
  400loPI   C2B 6398  15.107   9.939   8.493  0.0300  0.0451 -0.0443
  400loPI   C3B 6399  15.524   9.955   8.301  0.0491 -0.1900 -0.0844
  400loPI   C4B 6400  15.859   9.952   8.044  0.1466  0.2034 -0.0529
  401loPI    C1 6401   1.791   9.815   9.973 -0.0973 -0.2824  0.0271
  401loPI    C2 6402   1.560   9.584  10.204 -0.1379 -0.0337  0.2386
  401loPI    C3 6403   1.531   9.983  10.226  0.0734 -0.0043  0.0218
  401loPI   PO4 6404   1.982   9.710   9.945 -0.3040  0.0288 -0.0272
  401loPI   GL1 6405   1.987   9.445   9.521 -0.0738 -0.0603  0.1769
  401loPI   GL2 6406   1.654   9.498   9.537 -0.1026  0.0443  0.0071
  401loPI   C1A 6407   2.141   9.371   9.127  0.0635  0.1214 -0.3359
  401loPI   C2A 6408   2.294   9.362   8.717 -0.0599 -0.1437  0.1363
  401loPI   C3A 6409   2.390   9.253   8.279 -0.1667  0.0688 -0.2854
  401loPI   C4A 6410   2.223   9.204   7.861  0.0485  0.1963 -0.2905
  401loPI   C5A 6411   1.985   9.029   7.502  0.2175 -0.2546  0.0331
  401loPI   C6A 6412   2.103   8.528   7.553  0.0444 -0.0818 -0.0879
  401loPI   C1B 6413   1.709   9.662   9.103 -0.0770  0.0428 -0.0274
  401loPI   C2B 6414   1.846   9.701   8.731 -0.1870  0.2036  0.1176
  401loPI   C3B 6415   2.013   9.619   8.321  0.2181 -0.3318 -0.3021
  401loPI   C4B 6416   1.861   9.550   7.943  0.0951 -0.1185 -0.0072
  402loPI    C1 6417   1.298  12.954  10.016  0.2193 -0.1503  0.0874
  402loPI    C2 6418   1.511  13.156  10.287 -0.1828  0.0655  0.2519
  402loPI    C3 6419   1.519  12.757  10.284  0.3611  0.0689  0.1347
  402loPI   PO4 6420   1.474  13.096   9.788 -0.2129  0.0911  0.0310
  402loPI   GL1 6421   1.467  13.072   9.374 -0.0284 -0.1216 -0.0763
  402loPI   GL2 6422   1.702  12.902   9.351 -0.2906 -0.0980 -0.1717
  402loPI   C1A 6423   1.073  13.029   9.221  0.0828 -0.0118 -0.1233
  402loPI   C2A 6424   0.970  13.185   8.751  0.0942 -0.0394 -0.3382
  402loPI   C3A 6425   0.740  13.299   8.351  0.1234  0.0571  0.0054
  402loPI   C4A 6426   0.355  13.234   8.155 -0.2807  0.1059 -0.1468
  402loPI   C5A 6427   0.104  12.926   8.379  0.1735 -0.0025  0.0985
  402loPI   C6A 6428  -0.200  12.697   8.077 -0.0212 -0.1428  0.1131
  402loPI   C1B 6429   1.525  12.810   8.920  0.3751  0.0353 -0.0162
  402loPI   C2B 6430   1.670  12.573   8.519  0.1275 -0.1721  0.0846
  402loPI   C3B 6431   1.521  12.228   8.173  0.0975  0.0965  0.0532
  402loPI   C4B 6432   1.608  12.397   7.736  0.0592  0.3183 -0.2605
  403loPI    C1 6433   9.870   7.744  10.822 -0.0425 -0.1136  0.0931
  403loPI    C2 6434   9.620   8.024  10.962  0.2027  0.0562  0.2000
  403loPI    C3 6435   9.679   7.686  11.168 -0.2663 -0.1830 -0.0397
  403loPI   PO4 6436   9.829   7.763  10.585 -0.2649 -0.1375  0.1611
  403loPI   GL1 6437  10.085   7.532  10.223 -0.0483 -0.0534 -0.1720
  403loPI   GL2 6438  10.154   7.793  10.173  0.1373  0.1056  0.0870
  403loPI   C1A 6439  10.097   7.396   9.866 -0.2537 -0.1048  0.1348
  403loPI   C2A 6440  10.247   7.467   9.432 -0.2595 -0.0342  0.0903
  403loPI   C3A 6441  10.144   7.432   8.915  0.3250 -0.2900  0.0996
  403loPI   C4A 6442   9.903   7.501   8.487  0.1111 -0.0198 -0.2423
  403loPI   C5A 6443   9.798   7.795   8.182  0.0392 -0.3004  0.0645
  403loPI   C6A 6444   9.575   8.000   7.809 -0.0633 -0.3096  0.0695
  403loPI   C1B 6445  10.496   8.003   9.864 -0.2963 -0.0377  0.2389
  403loPI   C2B 6446  10.458   7.936   9.425  0.3490  0.1842 -0.0212
  403loPI   C3B 6447  10.496   7.863   8.954 -0.0058 -0.0830 -0.5845
  403loPI   C4B 6448  10.259   7.823   8.611  0.5390  0.1602 -0.1067
  404loPI    C1 6449   9.322   8.370  10.718  0.1023 -0.2164 -0.0489
  404loPI    C2 6450   9.026   8.563  10.905  0.1249 -0.2011 -0.0287
  404loPI    C3 6451   9.098   8.179  10.990  0.0469 -0.2332 -0.1061
  404loPI   PO4 6452   9.328   8.394  10.427  0.1441 -0.0566  0.4491
  404loPI   GL1 6453   9.552   8.270  10.072 -0.2744  0.1075  0.0712
  404loPI   GL2 6454   9.750   7.959   9.978  0.2493  0.4242 -0.0246
  404loPI   C1A 6455   9.732   8.383   9.639 -0.2975 -0.1054  0.0921
  404loPI   C2A 6456   9.871   8.527   9.266  0.2083  0.0377 -0.1467
  404loPI   C3A 6457  10.066   8.639   8.958  0.3316 -0.1534  0.0474
  404loPI   C4A 6458   9.993   8.589   8.534  0.0144 -0.1860 -0.1814
  404loPI   C5A 6459   9.808   8.848   8.323  0.2411 -0.3471 -0.0096
  404loPI   C6A 6460   9.666   9.288   8.167 -0.0303 -0.0304 -0.0403
  404loPI   C1B 6461   9.975   7.873   9.603 -0.0398  0.3175  0.0617
  404loPI   C2B 6462   9.981   7.986   9.177  0.4077  0.4086  0.2140
  404loPI   C3B 6463   9.956   8.167   8.802 -0.3064 -0.2716 -0.2502
  404loPI   C4B 6464  10.046   8.173   8.347  0.2300  0.2782 -0.0236
  405loPI    C1 6465   6.389   9.657  10.212 -0.1401  0.2320 -0.0884
  405loPI    C2 6466   6.096   9.792  10.450 -0.3356 -0.2410 -0.0485
  405loPI    C3 6467   6.438   9.659  10.609 -0.2661 -0.0887 -0.0682
  405loPI   PO4 6468   6.357   9.513  10.044 -0.2286  0.1170  0.0273
  405loPI   GL1 6469   6.508   9.513   9.685  0.1251 -0.0744 -0.0025
  405loPI   GL2 6470   6.829   9.575   9.600 -0.1529 -0.1366  0.2505
  405loPI   C1A 6471   6.361   9.517   9.283  0.2121 -0.3277  0.1493
  405loPI   C2A 6472   6.397   9.501   8.805 -0.1101  0.2247  0.1379
  405loPI   C3A 6473   6.640   9.386   8.442  0.0548 -0.2107 -0.1434
  405loPI   C4A 6474   6.791   9.236   8.051  0.1608 -0.0433  0.0314
  405loPI   C5A 6475   6.848   8.877   7.707 -0.0836  0.1608  0.3752
  405loPI   C6A 6476   6.764   8.629   7.277 -0.1539 -0.1331  0.0060
  405loPI   C1B 6477   6.912   9.584   9.153 -0.2224  0.3127 -0.0082
  405loPI   C2B 6478   6.875   9.804   8.694 -0.1393  0.0394 -0.3574
  405loPI   C3B 6479   6.913  10.313   8.612 -0.0461  0.3464  0.1980
  405loPI   C4B 6480   6.876  10.486   8.173 -0.2050  0.1296 -0.1274
  406loPI    C1 6481   9.013   5.097  10.999 -0.0026  0.1174  0.1607
  406loPI    C2 6482   9.223   4.813  11.186 -0.3040 -0.1641  0.0814
  406loPI    C3 6483   9.029   5.091  11.398  0.1755  0.1272  0.1547
  406loPI   PO4 6484   9.127   5.023  10.702  0.0991  0.1407 -0.0615
  406loPI   GL1 6485   9.521   4.911  10.510  0.0074 -0.1195  0.2361
  406loPI   GL2 6486   9.849   4.999  10.515  0.0290 -0.0963 -0.0029
  406loPI   C1A 6487   9.499   4.749  10.123 -0.1176 -0.2117 -0.2107
  406loPI   C2A 6488   9.234   4.632   9.810  0.1238  0.0176 -0.0574
  406loPI   C3A 6489   9.337   4.557   9.333  0.2124 -0.2610  0.0988
  406loPI   C4A 6490   9.359   4.854   8.895  0.2100 -0.1476  0.1775
  406loPI   C5A 6491   9.337   4.867   8.440  0.1273 -0.2038 -0.1928
  406loPI   C6A 6492   9.552   4.768   8.090  0.1497 -0.1618 -0.1223
  406loPI   C1B 6493   9.888   5.103  10.100  0.1800 -0.0715  0.0069
  406loPI   C2B 6494  10.139   4.998   9.702 -0.3304  0.1271  0.0744
  406loPI   C3B 6495  10.240   4.748   9.350  0.0537  0.0665 -0.0537
  406loPI   C4B 6496  10.174   4.227   9.140 -0.2555  0.1315  0.0157
  407loPI    C1 6497   8.572  10.925  10.030 -0.1299  0.1020 -0.2775
  407loPI    C2 6498   8.219  11.066  10.154  0.0299  0.0853  0.2174
  407loPI    C3 6499   8.547  11.293  10.187  0.0753  0.0893 -0.2120
  407loPI   PO4 6500   8.516  10.882   9.722  0.1088 -0.1082 -0.1222
  407loPI   GL1 6501   8.647  10.889   9.364 -0.0259  0.3221 -0.0846
  407loPI   GL2 6502   8.405  10.808   9.113  0.2521  0.1086 -0.1688
  407loPI   C1A 6503   8.897  10.640   9.162 -0.1060  0.1001 -0.3321
  407loPI   C2A 6504   8.865  10.321   8.820 -0.1472 -0.0246 -0.1716
  407loPI   C3A 6505   8.798  10.188   8.387 -0.0393 -0.2881 -0.1418
  407loPI   C4A 6506   8.573  10.015   7.966 -0.2682 -0.1205 -0.1708
  407loPI   C5A 6507   8.146   9.854   7.937  0.1213  0.0465 -0.0953
  407loPI   C6A 6508   7.828   9.730   7.686 -0.0533  0.3229 -0.1532
  407loPI   C1B 6509   8.729  10.866   8.771 -0.1341  0.0854 -0.3495
  407loPI   C2B 6510   8.871  10.711   8.416  0.0278 -0.2198 -0.0069
  407loPI   C3B 6511   9.102  10.490   8.166 -0.2615  0.1393  0.0739
  407loPI   C4B 6512   9.506  10.217   8.058  0.2405  0.1208  0.0844
  408loPI    C1 6513   1.896  13.794  10.242  0.0457  0.2507  0.1613
  408loPI    C2 6514   1.607  13.820  10.518  0.1093  0.2755  0.2259
  408loPI    C3 6515   1.792  13.472  10.455 -0.2219  0.1534 -0.1092
  408loPI   PO4 6516   1.849  13.853   9.979  0.0815  0.0403 -0.1808
  408loPI   GL1 6517   1.899  14.097   9.657 -0.2759  0.0846  0.2398
  408loPI   GL2 6518   2.264  14.125   9.638  0.1263  0.1556  0.0305
  408loPI   C1A 6519   1.860  13.967   9.222 -0.0803  0.1284  0.1386
  408loPI   C2A 6520   1.528  13.813   8.935  0.0321  0.0889 -0.0643
  408loPI   C3A 6521   1.490  13.753   8.460 -0.2377 -0.0003  0.0728
  408loPI   C4A 6522   1.464  13.953   8.150  0.2098  0.0922  0.0536
  408loPI   C5A 6523   1.453  13.967   7.735  0.2132 -0.3245 -0.3820
  408loPI   C6A 6524   1.158  14.239   7.592 -0.1431 -0.0258 -0.1786
  408loPI   C1B 6525   2.358  13.984   9.255  0.2164 -0.1047 -0.0010
  408loPI   C2B 6526   2.509  13.857   8.850  0.1437  0.4964  0.1815
  408loPI   C3B 6527   2.397  13.772   8.438  0.0702  0.1105  0.0021
  408loPI   C4B 6528   2.509  13.584   8.057  0.1321  0.0176  0.1122
  409loPI    C1 6529   6.601  13.972   9.937 -0.1137  0.1704  0.0126
  409loPI    C2 6530   6.895  14.193  10.094 -0.2319  0.2769  0.0861
  409loPI    C3 6531   6.542  14.169  10.280 -0.1966 -0.0361  0.1181
  409loPI   PO4 6532   6.614  14.015   9.746 -0.1589  0.0760 -0.1187
  409loPI   GL1 6533   6.811  13.924   9.290 -0.2678  0.0530  0.2209
  409loPI   GL2 6534   6.790  13.626   9.081  0.0920 -0.0803 -0.1615
  409loPI   C1A 6535   6.692  14.079   8.901 -0.0322  0.0061 -0.3079
  409loPI   C2A 6536   6.572  14.181   8.443  0.2945 -0.0109 -0.1357
  409loPI   C3A 6537   6.371  14.301   8.086 -0.2714 -0.0697  0.0815
  409loPI   C4A 6538   6.322  14.346   7.720  0.0945 -0.2746  0.3796
  409loPI   C5A 6539   6.126  14.087   7.347  0.1822 -0.0362 -0.0669
  409loPI   C6A 6540   5.936  13.617   7.238  0.1434 -0.0453  0.2226
  409loPI   C1B 6541   6.853  13.678   8.663 -0.1248 -0.1539  0.2290
  409loPI   C2B 6542   6.866  13.817   8.361  0.2488  0.1054  0.0012
  409loPI   C3B 6543   6.728  14.025   7.910  0.4122  0.0818 -0.0858
  409loPI   C4B 6544   6.748  14.161   7.434 -0.0327  0.0387 -0.1677
  410loPI    C1 6545  17.659   0.162  10.885 -0.0819  0.0659 -0.1669
  410loPI    C2 6546  17.719   0.542  10.993 -0.1915  0.0133  0.0859
  410loPI    C3 6547  17.739   0.251  11.267 -0.1543 -0.1587 -0.0978
  410loPI   PO4 6548  17.770   0.120  10.705  0.1778  0.2124  0.0551
  410loPI   GL1 6549  17.718   0.126  10.327 -0.1040 -0.0916  0.2108
  410loPI   GL2 6550  17.430   0.242  10.178 -0.3388  0.2586 -0.3494
  410loPI   C1A 6551  17.676   0.090   9.799  0.0504  0.0080  0.3176
  410loPI   C2A 6552  17.627   0.246   9.496  0.1121  0.1870 -0.1895
  410loPI   C3A 6553  17.561   0.335   9.066 -0.0720  0.0651  0.2197
  410loPI   C4A 6554  17.678   0.210   8.640  0.0866 -0.0330 -0.0359
  410loPI   C5A 6555  17.669   0.332   8.281 -0.3068 -0.2124  0.1269
  410loPI   C6A 6556  18.101   0.527   8.117  0.2192 -0.1900  0.0071
  410loPI   C1B 6557  17.196   0.398   9.845 -0.2640 -0.0773 -0.0462
  410loPI   C2B 6558  17.341   0.606   9.682  0.0055 -0.2263  0.1247
  410loPI   C3B 6559  17.341   0.780   9.404 -0.0509 -0.0476  0.2050
  410loPI   C4B 6560  17.279   0.705   8.951 -0.1753  0.0961 -0.2134
  411loPI    C1 6561   1.455  15.200  10.127  0.0748  0.0878  0.2407
  411loPI    C2 6562   1.778  14.975  10.194 -0.0942 -0.1504  0.2695
  411loPI    C3 6563   1.416  14.839  10.293 -0.2228  0.0365  0.0668
  411loPI   PO4 6564   1.526  15.306   9.886  0.1950 -0.2109 -0.0023
  411loPI   GL1 6565   1.482  15.254   9.491  0.0811  0.3268  0.0930
  411loPI   GL2 6566   1.699  15.477   9.407  0.0741  0.0636  0.1723
  411loPI   C1A 6567   1.396  15.143   8.887  0.0546 -0.0366 -0.2958
  411loPI   C2A 6568   1.304  15.210   8.476 -0.1730 -0.0217 -0.1877
  411loPI   C3A 6569   1.170  15.523   8.228 -0.3215 -0.0438  0.1068
  411loPI   C4A 6570   1.096  15.713   7.839  0.1387 -0.0528 -0.1036
  411loPI   C5A 6571   0.822  15.816   7.598  0.1442  0.2422 -0.1714
  411loPI   C6A 6572   0.415  15.962   7.443  0.1376 -0.3079  0.0143
  411loPI   C1B 6573   1.811  15.408   8.979 -0.1981 -0.0486  0.1588
  411loPI   C2B 6574   1.881  15.297   8.556 -0.0552  0.0239  0.1031
  411loPI   C3B 6575   1.692  15.534   8.202  0.0635 -0.3507  0.1482
  411loPI   C4B 6576   1.599  15.763   7.882  0.1365  0.2484 -0.0422
  412loPI    C1 6577  13.906   3.064  10.859  0.2747 -0.0707 -0.1410
  412loPI    C2 6578  13.835   2.671  10.831  0.2026 -0.0627 -0.0726
  412loPI    C3 6579  13.894   2.839  11.189 -0.0252  0.0330 -0.0778
  412loPI   PO4 6580  13.723   3.159  10.730  0.1379 -0.3658  0.1386
  412loPI   GL1 6581  13.616   3.102  10.301 -0.0897  0.0973  0.1005
  412loPI   GL2 6582  13.215   3.291  10.115 -0.1206  0.0991  0.0463
  412loPI   C1A 6583  13.545   3.127   9.789  0.0483  0.2730 -0.1467
  412loPI   C2A 6584  13.565   3.073   9.436 -0.0946 -0.0766 -0.1685
  412loPI   C3A 6585  13.521   3.303   9.043  0.0635  0.4477  0.0621
  412loPI   C4A 6586  13.498   3.629   8.679  0.3098  0.1144  0.3389
  412loPI   C5A 6587  13.376   3.947   8.507  0.0231  0.2944 -0.3290
  412loPI   C6A 6588  13.466   4.338   8.234  0.3574  0.1222  0.1968
  412loPI   C1B 6589  12.837   3.291  10.045  0.2464 -0.0277 -0.1440
  412loPI   C2B 6590  12.613   3.263   9.527 -0.2870  0.2354  0.0014
  412loPI   C3B 6591  12.197   3.304   9.214 -0.0005  0.0734  0.0446
  412loPI   C4B 6592  11.944   3.387   8.855 -0.1018  0.0065  0.1549
  413loPI    C1 6593  18.407  14.863  10.167  0.0984 -0.0882 -0.0243
  413loPI    C2 6594  18.735  14.965  10.372  0.0077  0.1138  0.0230
  413loPI    C3 6595  18.374  15.002  10.541 -0.0494  0.0273 -0.0791
  413loPI   PO4 6596  18.527  14.934   9.862 -0.0065 -0.0960 -0.0735
  413loPI   GL1 6597  18.399  14.877   9.404  0.1437  0.0492 -0.2310
  413loPI   GL2 6598  18.529  15.067   9.382  0.3307  0.3650 -0.0749
  413loPI   C1A 6599  18.137  14.915   8.969  0.2675  0.0172  0.0289
  413loPI   C2A 6600  18.001  15.178   8.679 -0.1109 -0.1118 -0.1827
  413loPI   C3A 6601  18.059  15.322   8.237 -0.1067  0.1005  0.0824
  413loPI   C4A 6602  18.144  15.486   7.827  0.1629  0.1292 -0.0953
  413loPI   C5A 6603  17.856  15.780   7.484 -0.0570  0.0273 -0.0241
  413loPI   C6A 6604  17.773  16.125   7.361  0.0913 -0.1845 -0.2837
  413loPI   C1B 6605  18.626  14.996   8.887 -0.2025  0.1511 -0.0492
  413loPI   C2B 6606  18.384  14.959   8.525  0.1837 -0.1653 -0.2065
  413loPI   C3B 6607  18.409  14.870   8.096 -0.0324  0.1402  0.1120
  413loPI   C4B 6608  18.539  15.129   7.768 -0.0877 -0.1150  0.1344
  414loPI    C1 6609   6.606  12.994   9.591  0.0678 -0.2352 -0.0515
  414loPI    C2 6610   6.467  13.194   9.908  0.1435  0.1999 -0.2847
  414loPI    C3 6611   6.636  12.835   9.956  0.0256  0.1969  0.1463
  414loPI   PO4 6612   6.480  13.157   9.367  0.2806 -0.0738  0.1899
  414loPI   GL1 6613   6.382  13.171   8.950  0.1107  0.1903 -0.1673
  414loPI   GL2 6614   6.052  13.113   9.057  0.1783 -0.2959  0.0340
  414loPI   C1A 6615   6.562  13.279   8.563  0.2993  0.3156  0.0881
  414loPI   C2A 6616   6.666  13.375   8.301  0.1864  0.2507  0.2586
  414loPI   C3A 6617   6.596  13.405   7.835  0.0865  0.2145  0.1841
  414loPI   C4A 6618   6.469  13.573   7.423  0.2843 -0.1689  0.0960
  414loPI   C5A 6619   6.842  13.631   7.157  0.0051  0.3337 -0.1154
  414loPI   C6A 6620   7.222  13.291   7.176  0.1347  0.0811 -0.2546
  414loPI   C1B 6621   5.972  13.144   8.614 -0.0720  0.1344 -0.2238
  414loPI   C2B 6622   5.857  13.369   8.309  0.1410  0.4158 -0.1930
  414loPI   C3B 6623   5.733  13.584   7.945  0.1433  0.1070 -0.0244
  414loPI   C4B 6624   5.551  13.562   7.649 -0.1414  0.2884 -0.0240
  415loPI    C1 6625  10.769   2.030  11.028 -0.0931 -0.1285 -0.1979
  415loPI    C2 6626  10.955   1.797  11.296 -0.0622  0.1775  0.0533
  415loPI    C3 6627  10.562   1.753  11.231  0.0009 -0.1500 -0.1307
  415loPI   PO4 6628  10.935   2.052  10.828 -0.0729  0.0239 -0.2563
  415loPI   GL1 6629  10.794   2.044  10.385 -0.2124  0.2631 -0.0181
  415loPI   GL2 6630  10.555   1.966  10.191  0.2594  0.2296 -0.0273
  415loPI   C1A 6631  11.057   2.208  10.089  0.1939  0.0490  0.0430
  415loPI   C2A 6632  11.405   2.499   9.893  0.1425 -0.0822 -0.0020
  415loPI   C3A 6633  11.589   2.746   9.552  0.0951  0.0937  0.1501
  415loPI   C4A 6634  11.709   2.866   9.159 -0.0911 -0.2887 -0.0738
  415loPI   C5A 6635  11.638   3.006   8.771 -0.1375  0.1166  0.0675
  415loPI   C6A 6636  11.430   2.936   8.397 -0.2719  0.1675 -0.0722
  415loPI   C1B 6637  10.765   2.049   9.734 -0.1932  0.0814 -0.0778
  415loPI   C2B 6638  10.879   2.255   9.353 -0.2611  0.2857  0.0643
  415loPI   C3B 6639  10.788   2.332   8.975  0.0418  0.4333 -0.1747
  415loPI   C4B 6640  10.833   2.148   8.655  0.2680 -0.0226  0.0263
  416loPI    C1 6641  17.776  17.798  10.454 -0.1900  0.0506  0.1060
  416loPI    C2 6642  17.975  17.820  10.800  0.2837 -0.0779 -0.1490
  416loPI    C3 6643  17.941  17.469  10.612 -0.0080 -0.0166 -0.2148
  416loPI   PO4 6644  17.607  17.928  10.438  0.0082  0.2731 -0.3215
  416loPI   GL1 6645  17.431  17.810  10.042  0.2083 -0.0744 -0.0604
  416loPI   GL2 6646  17.161  17.675  10.094  0.1199 -0.0341 -0.0500
  416loPI   C1A 6647  17.591  17.856   9.628  0.0558 -0.2849  0.2288
  416loPI   C2A 6648  17.744  18.012   9.257  0.1954 -0.1314 -0.0335
  416loPI   C3A 6649  17.665  17.969   8.924 -0.3650 -0.3394 -0.1332
  416loPI   C4A 6650  17.656  17.908   8.522  0.1342  0.1806 -0.0862
  416loPI   C5A 6651  17.804  18.031   8.193 -0.0544 -0.1824  0.0138
  416loPI   C6A 6652  17.711  18.178   7.784 -0.2038 -0.0944  0.1392
  416loPI   C1B 6653  16.894  17.332   9.869 -0.0458 -0.0686 -0.1296
  416loPI   C2B 6654  16.859  17.399   9.416 -0.2024  0.0014  0.1773
  416loPI   C3B 6655  16.865  17.467   9.005  0.0700 -0.2897  0.3045
  416loPI   C4B 6656  16.726  17.471   8.577 -0.1912 -0.2470 -0.0660
  417loPI    C1 6657   6.969  15.878  10.400 -0.0341  0.0516 -0.0861
  417loPI    C2 6658   6.598  15.743  10.463 -0.0299 -0.0131 -0.1981
  417loPI    C3 6659   6.896  15.626  10.702 -0.0684 -0.0190 -0.1530
  417loPI   PO4 6660   7.052  15.812  10.140  0.0490  0.2122 -0.3102
  417loPI   GL1 6661   7.235  15.893   9.628  0.0315  0.0195  0.1279
  417loPI   GL2 6662   6.923  15.927   9.487 -0.0153  0.2301 -0.1097
  417loPI   C1A 6663   7.503  15.773   9.248  0.1109 -0.2650  0.0931
  417loPI   C2A 6664   7.421  15.677   8.833 -0.0679 -0.0214  0.3822
  417loPI   C3A 6665   7.418  15.858   8.386 -0.0171  0.1794 -0.0959
  417loPI   C4A 6666   7.371  16.010   7.945 -0.0762 -0.2315 -0.0218
  417loPI   C5A 6667   7.189  16.328   7.655 -0.0320 -0.2164 -0.1138
  417loPI   C6A 6668   6.757  16.369   7.480  0.0568  0.2494  0.1617
  417loPI   C1B 6669   7.099  15.984   9.075  0.0534  0.1955  0.0349
  417loPI   C2B 6670   7.523  16.127   8.827 -0.0547  0.1943  0.0771
  417loPI   C3B 6671   7.813  16.271   8.497 -0.0712 -0.0681 -0.2732
  417loPI   C4B 6672   8.118  16.254   8.287 -0.2234 -0.1210 -0.2176
  418loPI    C1 6673  11.922   2.456  10.805 -0.2156  0.1045  0.0328
  418loPI    C2 6674  12.296   2.593  10.846 -0.1290 -0.0838 -0.1120
  418loPI    C3 6675  12.047   2.594  11.159  0.0290 -0.0631  0.0143
  418loPI   PO4 6676  11.962   2.192  10.637 -0.1426 -0.0057 -0.0826
  418loPI   GL1 6677  11.931   2.029  10.329 -0.0510 -0.2673  0.0999
  418loPI   GL2 6678  11.918   2.393  10.161  0.3725  0.1135 -0.1507
  418loPI   C1A 6679  12.017   1.960   9.874 -0.1621  0.1800 -0.1425
  418loPI   C2A 6680  12.161   1.996   9.403 -0.0118 -0.6102  0.0314
  418loPI   C3A 6681  12.171   2.039   8.948 -0.1064 -0.1242 -0.0942
  418loPI   C4A 6682  12.150   2.014   8.506  0.3118  0.2209 -0.1935
  418loPI   C5A 6683  12.269   1.984   8.149 -0.0689 -0.4402 -0.0290
  418loPI   C6A 6684  12.085   1.992   7.828 -0.0355  0.4163  0.0785
  418loPI   C1B 6685  11.697   2.779  10.121 -0.1846 -0.2480  0.1757
  418loPI   C2B 6686  11.560   3.140   9.978  0.1083  0.0922 -0.3654
  418loPI   C3B 6687  11.304   3.507   9.815 -0.4473  0.2181  0.2103
  418loPI   C4B 6688  11.020   3.789  10.031  0.1890  0.0727 -0.0104
  419loPI    C1 6689  18.614   7.232   9.913  0.1620  0.1858 -0.1959
  419loPI    C2 6690  18.731   7.198  10.294 -0.1202 -0.1821 -0.1357
  419loPI    C3 6691  18.479   7.490  10.187 -0.0704 -0.1011 -0.0342
  419loPI   PO4 6692  18.698   7.030   9.750  0.0645  0.2447 -0.0131
  419loPI   GL1 6693  18.636   6.780   9.367 -0.0009 -0.1988  0.3436
  419loPI   GL2 6694  18.947   6.819   9.306 -0.0714  0.1063  0.0429
  419loPI   C1A 6695  18.416   6.965   9.065 -0.2275 -0.1636  0.2256
  419loPI   C2A 6696  18.168   7.130   8.756 -0.0491 -0.2359 -0.2942
  419loPI   C3A 6697  18.120   7.199   8.317  0.1579 -0.0793  0.0403
  419loPI   C4A 6698  18.200   7.172   7.812  0.0043 -0.0092 -0.0840
  419loPI   C5A 6699  18.433   7.253   7.370 -0.1180 -0.4222 -0.0602
  419loPI   C6A 6700  18.558   7.171   6.907  0.1320 -0.1367  0.1700
  419loPI   C1B 6701  18.896   7.136   8.989  0.2788 -0.3648  0.0231
  419loPI   C2B 6702  19.068   7.219   8.635 -0.1171 -0.0147 -0.0416
  419loPI   C3B 6703  19.132   7.520   8.189  0.2337  0.0631 -0.0785
  419loPI   C4B 6704  18.956   7.861   7.889 -0.1339 -0.1099 -0.1587
  420loPI    C1 6705  15.767   4.891  10.682 -0.2202  0.0714 -0.2277
  420loPI    C2 6706  15.636   4.727  11.022 -0.1326 -0.0714 -0.2617
  420loPI    C3 6707  15.425   5.017  10.846 -0.0450  0.1902  0.0537
  420loPI   PO4 6708  15.813   4.605  10.441 -0.0901 -0.1785  0.0525
  420loPI   GL1 6709  15.659   4.397  10.156  0.0576  0.0545  0.1373
  420loPI   GL2 6710  15.944   4.291   9.904  0.1665 -0.1922  0.0800
  420loPI   C1A 6711  15.422   4.300   9.692  0.0603  0.2583 -0.2215
  420loPI   C2A 6712  15.283   4.163   9.220  0.0729 -0.2822 -0.1921
  420loPI   C3A 6713  15.264   4.197   8.905 -0.0902  0.0166  0.3212
  420loPI   C4A 6714  15.289   4.267   8.582  0.0568  0.0686 -0.0202
  420loPI   C5A 6715  15.204   4.047   8.211 -0.1273  0.2885 -0.0152
  420loPI   C6A 6716  14.757   4.142   8.091 -0.0528  0.0003 -0.0395
  420loPI   C1B 6717  15.826   4.130   9.460 -0.3109 -0.2082  0.3093
  420loPI   C2B 6718  15.762   4.007   9.034  0.1305  0.0879  0.3329
  420loPI   C3B 6719  15.703   4.073   8.607 -0.2247  0.2043 -0.0367
  420loPI   C4B 6720  15.770   3.867   8.246  0.1630 -0.2091 -0.2376
  421loPI    C1 6721  12.309   5.368  10.724 -0.1440  0.0740 -0.0508
  421loPI    C2 6722  12.093   5.092  10.917 -0.0264  0.1996  0.2672
  421loPI    C3 6723  12.388   5.283  11.107  0.2379  0.1705 -0.1049
  421loPI   PO4 6724  12.260   5.251  10.428 -0.1360 -0.2181  0.1959
  421loPI   GL1 6725  12.270   5.416   9.926  0.4114  0.0284  0.0992
  421loPI   GL2 6726  12.096   5.161   9.758  0.0016  0.0015  0.0706
  421loPI   C1A 6727  12.039   5.617   9.578 -0.0238  0.2908  0.0332
  421loPI   C2A 6728  12.165   5.680   9.215  0.4408  0.0239 -0.0729
  421loPI   C3A 6729  12.274   5.524   8.942  0.2066  0.2900 -0.1195
  421loPI   C4A 6730  12.242   5.442   8.502 -0.1023  0.2850 -0.0979
  421loPI   C5A 6731  12.164   5.179   8.108 -0.0414  0.0631  0.3217
  421loPI   C6A 6732  11.938   5.152   7.584 -0.0336 -0.1541  0.0005
  421loPI   C1B 6733  12.139   5.147   9.291 -0.0474 -0.0666  0.2546
  421loPI   C2B 6734  12.060   5.077   8.879 -0.0648  0.1643 -0.1761
  421loPI   C3B 6735  12.280   4.785   8.532 -0.0087  0.1439  0.1468
  421loPI   C4B 6736  12.487   4.622   8.270  0.2251  0.1498 -0.1823
  422loPI    C1 6737   4.091  13.879  10.028 -0.0625 -0.0037 -0.0249
  422loPI    C2 6738   3.708  13.773  10.075 -0.1103  0.1814  0.0133
  422loPI    C3 6739   3.984  13.647  10.336 -0.1431  0.0423 -0.0181
  422loPI   PO4 6740   4.158  13.773   9.769  0.1704 -0.2477  0.3317
  422loPI   GL1 6741   3.859  13.751   9.412  0.1252 -0.0896  0.3781
  422loPI   GL2 6742   3.636  13.986   9.462  0.3507 -0.2244 -0.1101
  422loPI   C1A 6743   3.584  13.825   9.018 -0.1588  0.1371 -0.2208
  422loPI   C2A 6744   3.476  13.777   8.534 -0.1034 -0.3801  0.0361
  422loPI   C3A 6745   3.605  13.645   8.057 -0.2623 -0.1316 -0.0657
  422loPI   C4A 6746   3.651  13.782   7.610  0.0539 -0.1527  0.0404
  422loPI   C5A 6747   3.484  14.022   7.147 -0.2115 -0.1452 -0.4356
  422loPI   C6A 6748   3.282  13.992   6.782 -0.0330 -0.0141 -0.0573
  422loPI   C1B 6749   3.734  14.277   9.131  0.1499  0.1850 -0.1402
  422loPI   C2B 6750   3.668  14.252   8.705 -0.2683 -0.1437 -0.2153
  422loPI   C3B 6751   3.545  14.284   8.324 -0.0240  0.2443 -0.2884
  422loPI   C4B 6752   3.314  14.059   7.975  0.0493 -0.0046  0.2267
  423loPI    C1 6753  14.271  18.060  10.858 -0.2315 -0.0204 -0.0819
  423loPI    C2 6754  14.462  18.086  11.208 -0.1645  0.0320 -0.1221
  423loPI    C3 6755  14.114  17.890  11.184 -0.1188 -0.0591 -0.0476
  423loPI   PO4 6756  14.378  17.930  10.638  0.1063  0.0598  0.1070
  423loPI   GL1 6757  14.685  17.943  10.331  0.0851  0.1049  0.1602
  423loPI   GL2 6758  15.029  17.822  10.388 -0.0194  0.1991 -0.2470
  423loPI   C1A 6759  14.677  18.022   9.918  0.2294 -0.2218  0.2939
  423loPI   C2A 6760  14.855  18.317   9.621  0.0453 -0.1806 -0.1474
  423loPI   C3A 6761  14.899  18.461   9.173  0.1507  0.0762 -0.2302
  423loPI   C4A 6762  14.875  18.422   8.784  0.2097  0.2548 -0.1930
  423loPI   C5A 6763  14.982  18.386   8.414 -0.2152  0.0951 -0.2732
  423loPI   C6A 6764  15.470  18.366   8.207  0.1654 -0.2998  0.1601
  423loPI   C1B 6765  15.140  17.964   9.899 -0.1592 -0.2045 -0.0760
  423loPI   C2B 6766  15.205  17.988   9.416  0.2332 -0.0956 -0.0497
  423loPI   C3B 6767  15.304  18.173   9.020 -0.0395 -0.1862  0.1765
  423loPI   C4B 6768  15.481  18.194   8.683 -0.1984  0.3304 -0.1876
  424loPI    C1 6769   5.996   8.928  10.434  0.2639  0.1094 -0.0676
  424loPI    C2 6770   6.274   9.215  10.445  0.2025  0.1609  0.2202
  424loPI    C3 6771   5.914   9.280  10.605  0.0664  0.0484 -0.0342
  424loPI   PO4 6772   6.087   8.775  10.185  0.1550 -0.2736  0.1132
  424loPI   GL1 6773   5.995   8.865   9.694  0.0482 -0.1541  0.0501
  424loPI   GL2 6774   5.767   9.099   9.625  0.2676 -0.0486 -0.1004
  424loPI   C1A 6775   5.910   8.571   9.368 -0.3085  0.0642 -0.0291
  424loPI   C2A 6776   5.969   8.632   8.946  0.1136 -0.2255 -0.4598
  424loPI   C3A 6777   6.036   8.388   8.548  0.2270  0.0383  0.4650
  424loPI   C4A 6778   5.868   8.425   8.159 -0.0531  0.0508  0.1201
  424loPI   C5A 6779   5.470   8.501   7.963 -0.2117  0.4725 -0.0301
  424loPI   C6A 6780   5.041   8.488   7.859  0.1017  0.0547 -0.0493
  424loPI   C1B 6781   5.730   9.065   9.269 -0.0924 -0.2071  0.0539
  424loPI   C2B 6782   5.577   8.971   8.762  0.0110  0.0245  0.0330
  424loPI   C3B 6783   5.498   8.858   8.364 -0.0946 -0.1031 -0.2233
  424loPI   C4B 6784   5.368   9.107   7.991  0.2106 -0.2187 -0.2093
  425loPI    C1 6785  12.193  10.282   9.907  0.0126 -0.0356  0.0450
  425loPI    C2 6786  12.363  10.644   9.906  0.1285 -0.0893 -0.0848
  425loPI    C3 6787  12.445  10.386  10.200  0.0819 -0.0278 -0.0172
  425loPI   PO4 6788  12.237  10.244   9.615  0.0580 -0.1204 -0.3926
  425loPI   GL1 6789  12.570  10.259   9.374 -0.3311  0.2328 -0.1070
  425loPI   GL2 6790  12.858  10.157   9.327  0.2806  0.2270  0.0561
  425loPI   C1A 6791  12.436  10.138   8.960  0.0685  0.0903 -0.1626
  425loPI   C2A 6792  12.438  10.230   8.499 -0.0734 -0.1075 -0.0067
  425loPI   C3A 6793  12.379  10.300   8.030  0.1671  0.0584  0.1407
  425loPI   C4A 6794  12.117  10.363   7.789 -0.2108 -0.1246  0.0852
  425loPI   C5A 6795  12.094  10.452   7.471  0.0762 -0.2796 -0.0167
  425loPI   C6A 6796  11.812  10.476   7.083  0.0068  0.0267 -0.3529
  425loPI   C1B 6797  12.844   9.946   8.846 -0.1352  0.0733 -0.0771
  425loPI   C2B 6798  12.911   9.969   8.401  0.0605 -0.1556  0.0491
  425loPI   C3B 6799  12.789   9.987   7.985  0.1446 -0.2180  0.1486
  425loPI   C4B 6800  12.523   9.838   7.674 -0.1032  0.0299  0.0131
  426loPI    C1 6801  11.056  14.511  10.252 -0.0411 -0.1566 -0.1202
  426loPI    C2 6802  10.823  14.314   9.994 -0.2489 -0.1020  0.0231
  426loPI    C3 6803  10.660  14.507  10.304 -0.0322  0.1396 -0.0095
  426loPI   PO4 6804  11.219  14.632  10.053 -0.3126 -0.1949 -0.3270
  426loPI   GL1 6805  11.111  14.920   9.600  0.0086 -0.0784  0.1758
  426loPI   GL2 6806  11.468  15.009   9.598  0.0775 -0.0768  0.1940
  426loPI   C1A 6807  11.075  14.737   9.179  0.1100  0.1478  0.2602
  426loPI   C2A 6808  11.095  14.740   8.714 -0.2290  0.3978  0.0755
  426loPI   C3A 6809  11.235  14.967   8.370  0.2951  0.0473  0.2486
  426loPI   C4A 6810  11.691  15.097   8.144 -0.0483  0.2225 -0.0756
  426loPI   C5A 6811  11.895  15.353   7.844  0.1887  0.2534 -0.2296
  426loPI   C6A 6812  12.074  15.719   7.722  0.4563  0.1267  0.1489
  426loPI   C1B 6813  11.482  15.113   9.168 -0.1106 -0.1415 -0.0826
  426loPI   C2B 6814  11.654  15.162   8.794  0.0631  0.3036  0.0644
  426loPI   C3B 6815  11.795  15.327   8.551  0.3276  0.0493 -0.0613
  426loPI   C4B 6816  11.953  15.714   8.208  0.0061  0.1219 -0.0631
  427loPI    C1 6817  18.155   0.942  10.536 -0.1619 -0.0816 -0.0183
  427loPI    C2 6818  18.343   1.160  10.258 -0.2271  0.0026  0.0030
  427loPI    C3 6819  18.517   1.096  10.613 -0.1763 -0.0415 -0.0298
  427loPI   PO4 6820  17.931   1.025  10.572 -0.2356  0.0072 -0.0572
  427loPI   GL1 6821  17.848   1.268  10.253  0.0717 -0.0046  0.1567
  427loPI   GL2 6822  18.023   1.518  10.045 -0.1433 -0.0829  0.0033
  427loPI   C1A 6823  18.108   1.114   9.772  0.1247  0.2542  0.1202
  427loPI   C2A 6824  18.138   1.127   9.406 -0.3188  0.1073  0.2561
  427loPI   C3A 6825  17.971   1.211   8.952  0.2201 -0.1313 -0.2308
  427loPI   C4A 6826  18.176   1.198   8.527 -0.6352  0.1606  0.2014
  427loPI   C5A 6827  18.301   0.992   8.222 -0.0974 -0.1585 -0.0134
  427loPI   C6A 6828  18.284   0.813   7.800  0.3783 -0.0820  0.1686
  427loPI   C1B 6829  17.940   1.579   9.578  0.0048  0.3271 -0.1662
  427loPI   C2B 6830  17.760   1.763   9.251 -0.0929 -0.3184  0.1360
  427loPI   C3B 6831  17.676   1.644   8.828  0.1185 -0.1617 -0.0562
  427loPI   C4B 6832  17.803   1.578   8.493 -0.0618  0.0559  0.2898
  428loPI    C1 6833   2.465   6.217  10.552 -0.1417 -0.2000 -0.2187
  428loPI    C2 6834   2.118   6.399  10.473 -0.0084  0.0894 -0.1492
  428loPI    C3 6835   2.455   6.613  10.501  0.1358 -0.1567  0.0336
  428loPI   PO4 6836   2.449   5.943  10.418 -0.3612 -0.1052 -0.2112
  428loPI   GL1 6837   2.273   5.750  10.073 -0.2471 -0.1242 -0.0026
  428loPI   GL2 6838   2.383   5.454  10.121 -0.1508 -0.0221  0.0293
  428loPI   C1A 6839   2.128   5.880   9.679  0.1092  0.5130 -0.2596
  428loPI   C2A 6840   2.130   5.953   9.195  0.0014  0.1404 -0.2406
  428loPI   C3A 6841   2.141   5.769   8.754  0.3165  0.0001  0.0892
  428loPI   C4A 6842   2.276   5.580   8.350  0.1656 -0.0047 -0.0358
  428loPI   C5A 6843   2.441   5.151   8.351  0.2012  0.2089  0.0944
  428loPI   C6A 6844   2.536   4.670   8.270 -0.3159  0.1466  0.2124
  428loPI   C1B 6845   2.551   5.549   9.660  0.1141 -0.1825  0.1537
  428loPI   C2B 6846   2.431   5.481   9.207  0.0261  0.1240 -0.1747
  428loPI   C3B 6847   2.452   5.336   8.855  0.2909  0.0649  0.0975
  428loPI   C4B 6848   2.680   5.485   8.590  0.1121  0.4416 -0.1880
  429loPI    C1 6849   0.482   2.420  10.440  0.0939  0.0583  0.3636
  429loPI    C2 6850   0.513   2.313  10.824  0.3525 -0.0410  0.3174
  429loPI    C3 6851   0.836   2.443  10.626  0.2514 -0.1256  0.0943
  429loPI   PO4 6852   0.256   2.645  10.435  0.0327 -0.3073  0.1372
  429loPI   GL1 6853  -0.144   2.647  10.227  0.0734 -0.0415  0.1618
  429loPI   GL2 6854  -0.134   2.336  10.157  0.1266  0.2713  0.0584
  429loPI   C1A 6855  -0.116   2.879   9.781 -0.1006 -0.0785 -0.1012
  429loPI   C2A 6856   0.100   3.015   9.390  0.0985 -0.2273 -0.1222
  429loPI   C3A 6857   0.119   3.316   9.073  0.2664  0.1937 -0.2645
  429loPI   C4A 6858   0.349   3.096   8.857 -0.0217  0.0842  0.1374
  429loPI   C5A 6859   0.529   2.766   8.571 -0.3449  0.2538  0.4201
  429loPI   C6A 6860   0.637   2.239   8.549 -0.2028  0.0121  0.3046
  429loPI   C1B 6861   0.045   2.415   9.625  0.1777  0.0862  0.3151
  429loPI   C2B 6862   0.054   2.277   9.200  0.1339 -0.1163  0.0299
  429loPI   C3B 6863   0.176   2.198   8.799  0.0078 -0.2085  0.0417
  429loPI   C4B 6864   0.168   2.395   8.390 -0.0808  0.0686  0.3856
  430loPI    C1 6865   0.119  14.442  10.007 -0.2914  0.0117 -0.0532
  430loPI    C2 6866  -0.163  14.432  10.290 -0.2660 -0.1112 -0.0316
  430loPI    C3 6867   0.067  14.112  10.226  0.0921  0.0979  0.1776
  430loPI   PO4 6868   0.107  14.521   9.713  0.3359  0.3636  0.2342
  430loPI   GL1 6869   0.433  14.506   9.322  0.0743  0.1912 -0.2246
  430loPI   GL2 6870   0.314  14.722   9.198 -0.1273 -0.0297  0.0536
  430loPI   C1A 6871   0.224  14.222   9.062 -0.0335  0.0805  0.0352
  430loPI   C2A 6872   0.139  14.040   8.738 -0.2166  0.0643 -0.0040
  430loPI   C3A 6873   0.036  14.013   8.410  0.1976 -0.2450  0.3604
  430loPI   C4A 6874  -0.066  13.700   8.063  0.0207 -0.0384 -0.2126
  430loPI   C5A 6875   0.107  13.604   7.629  0.3831 -0.0061  0.3447
  430loPI   C6A 6876   0.321  13.204   7.489 -0.3228 -0.3044  0.0385
  430loPI   C1B 6877   0.360  14.658   8.854  0.1250 -0.1302 -0.2446
  430loPI   C2B 6878   0.246  14.779   8.437  0.2112 -0.1140 -0.2830
  430loPI   C3B 6879   0.157  14.489   8.085  0.3796  0.1099  0.4799
  430loPI   C4B 6880   0.065  14.676   7.680  0.1762 -0.2285  0.1818
  431loPI    C1 6881   8.586   9.717  10.323 -0.1356  0.0193  0.1889
  431loPI    C2 6882   8.503   9.326  10.322 -0.3629  0.0632 -0.1759
  431loPI    C3 6883   8.532   9.524  10.669  0.2541 -0.3732  0.0409
  431loPI   PO4 6884   8.737   9.731  10.160  0.0045  0.3538 -0.1157
  431loPI   GL1 6885   8.616   9.592   9.755 -0.0222  0.2181 -0.0235
  431loPI   GL2 6886   8.822   9.336   9.738  0.2431  0.0393 -0.0739
  431loPI   C1A 6887   8.542   9.522   9.337  0.0293 -0.2250 -0.4041
  431loPI   C2A 6888   8.163   9.311   9.086  0.1655 -0.2577 -0.0088
  431loPI   C3A 6889   8.176   9.066   8.675 -0.1670  0.1439 -0.0225
  431loPI   C4A 6890   8.203   9.224   8.258 -0.1922  0.0693 -0.5819
  431loPI   C5A 6891   8.205   9.368   7.880  0.1887 -0.0542  0.2881
  431loPI   C6A 6892   8.376   9.565   7.509 -0.1779  0.1425  0.2353
  431loPI   C1B 6893   8.499   9.009   9.471  0.1431 -0.2688  0.2370
  431loPI   C2B 6894   8.498   8.861   9.065  0.1118 -0.2583 -0.1033
  431loPI   C3B 6895   8.539   8.675   8.699 -0.1816 -0.2227  0.0041
  431loPI   C4B 6896   8.373   8.751   8.254 -0.2422  0.0632  0.0091
  432loPI    C1 6897   1.721  16.135  10.166 -0.1251 -0.0268 -0.0561
  432loPI    C2 6898   1.709  16.510  10.304 -0.2110 -0.0547  0.0133
  432loPI    C3 6899   2.014  16.270  10.403  0.0112  0.0950 -0.2898
  432loPI   PO4 6900   1.708  16.199   9.934  0.2826 -0.0687  0.0182
  432loPI   GL1 6901   1.410  16.092   9.716  0.1671 -0.3312  0.0390
  432loPI   GL2 6902   1.558  15.926   9.508 -0.0957  0.1978  0.1068
  432loPI   C1A 6903   1.319  16.297   9.263 -0.2268  0.0620  0.0789
  432loPI   C2A 6904   1.235  16.637   8.924  0.2667  0.0937 -0.0491
  432loPI   C3A 6905   1.116  16.428   8.472  0.0708 -0.2175 -0.2367
  432loPI   C4A 6906   1.156  16.765   8.175 -0.0265 -0.1895 -0.1889
  432loPI   C5A 6907   0.866  17.013   7.975 -0.0887 -0.2895  0.3101
  432loPI   C6A 6908   0.578  17.076   7.594  0.0452 -0.3097  0.1771
  432loPI   C1B 6909   1.704  15.938   9.002 -0.3055 -0.2592  0.1264
  432loPI   C2B 6910   1.860  16.001   8.635 -0.3381 -0.0077  0.0331
  432loPI   C3B 6911   1.902  16.181   8.137  0.0272  0.0437  0.1474
  432loPI   C4B 6912   2.050  16.484   7.829 -0.0711  0.2755 -0.1311
  433loPI    C1 6913  17.454   2.998  10.650 -0.2544  0.0028 -0.0768
  433loPI    C2 6914  17.664   3.320  10.764  0.1589 -0.3007  0.0448
  433loPI    C3 6915  17.363   3.187  10.991 -0.2157  0.1697 -0.1576
  433loPI   PO4 6916  17.696   2.845  10.556  0.2080 -0.1576  0.0713
  433loPI   GL1 6917  17.957   2.639  10.244  0.0915  0.0341 -0.3051
  433loPI   GL2 6918  17.661   2.627  10.046  0.0277  0.0315  0.1705
  433loPI   C1A 6919  18.165   2.506   9.890 -0.0288 -0.0841  0.1024
  433loPI   C2A 6920  18.253   2.477   9.500  0.1183 -0.0428  0.2516
  433loPI   C3A 6921  18.347   2.591   9.056  0.0368  0.1555 -0.0226
  433loPI   C4A 6922  18.259   2.580   8.580 -0.2299  0.1477  0.2432
  433loPI   C5A 6923  18.404   2.630   8.228  0.0143 -0.4134 -0.0406
  433loPI   C6A 6924  18.774   2.708   7.931 -0.0233 -0.2632 -0.0291
  433loPI   C1B 6925  17.701   2.594   9.632  0.1297 -0.0684 -0.2095
  433loPI   C2B 6926  17.805   2.823   9.287  0.1064  0.2795  0.3302
  433loPI   C3B 6927  17.902   2.889   8.868  0.0841 -0.0800  0.0345
  433loPI   C4B 6928  17.995   2.965   8.571 -0.3412 -0.0728  0.0064
  434loPI    C1 6929  18.063   5.628  10.117  0.2490 -0.0216 -0.0786
  434loPI    C2 6930  18.327   5.895  10.254 -0.0029  0.1217  0.1361
  434loPI    C3 6931  18.174   5.619  10.501 -0.0271  0.0162  0.0043
  434loPI   PO4 6932  17.916   5.820   9.943  0.0926 -0.2339  0.1926
  434loPI   GL1 6933  17.958   5.647   9.510 -0.1147 -0.0360  0.0146
  434loPI   GL2 6934  17.778   5.474   9.430  0.1550  0.2457  0.0387
  434loPI   C1A 6935  18.337   5.716   9.163  0.2943  0.0698 -0.1776
  434loPI   C2A 6936  18.368   5.599   8.694 -0.0801  0.1605 -0.0686
  434loPI   C3A 6937  18.292   5.774   8.307 -0.0991 -0.2024  0.0922
  434loPI   C4A 6938  18.021   5.861   8.061 -0.0471  0.1060  0.2174
  434loPI   C5A 6939  17.866   5.733   7.651 -0.5726  0.1292  0.2788
  434loPI   C6A 6940  17.828   5.923   7.236  0.1657 -0.0327  0.1025
  434loPI   C1B 6941  17.811   5.451   9.044 -0.0478 -0.0920  0.2466
  434loPI   C2B 6942  17.831   5.401   8.655 -0.1925  0.0526  0.4007
  434loPI   C3B 6943  17.688   5.340   8.312  0.3250  0.1878  0.0077
  434loPI   C4B 6944  17.586   5.306   7.834 -0.1012  0.1353 -0.0717
  435loPI    C1 6945   7.217  17.195  10.232  0.3542 -0.1290  0.2687
  435loPI    C2 6946   7.274  17.559  10.386 -0.2588  0.0100  0.1904
  435loPI    C3 6947   7.124  17.267  10.614  0.0044 -0.1302  0.1870
  435loPI   PO4 6948   7.078  17.245   9.977 -0.0845 -0.0999  0.2848
  435loPI   GL1 6949   7.032  17.199   9.519  0.0628 -0.2834 -0.2516
  435loPI   GL2 6950   6.919  16.846   9.602 -0.1410 -0.1275 -0.0456
  435loPI   C1A 6951   7.212  17.419   9.317 -0.1259 -0.0836  0.0128
  435loPI   C2A 6952   7.248  17.693   8.957 -0.0143 -0.1477 -0.0796
  435loPI   C3A 6953   7.011  17.849   8.602 -0.1049 -0.1976 -0.0450
  435loPI   C4A 6954   7.032  18.141   8.258  0.5955 -0.3628  0.1639
  435loPI   C5A 6955   6.756  18.162   7.948 -0.0984 -0.0139 -0.0320
  435loPI   C6A 6956   6.663  17.965   7.552  0.2310  0.0524  0.1203
  435loPI   C1B 6957   6.966  16.840   9.183  0.1056 -0.1194 -0.1385
  435loPI   C2B 6958   7.160  16.539   8.926  0.1541 -0.2294  0.2043
  435loPI   C3B 6959   7.146  16.295   8.510 -0.2070  0.0145  0.3103
  435loPI   C4B 6960   7.094  16.361   8.178 -0.2534  0.2243 -0.1584
  436loPI    C1 6961  14.019   1.205  11.000 -0.0035 -0.0036 -0.0544
  436loPI    C2 6962  14.193   1.172  11.359  0.0355  0.0505 -0.0682
  436loPI    C3 6963  13.884   0.937  11.265  0.0754 -0.0182 -0.0285
  436loPI   PO4 6964  14.176   1.211  10.805 -0.3306 -0.2091 -0.0886
  436loPI   GL1 6965  14.081   1.067  10.457  0.4596 -0.0601 -0.3026
  436loPI   GL2 6966  13.817   1.012  10.211  0.0186  0.1798 -0.0823
  436loPI   C1A 6967  14.235   1.390  10.204  0.0892  0.0949  0.1627
  436loPI   C2A 6968  14.071   1.420   9.795 -0.2204  0.2278 -0.1557
  436loPI   C3A 6969  13.882   1.299   9.442  0.0486 -0.2394  0.0724
  436loPI   C4A 6970  13.835   1.439   9.069 -0.0036 -0.2084 -0.1038
  436loPI   C5A 6971  14.084   1.511   8.709 -0.3063 -0.0009 -0.2119
  436loPI   C6A 6972  14.524   1.473   8.493 -0.1513  0.2326 -0.2410
  436loPI   C1B 6973  13.711   0.935   9.757  0.2188  0.2346 -0.1925
  436loPI   C2B 6974  13.694   0.797   9.303  0.2191  0.1960 -0.2804
  436loPI   C3B 6975  13.581   0.892   8.869 -0.0420 -0.0560 -0.2384
  436loPI   C4B 6976  13.755   1.176   8.491  0.1693 -0.0966 -0.0556
  437loPI    C1 6977  14.347   9.275  10.410 -0.0344 -0.3513  0.1263
  437loPI    C2 6978  14.012   9.058  10.433 -0.0607 -0.2922  0.3156
  437loPI    C3 6979  14.066   9.370  10.679  0.0002 -0.1161  0.0820
  437loPI   PO4 6980  14.405   9.316  10.063  0.3508 -0.0048  0.0961
  437loPI   GL1 6981  14.417   9.001   9.637  0.2383 -0.2199 -0.0160
  437loPI   GL2 6982  14.592   9.294   9.571  0.2123 -0.2257  0.3245
  437loPI   C1A 6983  14.469   8.949   9.211 -0.0164 -0.1850  0.1583
  437loPI   C2A 6984  14.686   8.819   8.800 -0.2347 -0.1138 -0.3427
  437loPI   C3A 6985  14.681   9.068   8.371  0.3123 -0.1772  0.0180
  437loPI   C4A 6986  14.396   9.367   8.211 -0.0405 -0.2033 -0.1547
  437loPI   C5A 6987  14.194   9.340   7.772  0.0134 -0.4817 -0.1600
  437loPI   C6A 6988  14.110   9.195   7.404  0.2144 -0.2090  0.1649
  437loPI   C1B 6989  14.301   9.561   9.301 -0.2088 -0.1387  0.0899
  437loPI   C2B 6990  14.193   9.680   8.962  0.2532 -0.0015  0.0998
  437loPI   C3B 6991  14.204   9.738   8.523 -0.1860 -0.1967  0.1289
  437loPI   C4B 6992  14.346  10.018   8.238  0.0606 -0.1541  0.2170
  438loPI    C1 6993   0.950  15.895  10.323  0.1110  0.2079 -0.0838
  438loPI    C2 6994   1.207  16.020  10.602 -0.1221  0.0763  0.1946
  438loPI    C3 6995   0.833  15.921  10.704 -0.1508 -0.1684 -0.1325
  438loPI   PO4 6996   0.931  16.021  10.062  0.0908 -0.2377 -0.0985
  438loPI   GL1 6997   0.846  15.794   9.781  0.2636 -0.1094 -0.1104
  438loPI   GL2 6998   0.600  15.830   9.641 -0.1899 -0.1428  0.1255
  438loPI   C1A 6999   1.012  15.913   9.365 -0.2130 -0.1572  0.1779
  438loPI   C2A 7000   1.086  16.053   8.901  0.2022  0.3112  0.0522
  438loPI   C3A 7001   1.429  16.245   8.775 -0.2076  0.3018  0.2024
  438loPI   C4A 7002   1.752  16.553   8.575  0.0026  0.2431 -0.0793
  438loPI   C5A 7003   1.667  16.826   8.145  0.0795  0.0662 -0.1927
  438loPI   C6A 7004   1.402  16.855   7.782 -0.1737 -0.0402  0.0491
  438loPI   C1B 7005   0.601  15.713   9.186  0.0062 -0.1292 -0.0847
  438loPI   C2B 7006   0.580  15.843   8.885  0.2994 -0.0812  0.2164
  438loPI   C3B 7007   0.230  15.869   8.558 -0.1160  0.2550  0.1054
  438loPI   C4B 7008  -0.155  15.766   8.303  0.1578 -0.1492  0.2523
  439loPI    C1 7009   9.876  14.868   9.870  0.1863  0.0799  0.1010
  439loPI    C2 7010   9.535  14.984  10.044  0.2288  0.0165  0.2271
  439loPI    C3 7011   9.591  14.599   9.950  0.1790  0.0605  0.0117
  439loPI   PO4 7012   9.873  15.012   9.659  0.1889 -0.0351  0.0372
  439loPI   GL1 7013   9.760  14.937   9.226  0.0353 -0.2478  0.0809
  439loPI   GL2 7014   9.480  15.099   9.144 -0.0039 -0.0974  0.0414
  439loPI   C1A 7015  10.000  14.805   8.948 -0.1892  0.0591 -0.0563
  439loPI   C2A 7016  10.135  15.047   8.642 -0.1297 -0.1826  0.0995
  439loPI   C3A 7017  10.269  15.072   8.320  0.2065 -0.3017  0.1133
  439loPI   C4A 7018  10.129  15.132   7.989 -0.3362 -0.0287 -0.0398
  439loPI   C5A 7019  10.145  15.067   7.533 -0.0973 -0.3006  0.1900
  439loPI   C6A 7020   9.934  14.851   7.209  0.2095  0.2596  0.0475
  439loPI   C1B 7021   9.679  15.184   8.804 -0.1138 -0.1133 -0.0422
  439loPI   C2B 7022   9.705  15.150   8.417 -0.0182 -0.3838  0.1700
  439loPI   C3B 7023   9.610  15.269   7.986 -0.2078 -0.0332 -0.2333
  439loPI   C4B 7024   9.348  15.066   7.880  0.0924  0.0504 -0.0313
  440loPI    C1 7025   9.667   3.511  10.940  0.4035 -0.1729 -0.3202
  440loPI    C2 7026   9.903   3.833  10.963 -0.1039  0.1853  0.0877
  440loPI    C3 7027   9.956   3.527  11.216  0.0325  0.1862  0.0609
  440loPI   PO4 7028   9.683   3.441  10.579  0.1670 -0.1064 -0.3629
  440loPI   GL1 7029   9.681   3.203  10.174  0.0097 -0.4909 -0.0342
  440loPI   GL2 7030  10.022   3.249  10.281  0.2861 -0.2675 -0.0814
  440loPI   C1A 7031   9.523   3.304   9.848 -0.0481 -0.1246  0.1419
  440loPI   C2A 7032   9.446   3.283   9.451 -0.0779 -0.1379 -0.0201
  440loPI   C3A 7033   9.383   3.077   9.036 -0.1118 -0.0972  0.2377
  440loPI   C4A 7034   9.322   2.957   8.721 -0.2613  0.1688 -0.0488
  440loPI   C5A 7035   9.343   3.362   8.441  0.1362 -0.1209  0.0584
  440loPI   C6A 7036   8.987   3.608   8.328 -0.1877  0.1820  0.2155
  440loPI   C1B 7037  10.119   3.411   9.848  0.0841 -0.0203 -0.0332
  440loPI   C2B 7038  10.244   3.510   9.461  0.2254  0.3220 -0.0409
  440loPI   C3B 7039  10.262   3.553   9.086 -0.1518 -0.0245  0.0651
  440loPI   C4B 7040   9.976   3.771   8.798  0.2474  0.0117  0.1199
  441loPI    C1 7041   7.583   3.387  10.891  0.0483  0.1593  0.1744
  441loPI    C2 7042   7.239   3.590  10.889  0.0054  0.0896 -0.1770
  441loPI    C3 7043   7.327   3.348  11.195 -0.2553  0.1118 -0.0827
  441loPI   PO4 7044   7.556   3.371  10.522  0.1602 -0.0286 -0.0894
  441loPI   GL1 7045   7.434   3.443  10.053 -0.0522 -0.1508 -0.1083
  441loPI   GL2 7046   7.368   3.182  10.021  0.0588 -0.3423  0.0893
  441loPI   C1A 7047   7.565   3.747   9.650 -0.2433  0.2904 -0.0032
  441loPI   C2A 7048   7.752   3.858   9.309 -0.0787  0.1838 -0.0340
  441loPI   C3A 7049   7.958   4.071   9.011 -0.1073  0.1652  0.0480
  441loPI   C4A 7050   8.040   3.991   8.598  0.0970  0.2731  0.0942
  441loPI   C5A 7051   8.296   3.725   8.224  0.0409 -0.1687  0.1819
  441loPI   C6A 7052   8.499   3.678   7.936 -0.1208 -0.5456 -0.0256
  441loPI   C1B 7053   7.283   3.348   9.590  0.2878  0.2425 -0.0060
  441loPI   C2B 7054   7.368   3.428   9.185  0.1376  0.1823  0.3790
  441loPI   C3B 7055   7.535   3.790   8.874  0.2442 -0.2741  0.1580
  441loPI   C4B 7056   7.513   3.987   8.487  0.2090 -0.0584 -0.2049
  442loPI    C1 7057  11.382   4.310  10.931  0.2076  0.2758  0.0180
  442loPI    C2 7058  11.267   4.558  10.639 -0.1207 -0.2068 -0.2775
  442loPI    C3 7059  11.073   4.557  10.989 -0.0771 -0.0066 -0.2520
  442loPI   PO4 7060  11.412   4.077  10.671  0.0838 -0.0825 -0.0355
  442loPI   GL1 7061  11.355   4.084  10.253 -0.1365  0.2667  0.0960
  442loPI   GL2 7062  11.752   4.104  10.249 -0.0863 -0.0515  0.1056
  442loPI   C1A 7063  11.392   4.181   9.854  0.0242 -0.0552 -0.0165
  442loPI   C2A 7064  11.554   4.248   9.388  0.0957 -0.1048 -0.0249
  442loPI   C3A 7065  11.605   4.154   8.958 -0.0371 -0.2968 -0.0719
  442loPI   C4A 7066  11.606   4.241   8.513 -0.0197  0.2455 -0.4366
  442loPI   C5A 7067  11.546   4.475   8.197  0.1407 -0.1825 -0.1230
  442loPI   C6A 7068  11.464   4.821   8.090 -0.0786  0.0547 -0.0617
  442loPI   C1B 7069  11.830   4.304   9.828 -0.1091 -0.4104 -0.3264
  442loPI   C2B 7070  12.048   4.191   9.431 -0.2370  0.2061  0.3715
  442loPI   C3B 7071  12.104   4.376   8.989  0.0327 -0.0094  0.0233
  442loPI   C4B 7072  12.107   4.342   8.574  0.1086 -0.0555  0.1157
  443loPI    C1 7073  12.208  11.089   9.559  0.1611  0.1036 -0.0076
  443loPI    C2 7074  11.870  11.295   9.615  0.1885  0.0902  0.2130
  443loPI    C3 7075  12.195  11.479   9.472  0.1375  0.1416  0.1635
  443loPI   PO4 7076  12.140  10.814   9.467 -0.2340 -0.1260 -0.0513
  443loPI   GL1 7077  12.297  10.707   9.197 -0.1512  0.0176  0.2254
  443loPI   GL2 7078  12.511  10.703   8.929 -0.0220  0.0924  0.1398
  443loPI   C1A 7079  12.046  10.517   8.829 -0.0442  0.0749 -0.1991
  443loPI   C2A 7080  11.874  10.139   8.630  0.0755 -0.0521  0.0430
  443loPI   C3A 7081  11.992  10.007   8.263 -0.0221 -0.2660  0.5516
  443loPI   C4A 7082  12.059   9.881   7.807 -0.2428  0.3382 -0.1353
  443loPI   C5A 7083  11.925   9.948   7.411 -0.1040  0.2548  0.1820
  443loPI   C6A 7084  11.812   9.969   7.018  0.0145 -0.2652 -0.0726
  443loPI   C1B 7085  12.440  10.761   8.403  0.2214  0.0268  0.1198
  443loPI   C2B 7086  12.084  10.873   8.148  0.0800 -0.2851  0.2588
  443loPI   C3B 7087  11.923  10.898   7.719 -0.0717  0.2248 -0.4265
  443loPI   C4B 7088  11.567  10.991   7.466  0.0908 -0.0643  0.0837
  444loPI    C1 7089  12.515  17.306  10.298 -0.0053 -0.0216  0.0511
  444loPI    C2 7090  12.137  17.207  10.214 -0.0634  0.1526  0.1026
  444loPI    C3 7091  12.276  17.164  10.586 -0.0594  0.1729  0.1034
  444loPI   PO4 7092  12.566  17.524  10.150  0.2581 -0.1874  0.3492
  444loPI   GL1 7093  12.400  17.888  10.163  0.0117 -0.1796  0.3027
  444loPI   GL2 7094  11.985  17.728  10.088 -0.0902  0.0507  0.3174
  444loPI   C1A 7095  12.398  18.087   9.787 -0.1494  0.1091  0.1799
  444loPI   C2A 7096  12.179  18.176   9.412  0.4348  0.0593 -0.2299
  444loPI   C3A 7097  11.910  18.116   9.024  0.0086  0.4894 -0.0805
  444loPI   C4A 7098  11.853  17.912   8.614  0.1392  0.2227  0.1046
  444loPI   C5A 7099  11.900  17.776   8.205  0.0189  0.2737  0.2355
  444loPI   C6A 7100  12.093  17.424   8.088  0.0886  0.2245  0.0040
  444loPI   C1B 7101  12.067  17.790   9.683  0.1707 -0.0692 -0.1472
  444loPI   C2B 7102  12.039  17.642   9.295  0.0991 -0.3483  0.1249
  444loPI   C3B 7103  11.963  17.368   8.832 -0.2434 -0.3036 -0.1644
  444loPI   C4B 7104  11.723  17.350   8.424  0.2265 -0.0649 -0.3774
  445loPI    C1 7105  12.848   6.444  10.805  0.1890  0.0071  0.1677
  445loPI    C2 7106  13.180   6.658  10.737  0.2354 -0.1084  0.0263
  445loPI    C3 7107  12.962   6.725  11.066  0.2184  0.1947 -0.0439
  445loPI   PO4 7108  12.851   6.424  10.480 -0.0561  0.1373  0.2561
  445loPI   GL1 7109  12.617   6.267  10.148 -0.0499 -0.1158 -0.0074
  445loPI   GL2 7110  12.447   6.104  10.295  0.0488  0.2365 -0.1780
  445loPI   C1A 7111  12.423   6.493   9.785 -0.0626  0.3659 -0.0477
  445loPI   C2A 7112  12.313   6.647   9.305 -0.1830  0.5215 -0.0008
  445loPI   C3A 7113  12.365   6.558   8.914 -0.1578  0.0037 -0.0854
  445loPI   C4A 7114  12.253   6.454   8.456  0.0694 -0.2248 -0.0643
  445loPI   C5A 7115  11.976   6.219   8.308  0.1542  0.1174  0.2465
  445loPI   C6A 7116  11.853   5.760   8.233  0.1300 -0.2954  0.0286
  445loPI   C1B 7117  12.285   5.991   9.886  0.0154 -0.0005 -0.1194
  445loPI   C2B 7118  12.331   6.156   9.378  0.0510 -0.2122  0.0634
  445loPI   C3B 7119  12.216   6.087   8.948  0.2490  0.1418 -0.0555
  445loPI   C4B 7120  12.057   5.903   8.687 -0.2193 -0.1054  0.1993
  446loPI    C1 7121   4.013   6.555  10.467  0.3424 -0.1656 -0.1887
  446loPI    C2 7122   4.245   6.801  10.681  0.1192 -0.0814 -0.0403
  446loPI    C3 7123   4.138   6.446  10.831  0.1048 -0.0959 -0.0847
  446loPI   PO4 7124   3.829   6.733  10.321  0.1142 -0.0751 -0.1871
  446loPI   GL1 7125   3.596   6.700   9.994 -0.1266  0.0492  0.0881
  446loPI   GL2 7126   3.266   6.818  10.048  0.0302  0.1727  0.0540
  446loPI   C1A 7127   3.424   6.420   9.663 -0.1909 -0.1632 -0.0349
  446loPI   C2A 7128   3.487   6.170   9.390  0.1169 -0.0621 -0.2296
  446loPI   C3A 7129   3.612   6.054   8.916  0.2425 -0.1224 -0.3100
  446loPI   C4A 7130   3.647   5.746   8.569 -0.2583  0.2263 -0.1693
  446loPI   C5A 7131   3.961   5.533   8.236 -0.0532  0.0126 -0.2641
  446loPI   C6A 7132   3.762   5.320   7.926  0.2768 -0.2844  0.0251
  446loPI   C1B 7133   3.314   6.861   9.565 -0.1194 -0.3442 -0.0046
  446loPI   C2B 7134   3.303   6.618   9.194  0.0668 -0.0080 -0.2205
  446loPI   C3B 7135   3.320   6.495   8.767  0.1504  0.1384  0.1873
  446loPI   C4B 7136   3.536   6.444   8.422 -0.1193  0.0987  0.2763
  447loPI    C1 7137   1.186   1.848  10.567  0.0947 -0.2195  0.0115
  447loPI    C2 7138   1.500   1.956  10.791 -0.0034 -0.1172  0.1014
  447loPI    C3 7139   1.247   1.676  10.923 -0.2461  0.1765  0.2708
  447loPI   PO4 7140   1.206   1.814  10.339  0.1789  0.3636  0.0427
  447loPI   GL1 7141   1.405   1.704  10.112 -0.0257  0.1161 -0.0427
  447loPI   GL2 7142   1.506   1.370  10.045  0.1897  0.0578  0.1030
  447loPI   C1A 7143   1.392   1.728   9.615 -0.0574 -0.1014  0.1233
  447loPI   C2A 7144   1.189   1.629   9.278 -0.0927 -0.4303  0.0754
  447loPI   C3A 7145   0.954   1.423   8.907 -0.1788 -0.3331  0.2701
  447loPI   C4A 7146   0.839   1.139   8.550 -0.0160  0.3432 -0.1996
  447loPI   C5A 7147   0.858   0.822   8.320 -0.2997  0.0182  0.1388
  447loPI   C6A 7148   1.039   0.962   7.975 -0.2322  0.2373 -0.1021
  447loPI   C1B 7149   1.513   1.252   9.570 -0.0432  0.0185  0.2604
  447loPI   C2B 7150   1.697   1.261   9.165  0.0284  0.0146  0.0184
  447loPI   C3B 7151   1.981   1.535   8.830  0.0663 -0.3216  0.0696
  447loPI   C4B 7152   2.253   1.432   8.433 -0.1543  0.2153 -0.1391
  448loPI    C1 7153  18.154  11.466  10.398  0.1029  0.0901  0.1469
  448loPI    C2 7154  17.821  11.253  10.457  0.0310  0.2005  0.1430
  448loPI    C3 7155  18.126  11.095  10.252  0.0187  0.0637  0.2290
  448loPI   PO4 7156  18.088  11.719  10.297 -0.1260  0.0112  0.0634
  448loPI   GL1 7157  18.079  11.780   9.741 -0.4120 -0.2158 -0.1956
  448loPI   GL2 7158  18.253  11.474   9.869  0.0348  0.4360 -0.0734
  448loPI   C1A 7159  18.210  11.705   9.298 -0.0556  0.2323 -0.0430
  448loPI   C2A 7160  18.437  11.767   9.044  0.0464  0.1826  0.0052
  448loPI   C3A 7161  18.549  11.567   8.681  0.1120 -0.2110  0.1022
  448loPI   C4A 7162  18.628  11.668   8.298  0.0009  0.0692  0.2507
  448loPI   C5A 7163  18.842  11.915   7.979  0.2432  0.3132  0.0104
  448loPI   C6A 7164  18.852  12.233   7.684 -0.1508 -0.0403  0.1220
  448loPI   C1B 7165  18.567  11.463   9.552 -0.1483  0.1409  0.3834
  448loPI   C2B 7166  18.853  11.426   9.233 -0.1673 -0.0520  0.3825
  448loPI   C3B 7167  18.996  11.668   8.846  0.1616 -0.0765 -0.0328
  448loPI   C4B 7168  19.140  11.869   8.412 -0.0927  0.0300  0.0529
  449loPI    C1 7169   0.657   8.083  10.048  0.0455  0.2307  0.1880
  449loPI    C2 7170   0.341   8.169   9.817  0.1747  0.1745 -0.0128
  449loPI    C3 7171   0.330   8.248  10.209 -0.3497 -0.4406  0.1122
  449loPI   PO4 7172   0.937   8.131   9.840  0.2785 -0.1378 -0.0180
  449loPI   GL1 7173   1.076   8.200   9.505  0.0804 -0.2900  0.2183
  449loPI   GL2 7174   1.156   8.519   9.448 -0.0755  0.1394  0.0576
  449loPI   C1A 7175   1.252   7.942   9.149 -0.2211  0.1254 -0.0476
  449loPI   C2A 7176   1.255   7.853   8.686  0.0092  0.0880  0.3932
  449loPI   C3A 7177   1.283   7.870   8.327  0.1234  0.1269 -0.0882
  449loPI   C4A 7178   1.575   7.714   8.016 -0.0270  0.1612 -0.2360
  449loPI   C5A 7179   1.620   7.301   7.837 -0.0248 -0.0496 -0.1291
  449loPI   C6A 7180   1.417   7.032   7.456  0.0197 -0.3476 -0.2882
  449loPI   C1B 7181   1.240   8.449   9.088 -0.1078 -0.0794 -0.1718
  449loPI   C2B 7182   1.185   8.349   8.696  0.3125 -0.0544  0.0737
  449loPI   C3B 7183   1.170   8.384   8.231 -0.2561 -0.0017  0.0416
  449loPI   C4B 7184   1.159   8.100   7.915  0.0145 -0.0635  0.0071
  450loPI    C1 7185   7.936  12.447   9.801 -0.0447  0.0621  0.0709
  450loPI    C2 7186   7.639  12.283  10.012  0.1074 -0.1331  0.1362
  450loPI    C3 7187   7.745  12.662  10.079 -0.1228 -0.0632  0.1151
  450loPI   PO4 7188   7.950  12.302   9.568 -0.0508  0.1344  0.1432
  450loPI   GL1 7189   7.910  12.361   9.208  0.0832  0.1762  0.0789
  450loPI   GL2 7190   7.911  12.002   9.136  0.0177 -0.1705 -0.1410
  450loPI   C1A 7191   8.041  12.324   8.769  0.1200  0.4323  0.1481
  450loPI   C2A 7192   8.080  12.182   8.272  0.1766 -0.2316  0.1380
  450loPI   C3A 7193   8.076  11.877   7.877  0.0401 -0.0609 -0.3148
  450loPI   C4A 7194   8.057  11.500   7.624 -0.0899  0.1669  0.0175
  450loPI   C5A 7195   7.972  11.138   7.703  0.0284  0.1568 -0.1460
  450loPI   C6A 7196   7.767  10.847   7.970 -0.0382 -0.0628 -0.0333
  450loPI   C1B 7197   7.803  11.847   8.741 -0.0416 -0.1386  0.3652
  450loPI   C2B 7198   8.021  11.660   8.349 -0.0930 -0.3090  0.0308
  450loPI   C3B 7199   7.844  11.436   8.042 -0.2100  0.1371 -0.0634
  450loPI   C4B 7200   7.515  11.340   7.575  0.0518 -0.2209  0.1647
  451loPI    C1 7201   7.192  12.738   9.879 -0.0439  0.0440 -0.0315
  451loPI    C2 7202   6.952  12.490  10.081  0.2266  0.0109  0.2570
  451loPI    C3 7203   7.128  12.796  10.270  0.1265  0.2519 -0.0328
  451loPI   PO4 7204   7.105  12.734   9.713  0.0008  0.1875  0.0973
  451loPI   GL1 7205   7.174  12.834   9.336 -0.2130 -0.0674 -0.2917
  451loPI   GL2 7206   7.100  13.092   9.292  0.0668  0.0578 -0.2192
  451loPI   C1A 7207   7.357  12.752   8.939  0.0699  0.2628  0.0258
  451loPI   C2A 7208   7.277  12.853   8.550 -0.0973  0.1590  0.1334
  451loPI   C3A 7209   7.286  12.731   8.129  0.1201  0.0805  0.1586
  451loPI   C4A 7210   7.487  13.009   7.745  0.0995  0.0475 -0.0204
  451loPI   C5A 7211   7.596  12.910   7.338  0.3793 -0.0365 -0.2446
  451loPI   C6A 7212   7.600  12.799   6.949 -0.0978  0.1573 -0.2544
  451loPI   C1B 7213   7.074  13.222   8.873 -0.0207  0.0806 -0.1967
  451loPI   C2B 7214   7.089  13.279   8.528  0.1464  0.0271  0.3451
  451loPI   C3B 7215   7.144  13.213   8.118 -0.0853 -0.1117 -0.4997
  451loPI   C4B 7216   7.064  13.213   7.671 -0.1004  0.1040  0.2139
  452loPI    C1 7217  13.839  13.901  10.375 -0.1279  0.1017 -0.3013
  452loPI    C2 7218  13.447  13.822  10.390 -0.0798 -0.0878  0.1153
  452loPI    C3 7219  13.657  13.855  10.728  0.2604  0.0465 -0.1034
  452loPI   PO4 7220  13.788  14.085  10.112 -0.1918  0.0693 -0.1675
  452loPI   GL1 7221  13.677  13.919   9.646  0.1281 -0.2400  0.0836
  452loPI   GL2 7222  13.749  14.283   9.608  0.0293  0.2005  0.1876
  452loPI   C1A 7223  13.479  14.026   9.237  0.0318 -0.0716  0.2294
  452loPI   C2A 7224  13.295  14.156   8.877 -0.0611  0.0783 -0.0994
  452loPI   C3A 7225  13.114  14.400   8.567 -0.0732  0.3201  0.2005
  452loPI   C4A 7226  13.128  14.663   8.185 -0.0773 -0.0270  0.0286
  452loPI   C5A 7227  12.903  14.334   7.858 -0.2215 -0.1409  0.1824
  452loPI   C6A 7228  12.706  13.837   7.845 -0.1338 -0.0712 -0.0622
  452loPI   C1B 7229  13.759  14.563   9.283  0.0183  0.2129  0.0375
  452loPI   C2B 7230  13.915  14.600   8.855 -0.0928  0.1037 -0.1327
  452loPI   C3B 7231  13.944  14.723   8.417  0.0499 -0.1029 -0.3094
  452loPI   C4B 7232  13.786  14.833   8.010 -0.2880 -0.2490 -0.1845
  453loPI    C1 7233   9.691   6.249  10.250  0.0527  0.1464  0.0344
  453loPI    C2 7234   9.743   6.507  10.550  0.1428 -0.0885  0.2242
  453loPI    C3 7235  10.044   6.430  10.298  0.0292  0.2036 -0.0067
  453loPI   PO4 7236   9.619   6.040  10.367 -0.2707  0.0820  0.1884
  453loPI   GL1 7237   9.333   5.728  10.101 -0.2522  0.1407  0.1547
  453loPI   GL2 7238   9.409   5.329  10.108  0.2658  0.1299 -0.0629
  453loPI   C1A 7239   9.352   5.728   9.703  0.4337  0.2830 -0.1293
  453loPI   C2A 7240   9.232   5.797   9.325  0.0361  0.0089 -0.0737
  453loPI   C3A 7241   9.162   5.855   8.983 -0.3330  0.1966  0.2122
  453loPI   C4A 7242   9.268   6.195   8.757  0.2951 -0.1860 -0.3711
  453loPI   C5A 7243   9.380   6.310   8.372 -0.1581  0.0041 -0.2220
  453loPI   C6A 7244   9.638   6.663   8.181  0.0167  0.1285 -0.0601
  453loPI   C1B 7245   9.389   5.065   9.627 -0.0056  0.1534 -0.1935
  453loPI   C2B 7246   9.728   4.853   9.437  0.0974 -0.2990 -0.3604
  453loPI   C3B 7247   9.823   4.666   9.131 -0.0943  0.2380 -0.0155
  453loPI   C4B 7248  10.269   4.620   8.862 -0.0515 -0.2510  0.0435
  454loPI    C1 7249   5.513   9.524  10.359 -0.3382  0.1617 -0.2688
  454loPI    C2 7250   5.246   9.752  10.550 -0.2863  0.0586 -0.0707
  454loPI    C3 7251   5.635   9.777  10.643 -0.2513  0.0605 -0.2149
  454loPI   PO4 7252   5.501   9.615  10.048  0.1405 -0.1313  0.0526
  454loPI   GL1 7253   5.603   9.626   9.635 -0.0930 -0.1558 -0.1489
  454loPI   GL2 7254   5.970   9.605   9.571  0.1465  0.1248  0.1943
  454loPI   C1A 7255   5.381   9.455   9.245 -0.0487  0.0148 -0.0761
  454loPI   C2A 7256   5.424   9.479   8.857 -0.0277  0.0733  0.0698
  454loPI   C3A 7257   5.430   9.402   8.377  0.0827 -0.2647 -0.0853
  454loPI   C4A 7258   5.362   9.640   8.002 -0.2734 -0.0379  0.0021
  454loPI   C5A 7259   4.994   9.893   7.764 -0.2424  0.1317  0.0131
  454loPI   C6A 7260   4.656  10.052   7.669 -0.0879  0.1286 -0.1664
  454loPI   C1B 7261   5.794   9.675   9.106 -0.2760  0.2093  0.0205
  454loPI   C2B 7262   5.994   9.749   8.711  0.2007  0.1262  0.2746
  454loPI   C3B 7263   6.153   9.534   8.353 -0.0348 -0.3219 -0.1736
  454loPI   C4B 7264   6.429   9.607   7.987 -0.0504 -0.2002 -0.1396
  455loPI    C1 7265  15.044   8.043  10.138 -0.2606 -0.1311 -0.1026
  455loPI    C2 7266  15.330   7.765  10.118 -0.0998  0.0422 -0.2590
  455loPI    C3 7267  15.052   7.746  10.405  0.0151 -0.1771 -0.1594
  455loPI   PO4 7268  15.097   8.119   9.856  0.0745 -0.3916  0.1280
  455loPI   GL1 7269  15.201   8.240   9.386  0.4783  0.2107  0.0295
  455loPI   GL2 7270  15.436   8.122   9.287  0.0557  0.2609  0.2446
  455loPI   C1A 7271  15.091   7.896   9.036  0.0971  0.2659  0.0272
  455loPI   C2A 7272  14.843   7.801   8.767  0.3222  0.3120 -0.1818
  455loPI   C3A 7273  14.635   7.834   8.318  0.0212  0.0612 -0.2245
  455loPI   C4A 7274  14.645   7.980   7.929 -0.2478  0.0810  0.2607
  455loPI   C5A 7275  14.370   7.970   7.615 -0.1233  0.0033  0.4350
  455loPI   C6A 7276  13.851   7.834   7.504 -0.2339 -0.1478 -0.0381
  455loPI   C1B 7277  15.502   8.109   8.945 -0.1736  0.1500  0.1424
  455loPI   C2B 7278  15.591   7.922   8.472  0.1370  0.3419  0.0595
  455loPI   C3B 7279  15.624   7.622   8.021  0.0283 -0.1592  0.1984
  455loPI   C4B 7280  15.745   7.460   7.590 -0.0487 -0.2512  0.1493
  456loPI    C1 7281  12.988  18.171  10.832 -0.2949  0.0701 -0.1273
  456loPI    C2 7282  12.878  17.820  10.989 -0.0860  0.0875  0.0631
  456loPI    C3 7283  12.879  18.150  11.216 -0.1939  0.1951 -0.0910
  456loPI   PO4 7284  12.934  18.094  10.453  0.3397  0.1844 -0.0624
  456loPI   GL1 7285  12.917  17.865  10.145  0.0784 -0.3078 -0.2881
  456loPI   GL2 7286  13.196  17.997  10.049  0.2945  0.0404 -0.1716
  456loPI   C1A 7287  12.759  17.795   9.673 -0.0024  0.1192 -0.2865
  456loPI   C2A 7288  12.520  17.728   9.281  0.0194  0.0868 -0.0125
  456loPI   C3A 7289  12.311  17.908   8.983 -0.4297  0.3626 -0.1722
  456loPI   C4A 7290  12.281  18.126   8.559 -0.0392 -0.0429  0.0992
  456loPI   C5A 7291  12.016  18.231   8.225  0.1217 -0.0677 -0.0281
  456loPI   C6A 7292  12.022  18.438   7.858  0.2206  0.1491  0.0743
  456loPI   C1B 7293  13.424  17.902   9.645  0.1370  0.0104  0.2378
  456loPI   C2B 7294  13.706  17.616   9.594 -0.0510  0.1576 -0.1454
  456loPI   C3B 7295  13.833  17.430   9.177 -0.2390 -0.0720 -0.2927
  456loPI   C4B 7296  13.938  17.495   8.783 -0.1034  0.2768  0.1725
  457loPI    C1 7297   3.596   6.289  10.901 -0.0070  0.1185  0.3690
  457loPI    C2 7298   3.668   6.682  10.878 -0.1618  0.1352  0.1360
  457loPI    C3 7299   3.296   6.550  10.943 -0.1277  0.0246  0.1096
  457loPI   PO4 7300   3.728   6.177  10.610  0.0867  0.1203 -0.0180
  457loPI   GL1 7301   3.747   6.252  10.206  0.0363 -0.0066  0.2403
  457loPI   GL2 7302   3.462   6.097  10.029  0.1072 -0.0659  0.1265
  457loPI   C1A 7303   3.838   6.206   9.763  0.1961 -0.0655  0.3452
  457loPI   C2A 7304   3.974   6.325   9.209 -0.4737  0.2673  0.0692
  457loPI   C3A 7305   3.910   6.561   8.811  0.1490  0.1517  0.0016
  457loPI   C4A 7306   4.207   6.829   8.575  0.3204 -0.2187  0.0635
  457loPI   C5A 7307   4.313   7.098   8.149  0.0611 -0.0305  0.0475
  457loPI   C6A 7308   4.664   7.258   7.931  0.3399  0.1137  0.0700
  457loPI   C1B 7309   3.145   5.825   9.762 -0.1563 -0.0010 -0.0051
  457loPI   C2B 7310   3.152   5.584   9.406  0.0869 -0.1044 -0.4220
  457loPI   C3B 7311   3.043   5.634   9.029 -0.0254 -0.0474  0.1146
  457loPI   C4B 7312   3.246   5.469   8.694 -0.1649  0.2097 -0.0379
  458loPI    C1 7313   5.044   2.334  10.495 -0.1058 -0.3741 -0.1360
  458loPI    C2 7314   4.951   2.494  10.850  0.0965  0.0687 -0.2759
  458loPI    C3 7315   4.972   2.097  10.809  0.0523  0.0115  0.2012
  458loPI   PO4 7316   4.957   2.531  10.343  0.1085  0.1509 -0.3373
  458loPI   GL1 7317   4.979   2.592   9.979 -0.0229 -0.2089  0.2502
  458loPI   GL2 7318   4.993   2.978  10.044  0.0705 -0.1157 -0.0080
  458loPI   C1A 7319   4.976   2.764   9.532 -0.0325 -0.1443 -0.1750
  458loPI   C2A 7320   4.981   2.957   9.092  0.0145  0.0514 -0.2039
  458loPI   C3A 7321   4.597   3.178   8.920  0.0117 -0.1579 -0.0555
  458loPI   C4A 7322   4.471   3.195   8.439  0.4440 -0.0615 -0.1673
  458loPI   C5A 7323   4.283   2.843   8.129  0.0518 -0.3460 -0.3499
  458loPI   C6A 7324   3.825   2.590   8.187  0.4155 -0.0874 -0.3747
  458loPI   C1B 7325   5.054   3.363   9.768 -0.0363  0.0776  0.2570
  458loPI   C2B 7326   5.042   3.367   9.313  0.1470 -0.0548  0.0135
  458loPI   C3B 7327   4.975   3.426   8.851 -0.0511 -0.3152 -0.0376
  458loPI   C4B 7328   4.985   3.122   8.453 -0.0120 -0.0110 -0.0843
  459loPI    C1 7329  17.737  15.730  10.121  0.0654  0.0732 -0.0951
  459loPI    C2 7330  18.045  15.807  10.364  0.0931 -0.2177 -0.0348
  459loPI    C3 7331  17.676  15.775  10.513  0.0363  0.0926 -0.1018
  459loPI   PO4 7332  17.807  15.562   9.925 -0.4017 -0.2580  0.0105
  459loPI   GL1 7333  17.848  15.649   9.492 -0.3734  0.1501 -0.1561
  459loPI   GL2 7334  17.869  15.323   9.272 -0.1501 -0.1213  0.1482
  459loPI   C1A 7335  17.857  15.694   8.996 -0.0934  0.2154 -0.1976
  459loPI   C2A 7336  17.608  15.825   8.609  0.4151 -0.1278 -0.2573
  459loPI   C3A 7337  17.411  15.863   8.225  0.0731 -0.0652  0.1078
  459loPI   C4A 7338  17.215  15.756   7.816 -0.1210 -0.3483 -0.0873
  459loPI   C5A 7339  17.311  15.786   7.401 -0.4655 -0.1015  0.1884
  459loPI   C6A 7340  17.466  15.979   6.982 -0.3014  0.3516 -0.1190
  459loPI   C1B 7341  18.325  15.370   9.036  0.1592  0.2511  0.2594
  459loPI   C2B 7342  18.508  15.391   8.619 -0.1699  0.1944  0.0194
  459loPI   C3B 7343  18.785  15.310   8.244  0.1118  0.0047 -0.0468
  459loPI   C4B 7344  18.921  14.984   8.013 -0.3102 -0.1808 -0.2732
  460loPI    C1 7345  10.454   0.614  10.646 -0.0712  0.3115 -0.0592
  460loPI    C2 7346  10.553   0.746  11.011 -0.1921  0.1688  0.0267
  460loPI    C3 7347  10.836   0.603  10.766 -0.1594 -0.0772  0.2051
  460loPI   PO4 7348  10.247   0.597  10.562  0.2717 -0.5289 -0.0403
  460loPI   GL1 7349  10.158   0.872  10.184 -0.2493  0.2491  0.0201
  460loPI   GL2 7350   9.866   0.943   9.966 -0.1223 -0.1290 -0.1130
  460loPI   C1A 7351  10.308   1.037   9.762 -0.1561  0.1543  0.0879
  460loPI   C2A 7352  10.445   1.112   9.364  0.2104  0.1251 -0.0915
  460loPI   C3A 7353  10.273   1.112   8.955  0.1592 -0.2811 -0.1819
  460loPI   C4A 7354  10.445   1.485   8.670 -0.1325  0.0837 -0.0732
  460loPI   C5A 7355  10.472   1.584   8.339 -0.2593 -0.2132  0.2962
  460loPI   C6A 7356  10.177   1.474   7.930 -0.0991  0.1377 -0.3731
  460loPI   C1B 7357   9.859   1.215   9.626  0.0959  0.0356 -0.0960
  460loPI   C2B 7358  10.092   1.498   9.482 -0.3186 -0.0580 -0.0963
  460loPI   C3B 7359  10.454   1.570   9.164 -0.2956  0.1916 -0.1521
  460loPI   C4B 7360  10.755   1.826   9.117 -0.0602 -0.3002 -0.0744
  461loPI    C1 7361  13.596   6.454  10.551 -0.1619 -0.1974 -0.3044
  461loPI    C2 7362  13.692   6.813  10.403 -0.3136 -0.0985 -0.1665
  461loPI    C3 7363  13.784   6.721  10.782 -0.1786 -0.2464 -0.2337
  461loPI   PO4 7364  13.383   6.426  10.345  0.0758  0.0422 -0.0544
  461loPI   GL1 7365  13.099   6.398  10.029 -0.1981 -0.0277  0.3711
  461loPI   GL2 7366  12.942   6.749   9.783  0.0787  0.0094 -0.0732
  461loPI   C1A 7367  13.052   6.308   9.619 -0.2650 -0.0247 -0.1661
  461loPI   C2A 7368  12.819   6.244   9.182 -0.0364 -0.0939 -0.1777
  461loPI   C3A 7369  12.819   6.325   8.616  0.3453 -0.3745 -0.3018
  461loPI   C4A 7370  12.743   6.337   8.292 -0.0214 -0.3529  0.1363
  461loPI   C5A 7371  12.620   6.448   7.884  0.2387 -0.0759 -0.1232
  461loPI   C6A 7372  12.643   6.680   7.556 -0.0426 -0.1139 -0.0459
  461loPI   C1B 7373  12.760   6.730   9.430 -0.0668  0.0146  0.0673
  461loPI   C2B 7374  12.792   6.759   9.086  0.1652 -0.0356  0.2079
  461loPI   C3B 7375  12.636   6.786   8.608  0.2344  0.1431  0.1547
  461loPI   C4B 7376  12.385   6.841   8.137  0.1524 -0.2264  0.1442
  462loPI    C1 7377  12.623   8.992   9.956 -0.4196 -0.0233  0.0872
  462loPI    C2 7378  12.482   9.363  10.006 -0.1515  0.0843  0.0630
  462loPI    C3 7379  12.852   9.272  10.127 -0.1867 -0.1553 -0.0045
  462loPI   PO4 7380  12.418   8.813   9.969 -0.1146 -0.0216 -0.2130
  462loPI   GL1 7381  12.291   8.558   9.703  0.1817  0.0972 -0.1188
  462loPI   GL2 7382  12.070   8.316   9.613 -0.0891 -0.2636  0.3002
  462loPI   C1A 7383  12.210   8.673   9.301  0.1773  0.1638 -0.0512
  462loPI   C2A 7384  12.317   8.880   8.882 -0.2795  0.0215 -0.0932
  462loPI   C3A 7385  11.905   8.841   8.782  0.0205  0.2980  0.0208
  462loPI   C4A 7386  11.934   8.748   8.342  0.1021 -0.0726  0.1468
  462loPI   C5A 7387  12.191   8.788   7.918 -0.1591  0.1051  0.0016
  462loPI   C6A 7388  12.370   8.916   7.576  0.0278  0.1046 -0.2656
  462loPI   C1B 7389  12.154   8.147   9.162  0.1202  0.2898  0.1601
  462loPI   C2B 7390  12.255   8.017   8.863  0.1102  0.0790  0.0937
  462loPI   C3B 7391  12.314   8.136   8.481  0.2197 -0.0855 -0.0769
  462loPI   C4B 7392  12.582   8.455   8.163  0.2463  0.1042 -0.2049
  463loPI    C1 7393  15.334   4.758  10.383 -0.1134 -0.0601 -0.2721
  463loPI    C2 7394  15.055   4.473  10.410 -0.0972 -0.0605 -0.1049
  463loPI    C3 7395  15.395   4.441  10.618 -0.1212  0.1094 -0.0375
  463loPI   PO4 7396  15.255   5.058  10.297  0.0795  0.0558 -0.0260
  463loPI   GL1 7397  15.038   4.988   9.890  0.0447  0.1144  0.1229
  463loPI   GL2 7398  15.284   4.694   9.907 -0.0766  0.1334  0.0006
  463loPI   C1A 7399  15.017   5.205   9.554  0.0630 -0.0681  0.0924
  463loPI   C2A 7400  14.905   5.164   9.198 -0.2118  0.0436  0.1123
  463loPI   C3A 7401  14.835   5.070   8.854  0.1111 -0.2334  0.1340
  463loPI   C4A 7402  14.817   4.818   8.601  0.0864 -0.2112 -0.0320
  463loPI   C5A 7403  14.580   4.494   8.423 -0.2847 -0.2145  0.1098
  463loPI   C6A 7404  14.513   4.023   8.520 -0.0926 -0.0212 -0.4285
  463loPI   C1B 7405  15.380   4.900   9.388 -0.1889 -0.1977 -0.0769
  463loPI   C2B 7406  15.377   5.096   8.967 -0.0269 -0.0794 -0.1208
  463loPI   C3B 7407  15.501   5.178   8.610  0.0979 -0.0103  0.1617
  463loPI   C4B 7408  15.306   5.064   8.204  0.2079  0.0274 -0.3180
  464loPI    C1 7409   2.749  16.911  10.058  0.0481  0.1583  0.0647
  464loPI    C2 7410   2.371  16.953   9.936  0.0607 -0.1230 -0.0786
  464loPI    C3 7411   2.475  17.065  10.306 -0.1235  0.1127 -0.0953
  464loPI   PO4 7412   2.798  16.696   9.955  0.1522 -0.0953 -0.0090
  464loPI   GL1 7413   2.811  16.584   9.661 -0.1459  0.1624 -0.0599
  464loPI   GL2 7414   3.130  16.629   9.594 -0.1569  0.3665  0.1069
  464loPI   C1A 7415   2.787  16.737   9.181  0.0253  0.0718  0.2759
  464loPI   C2A 7416   2.765  16.555   8.697 -0.2783 -0.0892  0.0527
  464loPI   C3A 7417   3.019  16.306   8.319  0.3541 -0.1238 -0.1331
  464loPI   C4A 7418   3.304  16.384   7.960  0.2058 -0.1243 -0.0031
  464loPI   C5A 7419   3.193  16.307   7.461 -0.1386  0.2370  0.0584
  464loPI   C6A 7420   2.970  16.623   7.238 -0.1066  0.0523  0.2731
  464loPI   C1B 7421   3.271  16.648   9.174 -0.1536  0.0903 -0.0119
  464loPI   C2B 7422   3.217  16.486   8.831 -0.2000 -0.0861 -0.2731
  464loPI   C3B 7423   3.546  16.280   8.549  0.1171 -0.4003 -0.1638
  464loPI   C4B 7424   3.683  16.078   8.206  0.0598  0.0139  0.0112
  465loPI    C1 7425   8.183  13.752   9.519 -0.1052  0.2568  0.1873
  465loPI    C2 7426   8.010  13.421   9.664  0.1336 -0.0020 -0.1044
  465loPI    C3 7427   8.177  13.685   9.914 -0.0343 -0.1136  0.1296
  465loPI   PO4 7428   8.046  13.848   9.403  0.0572  0.3324  0.3255
  465loPI   GL1 7429   7.876  13.916   9.034 -0.1125  0.2906 -0.1562
  465loPI   GL2 7430   8.116  14.188   8.986 -0.0355  0.1357  0.2647
  465loPI   C1A 7431   7.599  13.873   8.658  0.1542  0.1233  0.0584
  465loPI   C2A 7432   7.347  13.678   8.342  0.2209 -0.2296 -0.0230
  465loPI   C3A 7433   7.078  13.665   7.964  0.1182 -0.1603 -0.3496
  465loPI   C4A 7434   6.997  13.723   7.596 -0.0732 -0.2105 -0.0607
  465loPI   C5A 7435   7.169  14.073   7.252 -0.2167 -0.2307  0.1430
  465loPI   C6A 7436   7.425  14.199   6.882  0.2472  0.0590  0.1867
  465loPI   C1B 7437   8.030  14.008   8.554  0.3356  0.3141  0.1674
  465loPI   C2B 7438   7.839  13.616   8.227 -0.1539 -0.2863 -0.1612
  465loPI   C3B 7439   7.597  13.511   7.932 -0.0709  0.3016 -0.1592
  465loPI   C4B 7440   7.442  13.491   7.554  0.4453 -0.3687  0.0346
  466loPI    C1 7441  12.700  13.720  10.125  0.0751 -0.0410  0.2070
  466loPI    C2 7442  12.560  13.827  10.484 -0.0109 -0.0619  0.1797
  466loPI    C3 7443  12.887  13.599  10.457 -0.0741 -0.1618  0.2485
  466loPI   PO4 7444  12.735  13.868   9.947 -0.1273 -0.1537 -0.2135
  466loPI   GL1 7445  12.625  14.167   9.623 -0.0958 -0.0879 -0.2687
  466loPI   GL2 7446  12.873  14.363   9.700  0.1358 -0.1811 -0.0492
  466loPI   C1A 7447  12.510  14.351   9.332 -0.0214  0.1752 -0.0785
  466loPI   C2A 7448  12.423  14.637   9.078  0.0041 -0.0383 -0.1038
  466loPI   C3A 7449  12.520  14.665   8.651  0.0664  0.1019  0.1921
  466loPI   C4A 7450  12.623  14.881   8.288  0.0151  0.4267  0.0773
  466loPI   C5A 7451  12.857  15.108   8.047 -0.0170  0.0038 -0.0173
  466loPI   C6A 7452  13.320  14.917   7.824 -0.1583  0.1541 -0.0883
  466loPI   C1B 7453  12.816  14.725   9.452 -0.2495  0.1037 -0.2698
  466loPI   C2B 7454  12.914  14.860   9.069  0.1284  0.0222  0.0710
  466loPI   C3B 7455  12.972  14.997   8.660 -0.1923 -0.1134  0.1120
  466loPI   C4B 7456  12.919  15.432   8.497 -0.1856  0.0435  0.3340
  467loPI    C1 7457   2.813   8.372  10.476 -0.1399  0.1159 -0.1866
  467loPI    C2 7458   2.574   8.061  10.401 -0.2325  0.1311  0.0369
  467loPI    C3 7459   2.456   8.348  10.654  0.0423  0.1124  0.1901
  467loPI   PO4 7460   2.940   8.523  10.168  0.3569 -0.0167  0.0628
  467loPI   GL1 7461   3.003   8.438   9.698  0.2755  0.3448  0.0201
  467loPI   GL2 7462   2.977   8.559   9.481 -0.1157  0.3187  0.3578
  467loPI   C1A 7463   3.062   8.057   9.444 -0.0710 -0.1552 -0.2658
  467loPI   C2A 7464   3.002   7.770   9.082 -0.1470 -0.3929  0.1815
  467loPI   C3A 7465   2.866   7.667   8.699 -0.2525 -0.2249 -0.1349
  467loPI   C4A 7466   2.983   7.466   8.340 -0.0626  0.4885  0.0366
  467loPI   C5A 7467   2.949   7.040   8.021 -0.3695  0.4430 -0.0310
  467loPI   C6A 7468   3.009   6.641   7.840 -0.3150 -0.1835  0.1219
  467loPI   C1B 7469   3.249   8.340   9.087  0.1858  0.2985  0.1095
  467loPI   C2B 7470   2.984   8.141   8.769 -0.2857  0.0030  0.1650
  467loPI   C3B 7471   2.592   8.103   8.633 -0.1728  0.1332 -0.0413
  467loPI   C4B 7472   2.150   7.906   8.605  0.1500 -0.0131  0.1137
  468loPI    C1 7473   1.247   7.778  10.069 -0.3031  0.4170 -0.1925
  468loPI    C2 7474   0.885   7.616  10.121  0.0180 -0.2072  0.2368
  468loPI    C3 7475   1.010   7.909  10.363 -0.1977  0.0176  0.0804
  468loPI   PO4 7476   1.284   7.725   9.754  0.2057 -0.1330 -0.2601
  468loPI   GL1 7477   1.441   7.473   9.450  0.3223  0.0452  0.2050
  468loPI   GL2 7478   1.690   7.365   9.635 -0.5040 -0.1613  0.0887
  468loPI   C1A 7479   1.342   7.469   9.084  0.0983  0.2015 -0.1149
  468loPI   C2A 7480   1.392   7.379   8.717  0.2302 -0.0681 -0.2543
  468loPI   C3A 7481   1.396   7.283   8.318 -0.1676  0.0097  0.2941
  468loPI   C4A 7482   1.508   6.860   8.130  0.1280 -0.0938 -0.0347
  468loPI   C5A 7483   1.675   6.773   7.762  0.0388  0.2680 -0.0065
  468loPI   C6A 7484   1.999   7.029   7.600  0.0102 -0.0331 -0.3495
  468loPI   C1B 7485   1.755   7.011   9.354 -0.1688  0.2886 -0.2608
  468loPI   C2B 7486   1.968   7.067   9.020  0.6239 -0.1433  0.1954
  468loPI   C3B 7487   2.159   7.400   8.825  0.0829  0.1787 -0.0432
  468loPI   C4B 7488   2.455   7.752   8.982 -0.2827  0.2651  0.2538
  469loPI    C1 7489   2.839  10.218  10.059  0.1213  0.1093 -0.0951
  469loPI    C2 7490   2.540  10.423  10.229  0.0371 -0.1382  0.0607
  469loPI    C3 7491   2.801  10.223  10.457  0.0638 -0.2802 -0.0921
  469loPI   PO4 7492   2.727  10.093   9.849 -0.0360  0.0010 -0.1437
  469loPI   GL1 7493   2.958   9.937   9.468 -0.1696 -0.1506  0.0680
  469loPI   GL2 7494   3.216  10.127   9.447 -0.0222 -0.1226  0.6319
  469loPI   C1A 7495   3.138   9.867   9.055  0.0645  0.1359 -0.3377
  469loPI   C2A 7496   3.302   9.963   8.580 -0.0476  0.2637  0.1521
  469loPI   C3A 7497   3.411   9.735   8.209 -0.3921  0.1501 -0.2190
  469loPI   C4A 7498   3.643   9.437   7.960 -0.0918 -0.0481 -0.4482
  469loPI   C5A 7499   3.901   9.117   7.908 -0.2449  0.1335  0.2690
  469loPI   C6A 7500   4.184   8.861   7.653 -0.0673 -0.0844  0.0756
  469loPI   C1B 7501   2.969  10.456   9.127  0.2743  0.0904 -0.3778
  469loPI   C2B 7502   2.946  10.526   8.711  0.3306  0.0388  0.1567
  469loPI   C3B 7503   3.000  10.447   8.353 -0.0733 -0.0084 -0.0808
  469loPI   C4B 7504   3.033  10.574   7.899  0.2503 -0.2576  0.1231
  470loPI    C1 7505   8.228   4.475  10.695 -0.4205 -0.2098 -0.1247
  470loPI    C2 7506   8.375   4.347  11.044 -0.0058 -0.0220 -0.2238
  470loPI    C3 7507   8.056   4.167  10.882  0.0581 -0.3843  0.0416
  470loPI   PO4 7508   8.232   4.788  10.688 -0.1456  0.1571  0.0407
  470loPI   GL1 7509   8.321   4.841  10.264  0.1239  0.4361 -0.1788
  470loPI   GL2 7510   8.138   4.620  10.219 -0.0819  0.2256 -0.0444
  470loPI   C1A 7511   8.470   4.847   9.899 -0.0529  0.0773  0.1203
  470loPI   C2A 7512   8.794   4.846   9.528  0.1195 -0.1217 -0.1271
  470loPI   C3A 7513   8.896   4.875   9.127 -0.1213 -0.2167  0.1528
  470loPI   C4A 7514   8.828   5.054   8.832 -0.0689 -0.1885 -0.1394
  470loPI   C5A 7515   8.921   5.154   8.520  0.1442  0.1424 -0.0322
  470loPI   C6A 7516   9.076   5.439   8.165 -0.2038 -0.1304 -0.2440
  470loPI   C1B 7517   8.058   4.643   9.800 -0.2691  0.0552 -0.0994
  470loPI   C2B 7518   8.151   4.935   9.356 -0.0865  0.1668  0.1478
  470loPI   C3B 7519   7.960   5.130   8.960 -0.3436 -0.2779 -0.0970
  470loPI   C4B 7520   8.026   4.876   8.602  0.2000 -0.0182 -0.1511
  471loPI    C1 7521  17.629   7.111  10.214 -0.0628  0.0733 -0.1895
  471loPI    C2 7522  17.240   7.201  10.239 -0.1082 -0.1499 -0.0536
  471loPI    C3 7523  17.387   6.893  10.446  0.1712  0.0232  0.0121
  471loPI   PO4 7524  17.697   7.157   9.945 -0.0860  0.2335  0.1425
  471loPI   GL1 7525  17.761   7.273   9.530 -0.1419  0.2259  0.1265
  471loPI   GL2 7526  17.611   7.604   9.394  0.1959 -0.2386  0.3229
  471loPI   C1A 7527  17.730   7.127   9.083  0.0515  0.0179  0.1110
  471loPI   C2A 7528  17.716   6.962   8.667  0.0559  0.3516  0.0296
  471loPI   C3A 7529  17.738   6.827   8.260 -0.3411 -0.0636  0.0597
  471loPI   C4A 7530  17.834   6.702   7.865  0.0226  0.0345 -0.6613
  471loPI   C5A 7531  17.863   6.481   7.495 -0.3252  0.3678  0.0923
  471loPI   C6A 7532  18.079   6.353   7.160 -0.3816 -0.0564 -0.2606
  471loPI   C1B 7533  17.714   7.992   9.089  0.1545 -0.2063  0.2670
  471loPI   C2B 7534  17.834   8.170   8.752  0.2196 -0.2008  0.1034
  471loPI   C3B 7535  17.942   8.255   8.288  0.0735 -0.0832 -0.0817
  471loPI   C4B 7536  18.027   8.187   7.877 -0.1486 -0.2245 -0.1371
  472loPI    C1 7537   8.887  17.973  10.144 -0.0384 -0.0767 -0.1209
  472loPI    C2 7538   8.975  17.715  10.437 -0.1754 -0.0382 -0.0452
  472loPI    C3 7539   9.157  18.071  10.422 -0.0502 -0.1044 -0.0995
  472loPI   PO4 7540   8.869  17.855   9.962 -0.0941 -0.0440  0.3651
  472loPI   GL1 7541   9.123  17.988   9.581  0.3889  0.0371 -0.3374
  472loPI   GL2 7542   9.097  17.640   9.542  0.0606 -0.5179  0.0346
  472loPI   C1A 7543   9.273  18.199   9.280  0.0284  0.1429  0.0224
  472loPI   C2A 7544   9.307  18.527   8.988 -0.1272 -0.3647 -0.0076
  472loPI   C3A 7545   9.335  18.695   8.573 -0.0403 -0.0878 -0.0586
  472loPI   C4A 7546   9.332  18.835   8.188 -0.3017 -0.0178  0.1315
  472loPI   C5A 7547   9.402  18.745   7.701  0.2370 -0.0145  0.0789
  472loPI   C6A 7548   9.594  18.477   7.436  0.1117  0.2111  0.2406
  472loPI   C1B 7549   9.424  17.748   9.181 -0.0837 -0.0331 -0.0542
  472loPI   C2B 7550   9.566  17.544   8.868  0.0627 -0.3171  0.1017
  472loPI   C3B 7551   9.766  17.351   8.584  0.1565  0.1482  0.2793
  472loPI   C4B 7552   9.884  17.426   8.144  0.0311  0.3138  0.1604
  473loPI    C1 7553   2.757   2.179  10.516  0.1891 -0.2444  0.1175
  473loPI    C2 7554   3.156   2.193  10.515  0.1877 -0.2036 -0.0097
  473loPI    C3 7555   2.955   2.281  10.849  0.2772  0.0215 -0.0134
  473loPI   PO4 7556   2.738   2.282  10.206  0.0735 -0.2964 -0.0111
  473loPI   GL1 7557   2.415   2.144   9.915 -0.1813  0.2244  0.1035
  473loPI   GL2 7558   2.542   1.847   9.981  0.0988  0.3507  0.0513
  473loPI   C1A 7559   2.537   2.224   9.478  0.1747 -0.0889 -0.1937
  473loPI   C2A 7560   2.457   2.277   9.111  0.0729 -0.1499 -0.0794
  473loPI   C3A 7561   2.292   2.259   8.719 -0.0509 -0.0097 -0.1883
  473loPI   C4A 7562   2.195   2.037   8.407  0.0015  0.2847 -0.1605
  473loPI   C5A 7563   1.778   1.677   8.416 -0.0521 -0.0202  0.2431
  473loPI   C6A 7564   1.465   1.543   8.714 -0.0544 -0.0828 -0.0255
  473loPI   C1B 7565   2.285   1.821   9.567 -0.0602  0.0534 -0.0424
  473loPI   C2B 7566   2.373   1.809   9.172 -0.1101  0.2411 -0.0162
  473loPI   C3B 7567   2.588   1.430   8.862 -0.1240 -0.1396  0.0391
  473loPI   C4B 7568   2.783   1.269   8.401 -0.0879  0.5163 -0.0354
  474loPI    C1 7569   2.043   3.261  10.462 -0.1138 -0.0202  0.1232
  474loPI    C2 7570   1.874   3.249  10.824  0.0400  0.1791  0.2035
  474loPI    C3 7571   2.175   3.503  10.752  0.1335  0.0104 -0.0117
  474loPI   PO4 7572   1.969   3.088  10.344 -0.0553  0.1006 -0.0610
  474loPI   GL1 7573   2.092   3.020   9.978 -0.0642  0.1225  0.2824
  474loPI   GL2 7574   2.303   3.262   9.964 -0.2833 -0.1712  0.0858
  474loPI   C1A 7575   1.891   2.955   9.622  0.2898  0.2421  0.1067
  474loPI   C2A 7576   1.812   2.853   9.147 -0.0417 -0.1526 -0.0111
  474loPI   C3A 7577   1.673   2.974   8.712 -0.0427  0.0679  0.0872
  474loPI   C4A 7578   1.476   2.675   8.528 -0.2010  0.1918 -0.0858
  474loPI   C5A 7579   1.129   2.373   8.629 -0.0665 -0.1235  0.0522
  474loPI   C6A 7580   0.960   2.420   8.985  0.1351 -0.2643  0.0748
  474loPI   C1B 7581   2.452   3.269   9.552  0.0133  0.1323  0.3036
  474loPI   C2B 7582   2.297   3.254   9.115  0.1757 -0.0514  0.1091
  474loPI   C3B 7583   2.386   3.115   8.805  0.0301 -0.2013 -0.1169
  474loPI   C4B 7584   2.591   3.118   8.471  0.0675 -0.0288  0.0635
  475loPI    C1 7585  12.285  18.146  10.661  0.1866  0.2689 -0.1219
  475loPI    C2 7586  12.534  17.834  10.682 -0.0142  0.1212  0.1459
  475loPI    C3 7587  12.371  17.981  11.016 -0.4062  0.1159 -0.0386
  475loPI   PO4 7588  12.015  18.097  10.492  0.0623  0.1142  0.1063
  475loPI   GL1 7589  12.047  18.375  10.207 -0.2124 -0.1723  0.3638
  475loPI   GL2 7590  11.882  18.167  10.005 -0.1141  0.1266  0.0140
  475loPI   C1A 7591  12.186  18.568   9.798 -0.3033  0.0838  0.0469
  475loPI   C2A 7592  12.556  18.656   9.546  0.1084  0.1850 -0.1681
  475loPI   C3A 7593  12.594  18.865   9.090 -0.1040  0.3217 -0.4062
  475loPI   C4A 7594  12.702  19.261   8.796 -0.0492  0.1882 -0.0900
  475loPI   C5A 7595  12.910  19.575   8.500 -0.0890 -0.0707  0.1796
  475loPI   C6A 7596  12.802  19.687   8.027  0.1377 -0.2299  0.3831
  475loPI   C1B 7597  11.758  18.370   9.595 -0.2906 -0.1614  0.2287
  475loPI   C2B 7598  11.682  18.516   9.126  0.2228  0.2672  0.2770
  475loPI   C3B 7599  11.545  18.293   8.759 -0.0804 -0.4068  0.2399
  475loPI   C4B 7600  11.555  18.186   8.313  0.0959 -0.0501  0.1013
  476loPI    C1 7601  16.232  15.667  10.298 -0.1379 -0.1238  0.0976
  476loPI    C2 7602  16.047  15.914  10.552  0.0407  0.0410  0.0702
  476loPI    C3 7603  16.259  15.605  10.692  0.1111  0.1120  0.1210
  476loPI   PO4 7604  16.280  15.831  10.082  0.0093  0.2153 -0.0029
  476loPI   GL1 7605  16.486  15.729   9.723  0.0220  0.2925 -0.0186
  476loPI   GL2 7606  16.477  16.130   9.746 -0.1031  0.1552  0.1845
  476loPI   C1A 7607  16.439  15.688   9.379  0.3477 -0.3724 -0.1062
  476loPI   C2A 7608  16.188  15.634   9.053 -0.2703 -0.2671 -0.4831
  476loPI   C3A 7609  16.175  15.799   8.652 -0.2195 -0.0374 -0.4418
  476loPI   C4A 7610  16.055  15.729   8.252 -0.1549 -0.3903  0.0323
  476loPI   C5A 7611  15.921  15.808   7.816 -0.0157 -0.3308 -0.0304
  476loPI   C6A 7612  15.875  15.722   7.378  0.2786  0.2301  0.3425
  476loPI   C1B 7613  16.531  16.319   9.335 -0.0305 -0.0125  0.0428
  476loPI   C2B 7614  16.568  16.097   8.915 -0.1080 -0.1289 -0.2827
  476loPI   C3B 7615  16.525  16.144   8.469  0.0696 -0.2200 -0.2084
  476loPI   C4B 7616  16.507  16.016   8.104  0.0534  0.4354 -0.0097
  477loPI    C1 7617   0.959   4.303  10.565 -0.3386  0.0110  0.1378
  477loPI    C2 7618   1.099   3.930  10.599 -0.0807  0.1047  0.1250
  477loPI    C3 7619   0.995   4.135  10.926 -0.2053  0.0294  0.1335
  477loPI   PO4 7620   0.949   4.341  10.261 -0.1527 -0.0383 -0.2721
  477loPI   GL1 7621   1.287   4.233  10.101 -0.0812  0.1936  0.0420
  477loPI   GL2 7622   1.286   3.899  10.167 -0.1247  0.0145 -0.3548
  477loPI   C1A 7623   1.372   4.078   9.703  0.1974 -0.2769  0.1560
  477loPI   C2A 7624   1.387   4.062   9.349 -0.1227 -0.1975 -0.0495
  477loPI   C3A 7625   1.272   3.971   9.014 -0.2809  0.2008 -0.0830
  477loPI   C4A 7626   1.406   3.763   8.587  0.0108  0.1229 -0.2220
  477loPI   C5A 7627   1.593   3.366   8.375  0.0201  0.1352 -0.0370
  477loPI   C6A 7628   2.034   3.106   8.429  0.2688 -0.1223 -0.0815
  477loPI   C1B 7629   0.984   3.723   9.797  0.0958 -0.2025 -0.4302
  477loPI   C2B 7630   0.996   3.748   9.387  0.1011 -0.0010  0.0936
  477loPI   C3B 7631   0.840   3.493   9.052 -0.3201 -0.0828  0.0330
  477loPI   C4B 7632   0.641   3.420   8.594  0.1793  0.1017 -0.4214
  478loPI    C1 7633  11.181  17.089  10.514 -0.3732 -0.2541 -0.0049
  478loPI    C2 7634  10.819  17.248  10.453 -0.2178  0.1415  0.0780
  478loPI    C3 7635  11.012  17.317  10.796 -0.0205  0.0164 -0.0060
  478loPI   PO4 7636  11.251  17.072  10.193 -0.1289  0.2073  0.1584
  478loPI   GL1 7637  11.439  16.808   9.887 -0.0710  0.2378  0.0725
  478loPI   GL2 7638  11.100  16.791   9.794 -0.0605 -0.0922  0.2164
  478loPI   C1A 7639  11.969  16.954   9.885 -0.0567  0.2170  0.1596
  478loPI   C2A 7640  12.322  17.174   9.723  0.0614 -0.2017  0.3335
  478loPI   C3A 7641  12.296  17.194   9.351  0.2618  0.0309  0.0372
  478loPI   C4A 7642  12.423  17.141   8.867  0.3678 -0.1272  0.1698
  478loPI   C5A 7643  12.548  17.003   8.496 -0.3226 -0.2225  0.0650
  478loPI   C6A 7644  12.515  16.634   8.495 -0.0032 -0.1350 -0.0288
  478loPI   C1B 7645  11.274  16.978   9.397 -0.4864  0.2095  0.0228
  478loPI   C2B 7646  11.091  16.940   8.944 -0.0902  0.2909 -0.1298
  478loPI   C3B 7647  11.454  16.970   8.651 -0.1342 -0.0054  0.0960
  478loPI   C4B 7648  11.649  16.794   8.380  0.3367  0.4256  0.1891
  479loPI    C1 7649   3.919  12.856  10.136  0.0766 -0.1076 -0.2061
  479loPI    C2 7650   4.189  12.718  10.396  0.0261  0.1274 -0.0255
  479loPI    C3 7651   3.803  12.619  10.436  0.0452  0.0101 -0.1245
  479loPI   PO4 7652   3.992  12.792   9.907  0.0270 -0.0422 -0.1216
  479loPI   GL1 7653   3.926  12.902   9.457 -0.1039 -0.0677  0.0852
  479loPI   GL2 7654   4.236  12.782   9.361  0.3246  0.1219  0.1234
  479loPI   C1A 7655   3.982  13.078   9.030 -0.2378  0.0251 -0.1543
  479loPI   C2A 7656   4.082  13.416   9.092  0.1876 -0.2966  0.0442
  479loPI   C3A 7657   4.081  13.650   8.752 -0.1971  0.1713 -0.3151
  479loPI   C4A 7658   4.094  13.503   8.395  0.2261 -0.0201  0.1042
  479loPI   C5A 7659   3.965  13.305   7.947 -0.0638 -0.6358  0.0632
  479loPI   C6A 7660   3.907  13.265   7.594 -0.1825 -0.2107 -0.1350
  479loPI   C1B 7661   4.586  12.901   9.117  0.0693  0.0646 -0.0098
  479loPI   C2B 7662   4.564  12.767   8.698  0.3001 -0.2536  0.0439
  479loPI   C3B 7663   4.673  12.584   8.367  0.1184  0.2989  0.0136
  479loPI   C4B 7664   4.683  12.615   8.037  0.1888  0.0709 -0.0513
  480loPI    C1 7665  10.269  17.212  10.349  0.1285  0.0958  0.1367
  480loPI    C2 7666  10.310  17.388  10.705  0.0525  0.0096  0.1884
  480loPI    C3 7667  10.446  17.016  10.649  0.0547  0.0191  0.1308
  480loPI   PO4 7668  10.356  17.401  10.183 -0.0675 -0.0115  0.1093
  480loPI   GL1 7669  10.231  17.471   9.760  0.0244 -0.0269  0.0529
  480loPI   GL2 7670  10.477  17.802   9.795  0.2384  0.0105 -0.1949
  480loPI   C1A 7671  10.336  17.179   9.431  0.1167  0.0712 -0.2129
  480loPI   C2A 7672  10.360  17.309   9.095  0.1701  0.1296 -0.1330
  480loPI   C3A 7673  10.419  17.521   8.638  0.0517  0.1150  0.0587
  480loPI   C4A 7674  10.463  17.486   8.174 -0.0474  0.1467  0.1522
  480loPI   C5A 7675  10.355  17.191   7.826 -0.0197 -0.0354 -0.0161
  480loPI   C6A 7676  10.193  16.844   7.688 -0.2197 -0.0763 -0.4841
  480loPI   C1B 7677  10.719  17.564   9.545  0.0001 -0.1668  0.2855
  480loPI   C2B 7678  10.799  17.121   9.556 -0.0232  0.1811 -0.1870
  480loPI   C3B 7679  10.867  16.623   9.365 -0.0022  0.1344 -0.0859
  480loPI   C4B 7680  11.074  16.323   9.658  0.0179 -0.0352  0.1178
  481loPI    C1 7681  12.035   3.974  11.046 -0.0702  0.0283  0.0745
  481loPI    C2 7682  11.830   4.294  11.169 -0.2329 -0.0737  0.0718
  481loPI    C3 7683  12.106   4.130  11.407  0.0577  0.2411 -0.0408
  481loPI   PO4 7684  12.174   4.101  10.842  0.1306 -0.1342  0.0613
  481loPI   GL1 7685  12.277   4.027  10.439 -0.0017  0.0898 -0.0599
  481loPI   GL2 7686  12.240   4.400  10.424  0.2277  0.0319 -0.0725
  481loPI   C1A 7687  12.291   4.087  10.018  0.3587  0.1320 -0.2625
  481loPI   C2A 7688  12.483   4.235   9.644 -0.1293  0.2103  0.2894
  481loPI   C3A 7689  12.537   4.149   9.244  0.0976  0.1502  0.2411
  481loPI   C4A 7690  12.545   4.119   8.767 -0.1350  0.0761  0.1795
  481loPI   C5A 7691  12.352   3.928   8.467 -0.0101 -0.4972  0.0312
  481loPI   C6A 7692  12.204   3.551   8.265 -0.3491  0.2322 -0.2981
  481loPI   C1B 7693  12.061   4.708  10.032 -0.0457  0.0480  0.0811
  481loPI   C2B 7694  12.169   4.672   9.603 -0.1315 -0.1964 -0.1705
  481loPI   C3B 7695  12.424   4.675   9.281  0.1953 -0.1988 -0.3981
  481loPI   C4B 7696  12.584   4.570   8.975  0.0815 -0.0222 -0.0438
  482loPI    C1 7697  11.650   6.311  10.948 -0.1809 -0.3792 -0.2386
  482loPI    C2 7698  11.857   6.113  11.227 -0.1372  0.0284  0.0251
  482loPI    C3 7699  11.473   6.021  11.160 -0.0476 -0.3139 -0.0357
  482loPI   PO4 7700  11.827   6.294  10.735  0.0063  0.0035  0.1510
  482loPI   GL1 7701  11.902   6.175  10.339  0.2954 -0.2578  0.0461
  482loPI   GL2 7702  11.936   6.456  10.090 -0.0586  0.1293  0.2085
  482loPI   C1A 7703  11.794   6.037   9.889  0.0059 -0.0192 -0.2308
  482loPI   C2A 7704  11.754   6.009   9.449 -0.2946  0.0668  0.0586
  482loPI   C3A 7705  11.767   5.879   9.100 -0.2596  0.1269  0.2370
  482loPI   C4A 7706  11.499   5.906   8.705 -0.1404 -0.1022 -0.0695
  482loPI   C5A 7707  11.436   6.150   8.351  0.0009  0.1398  0.0474
  482loPI   C6A 7708  11.393   6.452   8.021 -0.4461  0.0041 -0.0277
  482loPI   C1B 7709  11.966   6.416   9.685 -0.0689 -0.2425 -0.0076
  482loPI   C2B 7710  11.884   6.433   9.248 -0.1832 -0.0786 -0.1094
  482loPI   C3B 7711  11.816   6.413   8.826 -0.3738  0.2296  0.0081
  482loPI   C4B 7712  11.623   6.561   8.481 -0.0891 -0.0292  0.0664
  483loPI    C1 7713  10.650   2.557  11.215  0.0879 -0.1361 -0.1339
  483loPI    C2 7714  10.336   2.625  10.977  0.0753 -0.1261 -0.1147
  483loPI    C3 7715  10.468   2.913  11.220  0.0983 -0.1308 -0.1216
  483loPI   PO4 7716  10.857   2.575  11.059  0.0559 -0.0248  0.0785
  483loPI   GL1 7717  10.910   2.698  10.642 -0.0450  0.4049 -0.0362
  483loPI   GL2 7718  10.585   2.850  10.656 -0.2525 -0.1058  0.0343
  483loPI   C1A 7719  11.023   2.709  10.200  0.0566  0.0867  0.0807
  483loPI   C2A 7720  10.854   2.677   9.863 -0.0876  0.2855 -0.2881
  483loPI   C3A 7721  10.780   2.717   9.389  0.0386  0.0797 -0.2076
  483loPI   C4A 7722  10.783   2.920   8.917  0.1638  0.0100 -0.0217
  483loPI   C5A 7723  10.769   2.652   8.560  0.0658 -0.1570 -0.0987
  483loPI   C6A 7724  11.082   2.530   8.394 -0.2984 -0.1007  0.3133
  483loPI   C1B 7725  10.436   2.971  10.087 -0.3185  0.1073 -0.2953
  483loPI   C2B 7726  10.569   3.118   9.680  0.2156  0.2383 -0.0333
  483loPI   C3B 7727  10.448   3.092   9.263 -0.1526 -0.1254 -0.2562
  483loPI   C4B 7728  10.282   3.030   8.780 -0.2191 -0.1119  0.3683
  484loPI    C1 7729   8.984   2.693  10.331 -0.1523 -0.1040  0.1310
  484loPI    C2 7730   8.783   2.558  10.649 -0.1880  0.1621  0.2235
  484loPI    C3 7731   9.069   2.834  10.695 -0.0397  0.0402  0.0500
  484loPI   PO4 7732   9.155   2.555  10.214 -0.0350  0.1073  0.2133
  484loPI   GL1 7733   8.964   2.471   9.821 -0.0096 -0.0817 -0.2717
  484loPI   GL2 7734   8.870   2.788   9.866  0.0406  0.1687  0.0120
  484loPI   C1A 7735   8.893   2.537   9.435 -0.0759  0.0408  0.1738
  484loPI   C2A 7736   9.084   2.571   8.971  0.2529  0.3287  0.2277
  484loPI   C3A 7737   9.319   2.478   8.528  0.2284 -0.1697 -0.0762
  484loPI   C4A 7738   9.303   2.742   8.296  0.1270 -0.0378 -0.0680
  484loPI   C5A 7739   9.086   3.085   8.118 -0.2863 -0.0704 -0.0348
  484loPI   C6A 7740   8.963   3.441   7.823  0.0545 -0.1433 -0.0668
  484loPI   C1B 7741   8.474   2.580   9.709  0.0475 -0.1250 -0.1618
  484loPI   C2B 7742   8.055   2.555   9.558 -0.3260  0.1709  0.0934
  484loPI   C3B 7743   7.839   2.486   9.120 -0.0729  0.1355  0.2919
  484loPI   C4B 7744   7.526   2.638   8.871  0.3523 -0.1832 -0.2617
  485loPI    C1 7745   4.922  10.841   9.812 -0.1018 -0.2172 -0.1697
  485loPI    C2 7746   5.135  10.897  10.146  0.0864 -0.1097 -0.3055
  485loPI    C3 7747   4.756  11.022  10.127  0.1546  0.1148 -0.2191
  485loPI   PO4 7748   5.085  10.966   9.622 -0.3564  0.2579 -0.0871
  485loPI   GL1 7749   5.078  11.055   9.171 -0.3454  0.4379 -0.1734
  485loPI   GL2 7750   5.376  11.056   9.190  0.1363  0.0470  0.1199
  485loPI   C1A 7751   5.012  11.260   8.815  0.1032 -0.2203  0.1889
  485loPI   C2A 7752   4.916  11.396   8.352 -0.0434 -0.1493 -0.0578
  485loPI   C3A 7753   5.070  11.351   7.973 -0.1433 -0.1695 -0.0651
  485loPI   C4A 7754   5.314  11.343   7.711 -0.1554  0.1006 -0.0944
  485loPI   C5A 7755   5.487  11.156   7.254 -0.2401 -0.0817  0.0126
  485loPI   C6A 7756   5.674  10.733   7.043 -0.1589  0.2089 -0.2917
  485loPI   C1B 7757   5.432  10.963   8.850  0.0785  0.0999 -0.0416
  485loPI   C2B 7758   5.329  11.020   8.357 -0.2574 -0.1348 -0.0327
  485loPI   C3B 7759   5.380  10.835   7.947 -0.2190 -0.2118 -0.0941
  485loPI   C4B 7760   5.689  10.657   7.618  0.2579  0.0732 -0.1232
  486loPI    C1 7761   5.811   1.765  10.511 -0.1134 -0.0147  0.3736
  486loPI    C2 7762   6.205   1.809  10.558 -0.0513 -0.0110 -0.1033
  486loPI    C3 7763   5.952   2.017  10.787  0.2224  0.1058  0.0982
  486loPI   PO4 7764   5.752   1.748  10.211 -0.0441  0.2492 -0.0781
  486loPI   GL1 7765   5.663   2.050   9.951 -0.0864  0.2118 -0.0255
  486loPI   GL2 7766   5.321   2.189   9.988  0.3752 -0.0949 -0.1014
  486loPI   C1A 7767   5.829   2.368   9.661 -0.0058  0.2771  0.0375
  486loPI   C2A 7768   5.748   2.327   9.133 -0.2789  0.0890  0.2120
  486loPI   C3A 7769   5.713   2.401   8.745  0.0466 -0.1595 -0.2107
  486loPI   C4A 7770   5.661   2.736   8.395 -0.1979 -0.0379 -0.1888
  486loPI   C5A 7771   5.437   3.043   8.222  0.3031 -0.1149  0.1306
  486loPI   C6A 7772   5.349   3.493   8.268 -0.0683 -0.1468 -0.0395
  486loPI   C1B 7773   5.330   2.117   9.483 -0.2190  0.1556  0.1661
  486loPI   C2B 7774   5.251   2.194   8.930  0.1028  0.0176 -0.0236
  486loPI   C3B 7775   5.297   2.169   8.546 -0.0244 -0.2109  0.2283
  486loPI   C4B 7776   5.600   2.219   8.243 -0.2509  0.3303 -0.0792
  487loPI    C1 7777  11.655   4.721  11.017 -0.0964  0.0378 -0.0004
  487loPI    C2 7778  11.828   4.749  11.377 -0.2705  0.0799  0.0811
  487loPI    C3 7779  11.459   4.599  11.344 -0.2140 -0.0240 -0.0932
  487loPI   PO4 7780  11.604   4.896  10.909  0.0395  0.0841  0.0154
  487loPI   GL1 7781  11.509   4.931  10.447 -0.1427 -0.2591 -0.3070
  487loPI   GL2 7782  11.491   4.646  10.220  0.1352  0.3075  0.0583
  487loPI   C1A 7783  11.298   5.080  10.013 -0.0696 -0.4324 -0.4864
  487loPI   C2A 7784  11.236   5.251   9.679 -0.1779 -0.3220 -0.5354
  487loPI   C3A 7785  11.303   5.075   9.300 -0.0658 -0.0188 -0.1725
  487loPI   C4A 7786  11.416   5.032   8.869 -0.0787  0.3023 -0.2705
  487loPI   C5A 7787  11.234   5.057   8.454  0.0552 -0.0064 -0.4874
  487loPI   C6A 7788  11.107   5.251   8.102  0.0027 -0.0973 -0.0553
  487loPI   C1B 7789  11.513   4.700   9.761  0.3022 -0.0425 -0.0130
  487loPI   C2B 7790  11.747   4.774   9.385 -0.1686  0.0814  0.2060
  487loPI   C3B 7791  11.728   4.668   8.913 -0.1528  0.0942 -0.3984
  487loPI   C4B 7792  11.750   4.858   8.583  0.2679 -0.0227  0.0805
  488loPI    C1 7793   4.343  16.655  10.006  0.2570  0.0600  0.0685
  488loPI    C2 7794   3.968  16.550   9.913  0.3824 -0.2757 -0.0751
  488loPI    C3 7795   4.050  16.926  10.021 -0.0101 -0.2213  0.0471
  488loPI   PO4 7796   4.509  16.560   9.730 -0.1256 -0.2793  0.0041
  488loPI   GL1 7797   4.682  16.427   9.342 -0.0768  0.0193  0.1926
  488loPI   GL2 7798   5.059  16.468   9.354 -0.1462 -0.0592 -0.1860
  488loPI   C1A 7799   4.821  16.100   9.019 -0.1290 -0.1453  0.0291
  488loPI   C2A 7800   4.985  15.878   8.607 -0.0506  0.1430  0.0657
  488loPI   C3A 7801   4.974  15.755   8.159 -0.0433 -0.1054 -0.0672
  488loPI   C4A 7802   4.852  15.524   7.830 -0.0615 -0.0261  0.1373
  488loPI   C5A 7803   4.639  15.200   7.787 -0.0089  0.3140  0.2996
  488loPI   C6A 7804   4.573  14.796   7.901  0.0210 -0.1600 -0.0996
  488loPI   C1B 7805   5.283  16.612   8.937  0.2205 -0.0057 -0.2779
  488loPI   C2B 7806   5.554  16.923   8.841 -0.1191 -0.1542  0.0480
  488loPI   C3B 7807   5.602  17.391   8.708 -0.2303  0.2946  0.1962
  488loPI   C4B 7808   5.347  17.800   8.590 -0.1580 -0.4853 -0.0669
  489loPI    C1 7809  16.610  10.624   9.761  0.0780  0.0436  0.0345
  489loPI    C2 7810  16.331  10.672  10.044 -0.1621 -0.2745 -0.1396
  489loPI    C3 7811  16.646  10.435  10.111  0.0743  0.0839  0.0567
  489loPI   PO4 7812  16.483  10.652   9.583 -0.0551  0.0407  0.1897
  489loPI   GL1 7813  16.660  10.593   9.157 -0.1997  0.1814 -0.0091
  489loPI   GL2 7814  16.488  10.303   9.248 -0.1289 -0.2748  0.3468
  489loPI   C1A 7815  17.073  10.800   8.949 -0.0836 -0.0883 -0.0797
  489loPI   C2A 7816  17.171  10.933   8.562 -0.4493  0.1580  0.1198
  489loPI   C3A 7817  16.935  10.837   8.072 -0.1638  0.1466  0.0491
  489loPI   C4A 7818  16.678  10.685   7.761 -0.4771 -0.0959 -0.6621
  489loPI   C5A 7819  16.498  10.304   7.427 -0.0019 -0.4631  0.0358
  489loPI   C6A 7820  16.527   9.932   7.478 -0.1802  0.4164 -0.0014
  489loPI   C1B 7821  16.734  10.036   8.944 -0.2115 -0.1117 -0.1591
  489loPI   C2B 7822  16.976   9.670   8.670 -0.1020 -0.0336  0.2991
  489loPI   C3B 7823  17.316   9.457   8.500 -0.1718 -0.1315  0.0668
  489loPI   C4B 7824  17.466   9.430   8.138  0.1350 -0.0828 -0.0387
  490loPI    C1 7825   7.980   5.768  10.496  0.0583  0.1884  0.0953
  490loPI    C2 7826   7.755   6.041  10.683 -0.1799  0.1272 -0.0956
  490loPI    C3 7827   7.873   5.712  10.877 -0.1889  0.1969  0.0292
  490loPI   PO4 7828   8.021   5.859  10.218 -0.1718 -0.1762  0.0116
  490loPI   GL1 7829   8.321   5.759   9.860  0.0514 -0.0745  0.0252
  490loPI   GL2 7830   8.076   5.595   9.772  0.3769 -0.1098  0.5394
  490loPI   C1A 7831   8.293   6.178   9.528 -0.0390 -0.2531 -0.0631
  490loPI   C2A 7832   8.379   6.356   9.123 -0.2667 -0.3527 -0.1211
  490loPI   C3A 7833   8.121   6.347   8.763  0.2825 -0.0903 -0.0581
  490loPI   C4A 7834   7.821   6.069   8.704  0.0776 -0.2738  0.2460
  490loPI   C5A 7835   7.433   6.107   8.358 -0.1169  0.1098  0.0104
  490loPI   C6A 7836   7.002   6.177   8.385  0.0127  0.0750  0.1489
  490loPI   C1B 7837   8.052   5.578   9.304  0.2516  0.0014 -0.2995
  490loPI   C2B 7838   7.959   5.626   8.955 -0.1541 -0.6075  0.0929
  490loPI   C3B 7839   8.322   5.784   8.633 -0.1056 -0.3502  0.0413
  490loPI   C4B 7840   8.548   5.525   8.328  0.1475  0.2902 -0.0069
  491loPI    C1 7841  17.796   6.608  10.173 -0.1808  0.0662  0.0736
  491loPI    C2 7842  18.013   6.290  10.066 -0.3526 -0.0635  0.1054
  491loPI    C3 7843  17.991   6.396  10.451 -0.4121 -0.1001  0.1122
  491loPI   PO4 7844  17.724   6.681   9.901  0.1114  0.0156  0.1483
  491loPI   GL1 7845  17.846   6.756   9.443  0.1792  0.1349 -0.2183
  491loPI   GL2 7846  17.435   6.717   9.304 -0.2495 -0.1363 -0.3671
  491loPI   C1A 7847  17.937   6.623   9.008 -0.3869  0.0593 -0.1352
  491loPI   C2A 7848  18.094   6.596   8.723 -0.2289  0.1143  0.0692
  491loPI   C3A 7849  18.263   6.771   8.414 -0.0472  0.1192  0.1005
  491loPI   C4A 7850  18.411   6.684   8.032  0.2368 -0.1984 -0.0825
  491loPI   C5A 7851  18.637   6.520   7.669 -0.2447  0.2130 -0.1020
  491loPI   C6A 7852  18.952   6.248   7.772  0.0062  0.0380 -0.0052
  491loPI   C1B 7853  17.343   6.819   8.900  0.2135 -0.0825  0.1799
  491loPI   C2B 7854  17.273   6.888   8.410 -0.0415 -0.0961 -0.2850
  491loPI   C3B 7855  17.267   6.853   7.950 -0.0200 -0.1363 -0.1289
  491loPI   C4B 7856  17.066   6.955   7.532 -0.0247 -0.0392 -0.2264
  492loPI    C1 7857   6.931  13.587   9.989  0.0013 -0.1064  0.4366
  492loPI    C2 7858   7.024  13.236   9.820  0.0349  0.1989 -0.2082
  492loPI    C3 7859   7.036  13.276  10.218  0.0041 -0.5319 -0.1207
  492loPI   PO4 7860   7.051  13.774   9.759 -0.0745  0.2667  0.0437
  492loPI   GL1 7861   7.250  13.630   9.289 -0.0962  0.0648 -0.0033
  492loPI   GL2 7862   7.469  13.540   9.094  0.0497 -0.2653  0.0942
  492loPI   C1A 7863   7.216  13.945   8.975  0.1250 -0.0813  0.0150
  492loPI   C2A 7864   7.115  14.220   8.647 -0.1519 -0.1943 -0.1541
  492loPI   C3A 7865   6.989  14.294   8.266 -0.0443  0.0072  0.2055
  492loPI   C4A 7866   7.190  14.144   7.969 -0.0875  0.2611 -0.2606
  492loPI   C5A 7867   7.401  13.990   7.656 -0.2020  0.1109 -0.0054
  492loPI   C6A 7868   7.754  13.829   7.500  0.0812  0.0069  0.1768
  492loPI   C1B 7869   7.554  13.301   8.794  0.1648  0.0289 -0.2741
  492loPI   C2B 7870   7.625  13.176   8.389  0.3501  0.2866 -0.1832
  492loPI   C3B 7871   7.941  13.039   8.036  0.0809  0.2942  0.0460
  492loPI   C4B 7872   7.979  12.879   7.694  0.1748 -0.2053  0.2327
  493loPI    C1 7873   7.412  16.525   9.809  0.1236  0.0735  0.2368
  493loPI    C2 7874   7.471  16.912   9.895 -0.1297  0.1444  0.1015
  493loPI    C3 7875   7.134  16.730  10.011 -0.0232 -0.0297  0.1413
  493loPI   PO4 7876   7.393  16.550   9.561 -0.0591 -0.0998  0.2908
  493loPI   GL1 7877   7.501  16.914   9.347  0.0280  0.2808 -0.0296
  493loPI   GL2 7878   7.836  16.946   9.445 -0.2345  0.0026 -0.3017
  493loPI   C1A 7879   7.398  17.097   8.974  0.3354 -0.1224  0.1199
  493loPI   C2A 7880   7.345  17.343   8.535  0.2780 -0.1279  0.0291
  493loPI   C3A 7881   7.140  17.617   8.184  0.0402 -0.3948  0.0095
  493loPI   C4A 7882   7.216  17.830   7.765  0.1962 -0.0467  0.1185
  493loPI   C5A 7883   7.141  18.237   7.665 -0.0871  0.1606 -0.0922
  493loPI   C6A 7884   6.854  18.414   7.573 -0.0936 -0.3222  0.0323
  493loPI   C1B 7885   7.939  17.025   9.024 -0.2303 -0.2068  0.0912
  493loPI   C2B 7886   8.208  17.039   8.695  0.0082 -0.0505 -0.0097
  493loPI   C3B 7887   8.307  17.089   8.252 -0.0198 -0.1963 -0.0612
  493loPI   C4B 7888   8.510  17.471   7.984 -0.1212 -0.0234 -0.0229
  494loPI    C1 7889  14.484  17.060  10.811 -0.0705 -0.1696  0.1750
  494loPI    C2 7890  14.674  16.720  10.901  0.0104 -0.0990  0.2722
  494loPI    C3 7891  14.497  16.933  11.190 -0.4727 -0.3140  0.1456
  494loPI   PO4 7892  14.464  17.039  10.566  0.0542  0.3271  0.1677
  494loPI   GL1 7893  14.769  16.987  10.180  0.1226  0.0089 -0.4458
  494loPI   GL2 7894  14.906  17.291  10.141 -0.3741  0.1724  0.4253
  494loPI   C1A 7895  14.782  17.076   9.689 -0.0977  0.0208 -0.1128
  494loPI   C2A 7896  14.887  17.317   9.322 -0.1834  0.0789  0.3697
  494loPI   C3A 7897  14.887  17.495   9.014  0.3135  0.1786 -0.1313
  494loPI   C4A 7898  14.861  17.379   8.642 -0.0240 -0.2906  0.1161
  494loPI   C5A 7899  15.149  17.446   8.241  0.4246 -0.3396  0.0466
  494loPI   C6A 7900  15.431  17.532   8.017 -0.0086 -0.1377 -0.1534
  494loPI   C1B 7901  14.886  17.556   9.814 -0.0740  0.0947  0.4345
  494loPI   C2B 7902  14.734  17.852   9.459 -0.0814 -0.1963 -0.0379
  494loPI   C3B 7903  14.732  18.004   9.089 -0.0944 -0.0464 -0.0858
  494loPI   C4B 7904  14.984  17.940   8.705 -0.0830  0.2877 -0.0837
  495loPI    C1 7905  17.026   5.988   9.995  0.2340 -0.2534  0.3263
  495loPI    C2 7906  16.772   6.279  10.100  0.0853 -0.1856 -0.1948
  495loPI    C3 7907  17.024   6.126  10.371 -0.2826 -0.0285  0.2492
  495loPI   PO4 7908  16.964   6.066   9.681  0.0602 -0.0680  0.0055
  495loPI   GL1 7909  16.768   6.107   9.332  0.2096 -0.1445  0.1380
  495loPI   GL2 7910  16.411   5.937   9.292  0.1036  0.4527  0.3258
  495loPI   C1A 7911  16.862   5.918   8.960  0.0995  0.0712 -0.4324
  495loPI   C2A 7912  16.814   6.003   8.486  0.2853 -0.2074  0.0265
  495loPI   C3A 7913  17.114   6.092   8.157 -0.1567 -0.1200 -0.1465
  495loPI   C4A 7914  17.180   6.323   7.768  0.1014 -0.1883 -0.1420
  495loPI   C5A 7915  17.365   6.504   7.374 -0.0453 -0.0176 -0.0041
  495loPI   C6A 7916  17.379   6.879   7.193  0.0607  0.2590 -0.2171
  495loPI   C1B 7917  16.347   6.067   8.921 -0.0420  0.0123 -0.0942
  495loPI   C2B 7918  16.261   6.329   8.655 -0.1799  0.1214  0.0411
  495loPI   C3B 7919  16.467   6.350   8.279 -0.0955 -0.4227 -0.2422
  495loPI   C4B 7920  16.677   6.148   7.908 -0.1061 -0.3593  0.3633
  496loPI    C1 7921   2.812   1.497  10.221 -0.1076  0.1333 -0.0716
  496loPI    C2 7922   3.051   1.544   9.904  0.1962  0.1995  0.1630
  496loPI    C3 7923   3.094   1.780  10.224  0.0738 -0.0436  0.3626
  496loPI   PO4 7924   2.702   1.269  10.137 -0.2343  0.0733  0.0433
  496loPI   GL1 7925   2.846   1.087   9.683  0.0051 -0.1551  0.1065
  496loPI   GL2 7926   3.163   1.062   9.581  0.1574  0.1015 -0.0129
  496loPI   C1A 7927   2.666   0.803   9.434 -0.1756  0.1614 -0.0765
  496loPI   C2A 7928   2.673   0.818   9.007  0.0462 -0.0183 -0.2093
  496loPI   C3A 7929   2.503   0.854   8.543 -0.1976  0.1331  0.0926
  496loPI   C4A 7930   2.382   0.980   8.155 -0.2868 -0.1654  0.1502
  496loPI   C5A 7931   2.091   1.354   7.963  0.0618 -0.0582  0.1768
  496loPI   C6A 7932   2.068   1.759   7.938  0.0386  0.1577  0.2432
  496loPI   C1B 7933   3.251   1.467   9.349 -0.0303  0.3929 -0.0135
  496loPI   C2B 7934   3.097   1.748   9.143 -0.0136  0.5277  0.1400
  496loPI   C3B 7935   2.854   1.919   9.070 -0.0559 -0.0819  0.2018
  496loPI   C4B 7936   2.566   1.859   8.635 -0.3073 -0.0379 -0.1337
  497loPI    C1 7937   9.443   0.372  10.597  0.2224  0.1396  0.0090
  497loPI    C2 7938   9.516   0.052  10.826 -0.0391 -0.2471 -0.4291
  497loPI    C3 7939   9.291   0.351  10.966  0.1735 -0.2674 -0.0293
  497loPI   PO4 7940   9.473   0.339  10.416  0.3162  0.0411 -0.4106
  497loPI   GL1 7941   9.516   0.196   9.973 -0.1188  0.0762 -0.1506
  497loPI   GL2 7942   9.690   0.441   9.973 -0.0221  0.0117  0.1200
  497loPI   C1A 7943   9.151   0.460   9.679 -0.1215  0.2620  0.1033
  497loPI   C2A 7944   9.111   0.607   9.260 -0.2552 -0.2177 -0.2408
  497loPI   C3A 7945   9.014   0.793   8.847  0.0366  0.1433  0.0004
  497loPI   C4A 7946   8.883   0.745   8.334  0.1109  0.2072 -0.2725
  497loPI   C5A 7947   9.268   0.927   8.025 -0.0468 -0.1238  0.2065
  497loPI   C6A 7948   9.411   1.245   7.738  0.1153  0.3344 -0.0736
  497loPI   C1B 7949   9.528   0.796   9.636  0.2041  0.2325 -0.1112
  497loPI   C2B 7950   9.404   1.025   9.344 -0.0828 -0.2839  0.0087
  497loPI   C3B 7951   9.551   1.295   9.065 -0.0094  0.2509 -0.0245
  497loPI   C4B 7952   9.777   1.299   8.707  0.0732  0.0579  0.0116
  498loPI    C1 7953  14.324   5.170  10.984 -0.0357 -0.0059  0.3214
  498loPI    C2 7954  14.078   5.471  10.889  0.0813  0.0916  0.3250
  498loPI    C3 7955  13.982   5.221  11.186 -0.2629 -0.1856 -0.0090
  498loPI   PO4 7956  14.425   5.176  10.693  0.0079  0.3540  0.1737
  498loPI   GL1 7957  14.439   4.928  10.331 -0.0282  0.1079 -0.1883
  498loPI   GL2 7958  14.674   4.754  10.203 -0.1982  0.0078 -0.0709
  498loPI   C1A 7959  14.574   5.210   9.890 -0.1775  0.0290 -0.1484
  498loPI   C2A 7960  14.605   5.506   9.523 -0.6062  0.1161 -0.3126
  498loPI   C3A 7961  14.695   5.584   9.130 -0.0364  0.1359 -0.1716
  498loPI   C4A 7962  14.705   5.586   8.651  0.1416  0.0333  0.1257
  498loPI   C5A 7963  14.416   5.752   8.443  0.2177  0.1114  0.0700
  498loPI   C6A 7964  14.410   6.167   8.347 -0.1159  0.2120  0.0063
  498loPI   C1B 7965  14.843   4.470   9.900  0.0168 -0.0658 -0.0544
  498loPI   C2B 7966  14.967   4.525   9.485 -0.1396  0.0717 -0.1127
  498loPI   C3B 7967  15.087   4.608   9.025 -0.0391  0.2348  0.2245
  498loPI   C4B 7968  15.266   4.751   8.628  0.1960 -0.0865 -0.0797
  499loPI    C1 7969   7.190   2.805  10.500 -0.2765  0.2814  0.0084
  499loPI    C2 7970   7.132   3.057  10.805 -0.0426  0.1686  0.1487
  499loPI    C3 7971   7.497   2.909  10.734 -0.1156  0.1147 -0.1259
  499loPI   PO4 7972   6.968   2.868  10.259 -0.2647  0.2840  0.2216
  499loPI   GL1 7973   6.705   2.743  10.001  0.0375 -0.3325  0.1150
  499loPI   GL2 7974   7.029   2.722   9.802  0.1192 -0.1457  0.0751
  499loPI   C1A 7975   6.484   2.880   9.723  0.1950 -0.4680  0.5125
  499loPI   C2A 7976   6.596   2.909   9.330 -0.3792 -0.3858  0.1074
  499loPI   C3A 7977   6.581   2.876   8.936  0.0921 -0.0604 -0.0452
  499loPI   C4A 7978   6.644   3.207   8.693 -0.2093  0.0659 -0.0689
  499loPI   C5A 7979   6.521   3.622   8.533 -0.0099 -0.0824  0.0081
  499loPI   C6A 7980   6.539   3.895   8.230 -0.4112 -0.1488 -0.3650
  499loPI   C1B 7981   7.086   2.877   9.460 -0.0822  0.0458 -0.1730
  499loPI   C2B 7982   7.058   2.974   8.994 -0.1391 -0.1342 -0.0032
  499loPI   C3B 7983   7.098   3.339   8.772  0.3093 -0.5368 -0.2360
  499loPI   C4B 7984   7.014   3.397   8.430 -0.1719  0.0296 -0.2084
  500loPI    C1 7985   2.720  13.035  10.197 -0.2241  0.0451  0.0196
  500loPI    C2 7986   2.943  12.770  10.398  0.2367  0.4341  0.0411
  500loPI    C3 7987   2.632  12.947  10.577 -0.1435 -0.1568 -0.0071
  500loPI   PO4 7988   2.888  13.135  10.041 -0.1452  0.0472  0.3694
  500loPI   GL1 7989   2.906  13.114   9.670 -0.1759  0.2584 -0.4093
  500loPI   GL2 7990   3.276  12.934   9.426  0.0414  0.0505 -0.0885
  500loPI   C1A 7991   2.752  12.890   9.342  0.2149 -0.2689 -0.3687
  500loPI   C2A 7992   2.659  12.798   8.863  0.1688  0.2187  0.0460
  500loPI   C3A 7993   2.587  12.709   8.379  0.4806  0.4294 -0.0297
  500loPI   C4A 7994   2.510  12.667   7.944  0.6061  0.2632 -0.0806
  500loPI   C5A 7995   2.446  12.919   7.646  0.0199 -0.2198 -0.1823
  500loPI   C6A 7996   2.287  13.047   7.220  0.0785  0.2516  0.2285
  500loPI   C1B 7997   3.165  12.984   8.999  0.0454 -0.3164 -0.0178
  500loPI   C2B 7998   3.005  13.075   8.614 -0.0457 -0.2348  0.3198
  500loPI   C3B 7999   2.835  13.087   8.169  0.0035 -0.1258  0.1252
  500loPI   C4B 8000   2.819  13.272   7.730  0.2715  0.2013 -0.3219
  501loPI    C1 8001  17.369   2.519  10.696  0.3144  0.0241  0.1158
  501loPI    C2 8002  17.304   2.129  10.756 -0.1668  0.0712 -0.0627
  501loPI    C3 8003  17.450   2.355  11.052  0.1145 -0.2404  0.0423
  501loPI   PO4 8004  17.203   2.514  10.421 -0.2176 -0.0205 -0.2442
  501loPI   GL1 8005  17.237   2.398  10.000 -0.2698  0.3059  0.2862
  501loPI   GL2 8006  17.409   2.225   9.843  0.1128 -0.1653  0.0278
  501loPI   C1A 8007  16.916   2.387   9.829 -0.2271 -0.2354  0.0115
  501loPI   C2A 8008  16.877   2.363   9.442 -0.0647  0.0145  0.1471
  501loPI   C3A 8009  16.813   2.263   9.059  0.0967 -0.1280  0.2511
  501loPI   C4A 8010  16.929   2.065   8.668  0.0653 -0.1003 -0.1746
  501loPI   C5A 8011  16.617   2.000   8.352  0.1229  0.0827  0.1265
  501loPI   C6A 8012  16.181   2.042   8.228 -0.0576 -0.2775 -0.3865
  501loPI   C1B 8013  17.353   2.112   9.353  0.3373  0.4770  0.1030
  501loPI   C2B 8014  17.352   2.006   8.998  0.1130  0.1301  0.0479
  501loPI   C3B 8015  17.468   1.974   8.541 -0.0719 -0.1007 -0.0382
  501loPI   C4B 8016  17.167   1.875   8.253 -0.0167 -0.2775 -0.0176
  502loPI    C1 8017  15.876  14.184  10.078  0.0103  0.0349 -0.0327
  502loPI    C2 8018  16.168  14.164  10.351  0.0077  0.1711 -0.0192
  502loPI    C3 8019  15.799  14.042  10.444  0.1398 -0.3529 -0.1517
  502loPI   PO4 8020  15.964  14.402   9.900 -0.0119  0.1386  0.2864
  502loPI   GL1 8021  15.921  14.651   9.526  0.0656  0.1194  0.0335
  502loPI   GL2 8022  16.049  14.409   9.383 -0.0801 -0.1815 -0.1389
  502loPI   C1A 8023  16.069  14.882   9.122 -0.3505 -0.3237 -0.1747
  502loPI   C2A 8024  16.032  14.819   8.706  0.1284  0.1888  0.0997
  502loPI   C3A 8025  16.046  14.504   8.259 -0.1580  0.1895 -0.3486
  502loPI   C4A 8026  16.000  14.355   7.801 -0.2366 -0.0247  0.0671
  502loPI   C5A 8027  15.767  13.986   7.590  0.0413 -0.3181 -0.1860
  502loPI   C6A 8028  15.809  13.812   7.160  0.2683 -0.3184 -0.0681
  502loPI   C1B 8029  15.681  14.546   9.036 -0.3506 -0.0108  0.0452
  502loPI   C2B 8030  15.468  14.775   8.758  0.0779 -0.5411  0.0817
  502loPI   C3B 8031  15.101  14.990   8.907 -0.0499 -0.1535  0.2553
  502loPI   C4B 8032  14.725  14.866   9.225 -0.0163 -0.2133  0.0909
  503loPI    C1 8033  14.979  13.786   9.821 -0.0312 -0.0991  0.1416
  503loPI    C2 8034  14.990  13.827  10.219  0.2664 -0.1166  0.1375
  503loPI    C3 8035  14.642  13.756  10.035  0.1013  0.0564  0.3766
  503loPI   PO4 8036  15.254  13.785   9.747 -0.0779 -0.1865  0.2044
  503loPI   GL1 8037  15.394  13.540   9.386  0.1551  0.1064 -0.1099
  503loPI   GL2 8038  15.634  13.830   9.346 -0.1355 -0.0330  0.0361
  503loPI   C1A 8039  15.646  13.460   8.987  0.1232  0.1754  0.0415
  503loPI   C2A 8040  15.646  13.774   8.639 -0.2109  0.0386  0.1775
  503loPI   C3A 8041  15.313  13.926   8.422 -0.0751 -0.0191  0.2589
  503loPI   C4A 8042  15.422  14.090   8.113  0.0595 -0.0108  0.4985
  503loPI   C5A 8043  15.518  14.545   8.160 -0.1048  0.0372  0.1032
  503loPI   C6A 8044  15.850  14.816   7.974 -0.2316 -0.0733  0.2575
  503loPI   C1B 8045  15.347  14.198   8.955 -0.1639  0.2280 -0.0093
  503loPI   C2B 8046  15.112  14.513   8.974 -0.0013 -0.0147  0.1239
  503loPI   C3B 8047  14.728  14.634   8.772 -0.1923  0.2047  0.0310
  503loPI   C4B 8048  14.474  14.518   8.384  0.0267 -0.0093 -0.2462
  504loPI    C1 8049   7.869   1.749  10.450  0.0026 -0.1206  0.0963
  504loPI    C2 8050   7.734   1.551  10.770  0.0515 -0.1082  0.1247
  504loPI    C3 8051   7.632   1.933  10.715 -0.2381 -0.2079 -0.0550
  504loPI   PO4 8052   8.074   1.490  10.364  0.0903  0.0326  0.1261
  504loPI   GL1 8053   8.216   1.458   9.955  0.0233 -0.1347  0.4050
  504loPI   GL2 8054   8.441   1.353   9.904  0.0107 -0.2346 -0.1135
  504loPI   C1A 8055   8.111   1.615   9.494 -0.2394 -0.0692 -0.0081
  504loPI   C2A 8056   8.193   1.509   9.049 -0.1339 -0.1602 -0.3123
  504loPI   C3A 8057   8.047   1.425   8.704 -0.0648  0.0562  0.0451
  504loPI   C4A 8058   7.826   1.310   8.361 -0.5549  0.1054  0.0364
  504loPI   C5A 8059   7.489   1.111   8.081  0.2248  0.1381 -0.1009
  504loPI   C6A 8060   7.028   1.138   8.150 -0.5443  0.1107  0.2495
  504loPI   C1B 8061   8.424   1.139   9.406 -0.2277  0.5258  0.1060
  504loPI   C2B 8062   8.172   0.999   9.032  0.2857 -0.1047 -0.0481
  504loPI   C3B 8063   7.974   0.899   8.653  0.3400  0.1900  0.2889
  504loPI   C4B 8064   7.720   0.670   8.409  0.0756 -0.1130 -0.1132
  505loPI    C1 8065   1.065  10.819  10.294 -0.2061 -0.0066  0.2939
  505loPI    C2 8066   1.047  11.214  10.354 -0.0268  0.0054  0.2736
  505loPI    C3 8067   1.373  11.010  10.463 -0.0233 -0.0999  0.0708
  505loPI   PO4 8068   1.018  10.764  10.054  0.0437 -0.0887 -0.0833
  505loPI   GL1 8069   0.761  10.795   9.664 -0.1153  0.0831 -0.0449
  505loPI   GL2 8070   1.137  10.709   9.505 -0.0287  0.0390 -0.0828
  505loPI   C1A 8071   0.562  10.437   9.370  0.1334 -0.3302 -0.1873
  505loPI   C2A 8072   0.435  10.129   9.190 -0.0683 -0.0060  0.1352
  505loPI   C3A 8073   0.307  10.025   8.780  0.1662 -0.0385  0.1993
  505loPI   C4A 8074   0.492   9.716   8.506  0.0823 -0.3773 -0.0087
  505loPI   C5A 8075   0.394   9.790   8.097  0.1600  0.0921  0.2734
  505loPI   C6A 8076   0.009   9.958   7.960 -0.2298 -0.1031  0.1115
  505loPI   C1B 8077   0.951  10.750   9.091  0.3565  0.1460  0.0830
  505loPI   C2B 8078   0.608  10.467   8.817 -0.0948 -0.0243  0.2718
  505loPI   C3B 8079   0.519  10.289   8.376 -0.0367  0.2263 -0.0292
  505loPI   C4B 8080   0.640  10.333   7.990 -0.3580 -0.0258 -0.1515
  506loPI    C1 8081   9.484   1.159  10.611  0.1527 -0.1256  0.0509
  506loPI    C2 8082   9.263   0.827  10.583 -0.0613  0.0220 -0.0391
  506loPI    C3 8083   9.527   0.868  10.881  0.1167 -0.3153 -0.1457
  506loPI   PO4 8084   9.549   1.124  10.292  0.1956  0.0721  0.5198
  506loPI   GL1 8085   9.702   1.464  10.023  0.0802 -0.0113 -0.0907
  506loPI   GL2 8086   9.433   1.331   9.863 -0.3288  0.1498 -0.0948
  506loPI   C1A 8087   9.702   1.793   9.716 -0.0759 -0.0997  0.0941
  506loPI   C2A 8088   9.757   1.758   9.274  0.0926  0.3076  0.0497
  506loPI   C3A 8089   9.992   1.711   8.958 -0.0586 -0.0860  0.0709
  506loPI   C4A 8090   9.981   1.761   8.442  0.0986  0.2712 -0.1750
  506loPI   C5A 8091  10.071   2.012   8.102  0.1067 -0.0701 -0.0365
  506loPI   C6A 8092  10.078   2.088   7.629  0.1843  0.1424 -0.2670
  506loPI   C1B 8093   9.335   1.613   9.440  0.0978  0.1154 -0.1752
  506loPI   C2B 8094   9.096   1.642   9.083 -0.0860  0.1805 -0.1320
  506loPI   C3B 8095   9.217   1.407   8.710 -0.1441 -0.0288 -0.0884
  506loPI   C4B 8096   9.381   1.095   8.439 -0.3745 -0.3342  0.0698
  507loPI    C1 8097   5.557   4.374  11.034 -0.2033 -0.0231 -0.1776
  507loPI    C2 8098   5.207   4.418  11.222 -0.0906 -0.1673  0.0726
  507loPI    C3 8099   5.457   4.729  11.188 -0.0823 -0.1571  0.2225
  507loPI   PO4 8100   5.451   4.303  10.775  0.0550  0.2658 -0.4817
  507loPI   GL1 8101   5.239   4.299  10.345  0.0119 -0.1071 -0.0345
  507loPI   GL2 8102   5.533   4.496  10.291  0.0927  0.0132  0.2413
  507loPI   C1A 8103   5.146   4.126   9.958 -0.0069 -0.3162  0.1962
  507loPI   C2A 8104   5.075   3.865   9.544  0.2442  0.1575 -0.3789
  507loPI   C3A 8105   5.017   3.845   9.052 -0.0390  0.0721  0.2253
  507loPI   C4A 8106   5.095   3.819   8.575 -0.0739  0.0020  0.3280
  507loPI   C5A 8107   4.877   3.843   8.155  0.0470  0.0184 -0.0164
  507loPI   C6A 8108   4.777   4.271   8.009 -0.0252 -0.0613 -0.3724
  507loPI   C1B 8109   5.347   4.618   9.968  0.2060  0.3068 -0.0007
  507loPI   C2B 8110   5.362   4.737   9.601  0.2289  0.1347  0.0483
  507loPI   C3B 8111   5.296   4.734   9.189  0.0419 -0.3978 -0.0275
  507loPI   C4B 8112   5.139   4.776   8.735  0.2303  0.4132 -0.0953
  508loPI    C1 8113  10.763   8.106  10.943 -0.1448 -0.1323 -0.1556
  508loPI    C2 8114  10.737   7.904  11.287  0.0065  0.2197  0.0689
  508loPI    C3 8115  10.538   8.248  11.242 -0.1589  0.0853 -0.2674
  508loPI   PO4 8116  10.730   8.065  10.735 -0.1849 -0.1379 -0.1585
  508loPI   GL1 8117  11.006   7.929  10.359 -0.3299 -0.2359  0.0807
  508loPI   GL2 8118  11.078   8.209  10.292 -0.0650  0.3023 -0.0588
  508loPI   C1A 8119  10.900   7.776  10.082  0.0850  0.1852  0.1194
  508loPI   C2A 8120  10.771   7.590   9.729 -0.0486 -0.0741 -0.0190
  508loPI   C3A 8121  10.772   7.605   9.236 -0.1734  0.1201  0.0059
  508loPI   C4A 8122  10.662   7.413   8.867 -0.0386  0.1037 -0.0712
  508loPI   C5A 8123  10.435   7.317   8.490  0.2694 -0.0439 -0.3522
  508loPI   C6A 8124  10.608   7.282   8.106 -0.0585  0.0587  0.1369
  508loPI   C1B 8125  11.002   8.247   9.824 -0.0947 -0.0876 -0.1752
  508loPI   C2B 8126  10.897   8.142   9.376 -0.1650  0.1067 -0.0729
  508loPI   C3B 8127  10.917   8.468   9.004 -0.0217 -0.1934 -0.1602
  508loPI   C4B 8128  10.956   8.466   8.587  0.0015 -0.2372 -0.0711
  509loPI    C1 8129  15.010  11.405   9.780  0.1643 -0.1806 -0.2380
  509loPI    C2 8130  15.389  11.510   9.708  0.1240  0.0291 -0.1523
  509loPI    C3 8131  15.279  11.399  10.076  0.0301  0.2989 -0.0966
  509loPI   PO4 8132  14.926  11.394   9.493  0.2866 -0.0501  0.0038
  509loPI   GL1 8133  14.873  11.495   9.129  0.1527  0.1498  0.1505
  509loPI   GL2 8134  14.945  11.258   8.947  0.1347  0.1482 -0.2134
  509loPI   C1A 8135  14.773  11.747   8.892  0.1919 -0.2815  0.0788
  509loPI   C2A 8136  14.751  11.737   8.397 -0.1763 -0.0533 -0.1715
  509loPI   C3A 8137  14.694  11.822   7.944  0.0019  0.2657  0.2341
  509loPI   C4A 8138  14.739  12.171   7.603 -0.1707  0.0595 -0.1612
  509loPI   C5A 8139  14.674  12.561   7.502  0.4080  0.1162  0.1296
  509loPI   C6A 8140  14.564  12.992   7.450 -0.0800  0.2618  0.0043
  509loPI   C1B 8141  14.958  11.250   8.584 -0.6098  0.1434 -0.2757
  509loPI   C2B 8142  14.887  10.845   8.230  0.0891  0.0510 -0.0101
  509loPI   C3B 8143  15.031  10.670   7.901  0.0559 -0.4198  0.1037
  509loPI   C4B 8144  15.033  10.663   7.534  0.0060 -0.1019 -0.1092
  510loPI    C1 8145  11.461  13.044   9.878  0.1673 -0.3908 -0.2450
  510loPI    C2 8146  11.737  12.822  10.064  0.1312 -0.1467  0.1095
  510loPI    C3 8147  11.386  12.894  10.241  0.1129  0.1299 -0.0332
  510loPI   PO4 8148  11.559  13.227   9.762 -0.1795  0.3233  0.2190
  510loPI   GL1 8149  11.762  13.230   9.359  0.1580 -0.2005  0.0019
  510loPI   GL2 8150  11.938  13.365   9.231 -0.0972 -0.1718 -0.1791
  510loPI   C1A 8151  11.686  13.042   8.957 -0.1810 -0.0021 -0.0931
  510loPI   C2A 8152  11.704  13.013   8.561  0.2567  0.2636  0.2515
  510loPI   C3A 8153  11.726  13.259   8.197  0.1231 -0.3735  0.0660
  510loPI   C4A 8154  11.856  13.290   7.849 -0.1195 -0.0914 -0.1087
  510loPI   C5A 8155  12.022  13.266   7.473 -0.2548 -0.1667  0.1357
  510loPI   C6A 8156  12.249  13.177   7.267 -0.3781  0.0498  0.1880
  510loPI   C1B 8157  11.939  13.406   8.748 -0.1023  0.0244  0.1882
  510loPI   C2B 8158  11.941  13.693   8.406 -0.1495  0.1628 -0.2506
  510loPI   C3B 8159  12.056  13.878   8.076 -0.1058 -0.0171 -0.0411
  510loPI   C4B 8160  12.226  14.183   7.793 -0.0150  0.0158  0.1548
  511loPI    C1 8161  18.187   5.171  10.211  0.2169  0.1156  0.0522
  511loPI    C2 8162  18.447   5.069  10.496 -0.0617 -0.0819  0.2410
  511loPI    C3 8163  18.066   5.143  10.591 -0.1095  0.0609 -0.0524
  511loPI   PO4 8164  18.320   5.083   9.927  0.0107 -0.0140 -0.2054
  511loPI   GL1 8165  18.608   5.137   9.528 -0.2347  0.1217  0.1697
  511loPI   GL2 8166  18.746   4.838   9.567 -0.2376  0.0341  0.2100
  511loPI   C1A 8167  18.658   4.928   9.042  0.4085 -0.1068  0.0467
  511loPI   C2A 8168  18.793   4.683   8.610 -0.0368 -0.1165  0.3518
  511loPI   C3A 8169  18.809   4.833   8.170  0.0268 -0.1937  0.2646
  511loPI   C4A 8170  18.377   4.796   7.880 -0.1710  0.4355  0.0558
  511loPI   C5A 8171  17.982   4.687   7.757 -0.5009  0.0443 -0.0342
  511loPI   C6A 8172  17.620   4.891   7.608  0.2712 -0.1531  0.0362
  511loPI   C1B 8173  19.052   4.998   9.298 -0.2318  0.2475 -0.0759
  511loPI   C2B 8174  19.140   5.044   8.830  0.0762  0.3553 -0.2952
  511loPI   C3B 8175  19.265   4.832   8.489 -0.0699  0.1522 -0.0486
  511loPI   C4B 8176  19.498   4.433   8.393  0.1956 -0.0090 -0.0625
  512loPI    C1 8177   8.244  11.535   9.809  0.2023  0.1608 -0.0398
  512loPI    C2 8178   8.093  11.778   9.529  0.0685  0.1102 -0.0123
  512loPI    C3 8179   7.954  11.794   9.904  0.2023  0.1330  0.0369
  512loPI   PO4 8180   8.272  11.364   9.743 -0.0022  0.0852 -0.3441
  512loPI   GL1 8181   8.208  11.301   9.220  0.0012 -0.2890  0.1392
  512loPI   GL2 8182   8.075  11.489   9.185 -0.0571  0.0470  0.1742
  512loPI   C1A 8183   8.212  11.136   8.826  0.0372  0.0979  0.1945
  512loPI   C2A 8184   8.108  11.146   8.443  0.0840 -0.3306  0.3143
  512loPI   C3A 8185   8.345  11.218   8.122  0.2022 -0.0997 -0.0003
  512loPI   C4A 8186   8.620  11.072   7.997  0.0918 -0.4164  0.4401
  512loPI   C5A 8187   8.894  10.934   7.584 -0.0297  0.1802 -0.1635
  512loPI   C6A 8188   8.726  10.693   7.233  0.2122 -0.0543 -0.0856
  512loPI   C1B 8189   8.328  11.820   9.025  0.0902  0.3347  0.1747
  512loPI   C2B 8190   8.431  11.904   8.613  0.0572  0.1110 -0.6019
  512loPI   C3B 8191   8.496  11.806   8.145  0.0996 -0.0638  0.0027
  512loPI   C4B 8192   8.562  11.593   7.678 -0.0439 -0.2507  0.0222
  513loPI    C1 8193  12.727   1.027  10.669  0.1719  0.2888  0.0597
  513loPI    C2 8194  13.085   0.858  10.727  0.1008  0.1491  0.0939
  513loPI    C3 8195  12.755   0.682  10.869  0.0038  0.2027 -0.0636
  513loPI   PO4 8196  12.875   1.244  10.556 -0.1927 -0.0250  0.2246
  513loPI   GL1 8197  12.948   1.468  10.191  0.1450  0.0954 -0.2820
  513loPI   GL2 8198  13.011   1.795  10.217 -0.1257  0.0231 -0.2167
  513loPI   C1A 8199  13.091   1.431   9.870 -0.0545 -0.0371  0.2142
  513loPI   C2A 8200  13.279   1.219   9.779  0.0078  0.2012 -0.1076
  513loPI   C3A 8201  13.365   1.134   9.365  0.1035  0.0487 -0.0223
  513loPI   C4A 8202  13.309   1.300   8.975  0.0468  0.0587  0.1485
  513loPI   C5A 8203  13.244   1.266   8.552 -0.0035  0.4118 -0.3803
  513loPI   C6A 8204  13.239   1.285   8.119 -0.1288  0.0092 -0.1131
  513loPI   C1B 8205  13.237   1.907   9.755 -0.0738 -0.1313 -0.0037
  513loPI   C2B 8206  13.174   2.068   9.289  0.2617 -0.0194  0.2087
  513loPI   C3B 8207  13.150   1.879   8.907 -0.3221 -0.0421  0.0325
  513loPI   C4B 8208  13.050   1.743   8.493  0.1725  0.2109 -0.0732
  514loPI    C1 8209  10.378   8.595  10.482 -0.0614 -0.4225 -0.0199
  514loPI    C2 8210  10.083   8.513  10.739 -0.0864  0.3235  0.2154
  514loPI    C3 8211  10.456   8.566  10.873  0.0100  0.1576  0.0187
  514loPI   PO4 8212  10.249   8.833  10.301  0.1991 -0.0201 -0.4020
  514loPI   GL1 8213  10.203   8.627   9.967 -0.3011  0.1477 -0.1527
  514loPI   GL2 8214  10.149   8.354   9.950 -0.0520  0.1452  0.0046
  514loPI   C1A 8215  10.229   8.843   9.518 -0.1111 -0.2953 -0.1437
  514loPI   C2A 8216  10.447   8.855   9.221  0.1712 -0.0279  0.0261
  514loPI   C3A 8217  10.494   8.950   8.717  0.0637 -0.0179 -0.3741
  514loPI   C4A 8218  10.646   9.220   8.387  0.0195 -0.1188  0.1122
  514loPI   C5A 8219  10.971   9.235   8.114  0.0587 -0.0456  0.3055
  514loPI   C6A 8220  11.306   9.445   7.892  0.0785 -0.2288  0.1697
  514loPI   C1B 8221  10.251   8.338   9.546 -0.1203  0.0009  0.1303
  514loPI   C2B 8222  10.422   8.364   9.143  0.0411 -0.0417  0.1855
  514loPI   C3B 8223  10.426   8.400   8.772  0.0252  0.0021 -0.0433
  514loPI   C4B 8224  10.502   8.615   8.356  0.0647 -0.0046 -0.0793
  515loPI    C1 8225   3.317  16.761  10.095  0.1097 -0.0003 -0.1469
  515loPI    C2 8226   3.508  16.514  10.345 -0.0629  0.1250  0.1134
  515loPI    C3 8227   3.134  16.431  10.228  0.1214 -0.0903 -0.3498
  515loPI   PO4 8228   3.531  16.802   9.886  0.2278 -0.1215  0.1364
  515loPI   GL1 8229   3.701  16.613   9.468  0.1005  0.2642 -0.0338
  515loPI   GL2 8230   3.546  16.976   9.423 -0.0255  0.1484 -0.0867
  515loPI   C1A 8231   3.757  16.812   9.017  0.0108  0.0841  0.1093
  515loPI   C2A 8232   3.679  16.850   8.614  0.2355  0.2451 -0.0897
  515loPI   C3A 8233   3.637  17.039   8.236 -0.3386  0.1188  0.0708
  515loPI   C4A 8234   3.751  17.124   7.813  0.0186 -0.0144 -0.0052
  515loPI   C5A 8235   4.077  17.255   7.726  0.1419 -0.1316  0.2865
  515loPI   C6A 8236   4.461  17.279   8.043 -0.0911 -0.2400  0.3178
  515loPI   C1B 8237   3.647  17.354   9.053  0.0135 -0.0861 -0.1523
  515loPI   C2B 8238   3.598  17.395   8.544 -0.1209 -0.1661  0.0063
  515loPI   C3B 8239   3.316  17.542   8.173  0.0675 -0.2093 -0.1133
  515loPI   C4B 8240   3.027  17.592   7.701  0.2199  0.0809 -0.2434
  516loPI    C1 8241  11.613  10.152  10.296 -0.0945 -0.0360  0.0531
  516loPI    C2 8242  11.655   9.916  10.616  0.1295 -0.1592 -0.0647
  516loPI    C3 8243  11.761  10.301  10.637  0.0333 -0.1382  0.0433
  516loPI   PO4 8244  11.748  10.095  10.043  0.4714 -0.2427  0.0248
  516loPI   GL1 8245  11.730   9.920   9.587 -0.1803 -0.1244 -0.0765
  516loPI   GL2 8246  11.922  10.148   9.297 -0.1601  0.0379  0.0142
  516loPI   C1A 8247  11.534   9.652   9.264 -0.0129 -0.0264  0.0123
  516loPI   C2A 8248  11.248   9.479   8.990  0.1669  0.2051 -0.2528
  516loPI   C3A 8249  11.066   9.466   8.665  0.1411 -0.1699  0.3900
  516loPI   C4A 8250  11.183   9.621   8.299  0.0023 -0.0056  0.3039
  516loPI   C5A 8251  11.087   9.887   8.024 -0.0867 -0.3134  0.2910
  516loPI   C6A 8252  11.195  10.341   8.052  0.1226 -0.1058  0.0894
  516loPI   C1B 8253  12.013   9.818   8.985  0.1029  0.1711 -0.3438
  516loPI   C2B 8254  12.302   9.751   8.546 -0.3415 -0.2782  0.0623
  516loPI   C3B 8255  12.515   9.582   8.108 -0.0399  0.1593 -0.1224
  516loPI   C4B 8256  12.669   9.305   7.648  0.1225  0.0764 -0.1545
  517loPI    C1 8257  16.848  17.731  10.943  0.1449 -0.0990 -0.0174
  517loPI    C2 8258  16.725  17.597  11.299 -0.1327  0.0439 -0.0569
  517loPI    C3 8259  17.087  17.497  11.162  0.0655  0.1648  0.3606
  517loPI   PO4 8260  16.552  17.761  10.770  0.2650  0.3531 -0.1998
  517loPI   GL1 8261  16.322  17.789  10.346  0.3125 -0.0134 -0.1055
  517loPI   GL2 8262  15.990  17.811  10.182  0.3518 -0.0971 -0.2273
  517loPI   C1A 8263  16.578  17.760  10.062  0.1766 -0.3671 -0.0042
  517loPI   C2A 8264  16.558  17.875   9.586 -0.3777  0.3025 -0.1602
  517loPI   C3A 8265  16.589  17.905   9.165  0.3993 -0.0347  0.1085
  517loPI   C4A 8266  16.484  17.924   8.690  0.1534 -0.1120  0.4732
  517loPI   C5A 8267  16.272  18.114   8.371 -0.0878  0.1462  0.0864
  517loPI   C6A 8268  16.255  18.296   7.922 -0.4660  0.3740 -0.1339
  517loPI   C1B 8269  15.666  17.877   9.849  0.1896 -0.1183 -0.0468
  517loPI   C2B 8270  15.679  18.077   9.376 -0.0726  0.0172  0.1268
  517loPI   C3B 8271  15.806  18.375   9.033 -0.2561 -0.0137  0.0400
  517loPI   C4B 8272  15.948  18.348   8.750  0.0717  0.0668 -0.0055
  518loPI    C1 8273  12.081  13.651   9.967 -0.4516  0.0269  0.1749
  518loPI    C2 8274  12.310  13.435  10.214 -0.2110  0.0970  0.0173
  518loPI    C3 8275  12.106  13.750  10.354 -0.0744  0.1383  0.1259
  518loPI   PO4 8276  12.304  13.665   9.788 -0.0151 -0.1655  0.1454
  518loPI   GL1 8277  12.248  13.846   9.401  0.0938 -0.3161 -0.1041
  518loPI   GL2 8278  12.104  14.102   9.534  0.2780 -0.1561 -0.4478
  518loPI   C1A 8279  12.356  13.575   8.990  0.0826 -0.0627 -0.1248
  518loPI   C2A 8280  12.390  13.661   8.630 -0.1127 -0.2619 -0.0072
  518loPI   C3A 8281  12.461  13.927   8.336 -0.0745  0.2879 -0.1493
  518loPI   C4A 8282  12.623  14.377   8.233  0.1861 -0.0643  0.2207
  518loPI   C5A 8283  12.450  14.651   7.878 -0.1863 -0.1708 -0.2062
  518loPI   C6A 8284  12.172  14.883   7.737 -0.2851  0.1564  0.0592
  518loPI   C1B 8285  11.996  14.296   9.230 -0.1524  0.0616  0.0063
  518loPI   C2B 8286  11.979  14.450   8.802  0.1381 -0.0094  0.1519
  518loPI   C3B 8287  12.133  14.477   8.342 -0.1985 -0.1310 -0.0593
  518loPI   C4B 8288  11.927  14.599   8.014 -0.0663 -0.0403 -0.0390
  519loPI    C1 8289  13.638   2.090  10.975  0.0392  0.0716  0.2151
  519loPI    C2 8290  13.930   2.264  11.186  0.0949  0.2604 -0.0119
  519loPI    C3 8291  13.562   2.421  11.188  0.0604  0.1799  0.0563
  519loPI   PO4 8292  13.802   2.099  10.712 -0.0086  0.2162  0.0017
  519loPI   GL1 8293  13.993   1.745  10.552 -0.1695  0.0426 -0.1453
  519loPI   GL2 8294  14.384   1.625  10.565 -0.0698  0.0350  0.0342
  519loPI   C1A 8295  13.828   1.646  10.114  0.0309 -0.0372 -0.0171
  519loPI   C2A 8296  13.620   1.648   9.814 -0.0766 -0.0436 -0.2123
  519loPI   C3A 8297  13.472   1.648   9.390  0.1222  0.0844  0.0939
  519loPI   C4A 8298  13.098   1.524   9.374  0.0876 -0.0724 -0.4979
  519loPI   C5A 8299  12.905   1.362   9.436  0.0386  0.1142 -0.2389
  519loPI   C6A 8300  12.823   0.952   9.747  0.1275  0.3612 -0.2625
  519loPI   C1B 8301  14.668   1.616  10.306  0.0502  0.2082 -0.1241
  519loPI   C2B 8302  14.641   1.553   9.957  0.1620 -0.1700 -0.0835
  519loPI   C3B 8303  14.631   1.518   9.479 -0.0850  0.0344  0.3234
  519loPI   C4B 8304  14.396   1.530   9.154  0.1125 -0.3648  0.3328
  520loPI    C1 8305   6.087   2.369  10.460  0.0638 -0.1640 -0.0845
  520loPI    C2 8306   6.431   2.551  10.369 -0.0177  0.0389  0.0073
  520loPI    C3 8307   6.415   2.294  10.675  0.0696 -0.0303 -0.0458
  520loPI   PO4 8308   6.037   2.212  10.228 -0.0940 -0.2504 -0.1748
  520loPI   GL1 8309   6.193   2.077   9.803 -0.1320 -0.0493 -0.1259
  520loPI   GL2 8310   6.355   2.388   9.807  0.2882 -0.0191 -0.0349
  520loPI   C1A 8311   6.309   1.979   9.439 -0.2298 -0.0065  0.1991
  520loPI   C2A 8312   6.170   1.974   9.079  0.1393 -0.3411 -0.2426
  520loPI   C3A 8313   6.432   2.113   8.816 -0.3770 -0.0577 -0.1467
  520loPI   C4A 8314   6.594   2.393   8.533 -0.0176 -0.0308 -0.0558
  520loPI   C5A 8315   6.898   2.728   8.485  0.1681 -0.1392  0.0186
  520loPI   C6A 8316   7.325   2.945   8.470  0.1016 -0.0948  0.1325
  520loPI   C1B 8317   6.225   2.599   9.305 -0.0820 -0.0819 -0.0129
  520loPI   C2B 8318   6.178   2.571   8.798  0.1464 -0.3351 -0.1843
  520loPI   C3B 8319   6.114   2.317   8.370 -0.0537  0.0419 -0.3491
  520loPI   C4B 8320   6.011   2.500   7.948 -0.2328 -0.3689  0.1274
  521loPI    C1 8321   7.351   4.601  10.642 -0.0873 -0.1619  0.0651
  521loPI    C2 8322   7.284   4.924  10.416  0.1664 -0.1069  0.0653
  521loPI    C3 8323   7.071   4.865  10.749  0.0479  0.0055  0.0100
  521loPI   PO4 8324   7.316   4.357  10.444  0.2724 -0.2183  0.1671
  521loPI   GL1 8325   7.157   4.162  10.033 -0.3031  0.1797  0.3069
  521loPI   GL2 8326   6.786   4.269   9.942 -0.1681 -0.0825  0.1417
  521loPI   C1A 8327   7.354   4.353   9.624  0.0153  0.4902  0.0968
  521loPI   C2A 8328   7.078   4.658   9.345 -0.0074  0.1502  0.0854
  521loPI   C3A 8329   6.886   5.017   9.318  0.0306 -0.1455  0.2817
  521loPI   C4A 8330   6.572   5.108   8.926  0.1671 -0.0360 -0.2812
  521loPI   C5A 8331   6.577   5.266   8.557  0.1561 -0.2250  0.0306
  521loPI   C6A 8332   6.456   5.274   8.202  0.1567 -0.1876  0.1148
  521loPI   C1B 8333   6.822   4.300   9.607 -0.0274  0.0240 -0.0286
  521loPI   C2B 8334   6.558   4.485   9.345  0.2585 -0.0317  0.3671
  521loPI   C3B 8335   6.674   4.666   8.979 -0.0079  0.2120 -0.4336
  521loPI   C4B 8336   7.056   4.857   8.863 -0.2107 -0.1542 -0.0637
  522loPI    C1 8337   3.577  17.312  10.008  0.2094  0.2371 -0.0396
  522loPI    C2 8338   3.645  17.049  10.301 -0.1285 -0.0535 -0.2143
  522loPI    C3 8339   3.595  17.436  10.388 -0.1241 -0.1206  0.1003
  522loPI   PO4 8340   3.782  17.324   9.782  0.0174  0.1288 -0.2724
  522loPI   GL1 8341   4.016  17.164   9.321  0.0060  0.0969  0.1597
  522loPI   GL2 8342   4.129  16.903   9.519 -0.1068 -0.2139  0.1121
  522loPI   C1A 8343   4.036  17.186   8.773  0.3723 -0.1595 -0.0951
  522loPI   C2A 8344   4.126  17.008   8.445 -0.6850  0.0950 -0.2497
  522loPI   C3A 8345   4.149  16.893   8.039  0.0845 -0.0661 -0.1524
  522loPI   C4A 8346   3.975  16.559   7.761  0.1760  0.1201  0.0445
  522loPI   C5A 8347   3.728  16.322   7.527 -0.1153 -0.1744  0.1445
  522loPI   C6A 8348   3.509  16.085   7.109  0.1296  0.2049  0.1996
  522loPI   C1B 8349   4.302  16.671   9.129  0.0463 -0.0012  0.2295
  522loPI   C2B 8350   4.321  16.530   8.753 -0.0645  0.0866 -0.1527
  522loPI   C3B 8351   4.074  16.549   8.455 -0.1055 -0.0373  0.0557
  522loPI   C4B 8352   3.764  16.589   8.203 -0.0346 -0.0885 -0.0735
  523loPI    C1 8353   2.408  15.984  10.049 -0.1837  0.1230 -0.0414
  523loPI    C2 8354   2.728  16.216   9.988 -0.0942  0.0442  0.1207
  523loPI    C3 8355   2.681  16.029  10.338 -0.1574 -0.1948 -0.0132
  523loPI   PO4 8356   2.256  15.969   9.907  0.1133  0.2861  0.0508
  523loPI   GL1 8357   2.069  15.994   9.507 -0.1260 -0.0771  0.1406
  523loPI   GL2 8358   1.940  16.245   9.426  0.4068  0.0382  0.0015
  523loPI   C1A 8359   2.170  15.801   9.027 -0.2978 -0.2509  0.0673
  523loPI   C2A 8360   2.287  15.695   8.579 -0.1046 -0.0844  0.2171
  523loPI   C3A 8361   2.187  15.749   8.103  0.2709 -0.0216  0.3568
  523loPI   C4A 8362   2.077  15.748   7.719 -0.3794  0.0467  0.0927
  523loPI   C5A 8363   2.479  15.573   7.479 -0.0195 -0.0469  0.0396
  523loPI   C6A 8364   2.789  15.913   7.380  0.0553 -0.1501 -0.1117
  523loPI   C1B 8365   2.137  16.436   9.038  0.0504 -0.0581 -0.3848
  523loPI   C2B 8366   2.267  16.712   8.650  0.3091  0.3207  0.2595
  523loPI   C3B 8367   2.176  16.865   8.192  0.3363  0.1705 -0.1296
  523loPI   C4B 8368   2.025  16.975   7.721  0.0301  0.3589  0.2605
  524loPI    C1 8369  16.868   1.126  11.026 -0.0662  0.1433 -0.1128
  524loPI    C2 8370  16.869   1.444  11.269 -0.0534 -0.2099  0.3635
  524loPI    C3 8371  16.601   1.152  11.323  0.1632 -0.4509  0.1612
  524loPI   PO4 8372  16.968   1.141  10.797  0.2469  0.1682 -0.1585
  524loPI   GL1 8373  16.950   1.066  10.366 -0.2731 -0.3396  0.2248
  524loPI   GL2 8374  16.933   0.748  10.168  0.0456  0.1897  0.0476
  524loPI   C1A 8375  16.560   1.098  10.019 -0.5609  0.3313  0.0489
  524loPI   C2A 8376  16.459   1.110   9.547 -0.1930 -0.1696  0.2246
  524loPI   C3A 8377  16.541   1.116   9.107 -0.1284  0.1140  0.0362
  524loPI   C4A 8378  16.334   1.039   8.768  0.2661  0.1431 -0.0330
  524loPI   C5A 8379  16.234   1.189   8.413 -0.3611  0.0751  0.1000
  524loPI   C6A 8380  16.058   1.557   8.205 -0.0078  0.3552  0.0051
  524loPI   C1B 8381  16.890   0.786   9.754  0.0938  0.3372 -0.0436
  524loPI   C2B 8382  16.877   0.590   9.310 -0.1564  0.2883  0.1719
  524loPI   C3B 8383  16.797   0.691   8.947 -0.1085 -0.0378  0.1603
  524loPI   C4B 8384  16.734   0.816   8.508 -0.1204  0.3440 -0.2346
  525loPI    C1 8385  17.968  16.295  10.594 -0.0033  0.0023 -0.0123
  525loPI    C2 8386  17.724  16.515  10.823  0.0752  0.2118 -0.1269
  525loPI    C3 8387  17.712  16.116  10.843 -0.1446  0.2237  0.0048
  525loPI   PO4 8388  17.822  16.327  10.347  0.0997  0.2154 -0.1074
  525loPI   GL1 8389  17.666  16.251   9.974 -0.0337 -0.3219  0.1328
  525loPI   GL2 8390  17.952  16.138   9.774  0.1278  0.1005  0.1679
  525loPI   C1A 8391  17.431  16.385   9.637 -0.1872 -0.2817  0.1573
  525loPI   C2A 8392  17.469  16.604   9.264 -0.3164 -0.0881  0.1817
  525loPI   C3A 8393  17.345  16.644   8.827  0.0088 -0.3092  0.0902
  525loPI   C4A 8394  17.218  16.634   8.447 -0.3640  0.2817 -0.0226
  525loPI   C5A 8395  17.166  16.524   8.040  0.3658  0.1059  0.2058
  525loPI   C6A 8396  17.254  16.252   7.681 -0.0798  0.2323  0.3006
  525loPI   C1B 8397  17.907  16.505   9.529 -0.2161  0.2188 -0.0915
  525loPI   C2B 8398  17.923  16.745   9.076  0.0224 -0.1555  0.0578
  525loPI   C3B 8399  17.827  16.695   8.639 -0.1043  0.0795 -0.1211
  525loPI   C4B 8400  17.882  17.010   8.297 -0.0840  0.0244 -0.1028
  526loPI    C1 8401   7.591   5.398  10.448 -0.2891 -0.1638 -0.1671
  526loPI    C2 8402   7.376   5.713  10.568  0.3848  0.0925  0.4409
  526loPI    C3 8403   7.328   5.359  10.747  0.0269 -0.0181  0.1377
  526loPI   PO4 8404   7.675   5.501  10.214 -0.0638  0.0826  0.2077
  526loPI   GL1 8405   7.489   5.473   9.798 -0.4169  0.0364  0.0307
  526loPI   GL2 8406   7.545   5.779   9.800 -0.0573 -0.0970  0.3488
  526loPI   C1A 8407   7.657   5.313   9.415  0.1686 -0.0668 -0.0013
  526loPI   C2A 8408   7.554   5.325   8.979  0.2995 -0.0936  0.2494
  526loPI   C3A 8409   7.591   5.445   8.602  0.3820  0.2775 -0.2957
  526loPI   C4A 8410   7.334   5.567   8.245 -0.0875  0.4359  0.2359
  526loPI   C5A 8411   6.963   5.504   8.169  0.1027  0.1111 -0.1320
  526loPI   C6A 8412   6.672   5.740   8.148 -0.2365  0.1223 -0.0044
  526loPI   C1B 8413   7.616   5.817   9.419  0.2256 -0.0547 -0.3410
  526loPI   C2B 8414   7.485   5.993   9.120  0.0692 -0.0865 -0.2108
  526loPI   C3B 8415   7.290   5.875   8.812  0.0939 -0.2711  0.2122
  526loPI   C4B 8416   6.848   5.747   8.627  0.0366 -0.1443 -0.0928
  527loPI    C1 8417   0.391   1.849  10.874 -0.0506  0.0102 -0.0021
  527loPI    C2 8418   0.690   1.651  11.051 -0.0150  0.0434 -0.0251
  527loPI    C3 8419   0.312   1.535  11.109 -0.0159  0.1599  0.2121
  527loPI   PO4 8420   0.418   1.868  10.696  0.0731  0.1249  0.2414
  527loPI   GL1 8421   0.206   1.998  10.302 -0.2070  0.2504 -0.0794
  527loPI   GL2 8422   0.456   1.669  10.280  0.0565  0.1398 -0.1318
  527loPI   C1A 8423   0.225   2.005   9.882 -0.0430 -0.0241 -0.0480
  527loPI   C2A 8424   0.057   1.842   9.471 -0.1479  0.0351 -0.1400
  527loPI   C3A 8425   0.039   1.763   9.059  0.0503  0.3077  0.0470
  527loPI   C4A 8426   0.136   1.700   8.677 -0.1655 -0.0024  0.1377
  527loPI   C5A 8427   0.335   1.940   8.306 -0.3615 -0.1938 -0.0381
  527loPI   C6A 8428   0.340   2.248   7.910  0.0298 -0.0852 -0.0525
  527loPI   C1B 8429   0.464   1.455   9.906  0.0754 -0.0938  0.3765
  527loPI   C2B 8430   0.289   1.243   9.545 -0.0484  0.0458 -0.0882
  527loPI   C3B 8431  -0.023   1.220   9.248 -0.1234  0.0080  0.2709
  527loPI   C4B 8432  -0.113   1.281   8.803  0.0002  0.2245  0.1043
  528loPI    C1 8433   9.382  15.796   9.949 -0.1082  0.4555  0.0555
  528loPI    C2 8434   9.338  15.831  10.345  0.0165 -0.0841  0.1248
  528loPI    C3 8435   9.353  15.468  10.177  0.1308  0.1368 -0.3583
  528loPI   PO4 8436   9.568  16.064   9.908 -0.2278 -0.2475 -0.2408
  528loPI   GL1 8437   9.546  16.150   9.516 -0.0819 -0.2261  0.2025
  528loPI   GL2 8438   9.318  15.820   9.455  0.0320  0.0407 -0.3075
  528loPI   C1A 8439   9.207  16.293   9.213  0.1915  0.2479 -0.1076
  528loPI   C2A 8440   9.191  16.365   8.722  0.2344 -0.1149  0.2123
  528loPI   C3A 8441   9.338  16.159   8.396 -0.0705 -0.0853 -0.2019
  528loPI   C4A 8442   9.519  16.201   7.987  0.1078  0.0284 -0.1489
  528loPI   C5A 8443   9.327  16.351   7.577 -0.1360  0.0096 -0.0080
  528loPI   C6A 8444   9.388  16.640   7.287  0.0885 -0.0089 -0.0046
  528loPI   C1B 8445   9.463  15.612   9.049  0.1161 -0.1887  0.0391
  528loPI   C2B 8446   9.500  15.583   8.615  0.0605 -0.0273  0.1845
  528loPI   C3B 8447   9.561  15.739   8.198 -0.1318  0.2093 -0.0247
  528loPI   C4B 8448   9.440  15.716   7.817  0.2314  0.1300 -0.0937
  529loPI    C1 8449   4.684   3.376  10.598  0.1904  0.0791  0.2723
  529loPI    C2 8450   4.712   3.218  10.964 -0.1722  0.0175  0.2770
  529loPI    C3 8451   4.496   3.549  10.905 -0.0748  0.0553  0.1267
  529loPI   PO4 8452   4.873   3.416  10.490 -0.2272  0.0540  0.1700
  529loPI   GL1 8453   5.022   3.670  10.130  0.1878  0.1619 -0.0609
  529loPI   GL2 8454   5.287   3.444  10.269 -0.0363 -0.0246  0.0616
  529loPI   C1A 8455   4.678   3.993   9.980  0.2207 -0.2933 -0.5156
  529loPI   C2A 8456   4.651   4.145   9.589 -0.2682 -0.0111 -0.4264
  529loPI   C3A 8457   4.533   4.197   9.152 -0.0740  0.3659 -0.0272
  529loPI   C4A 8458   4.629   4.067   8.755  0.2664  0.0296  0.0011
  529loPI   C5A 8459   4.402   4.240   8.458  0.2351 -0.0336  0.1883
  529loPI   C6A 8460   4.387   4.631   8.240 -0.1673  0.1907 -0.0327
  529loPI   C1B 8461   5.443   3.177   9.978 -0.0644  0.3672  0.2398
  529loPI   C2B 8462   5.420   3.096   9.520  0.2481 -0.0240  0.1044
  529loPI   C3B 8463   5.511   3.246   9.112 -0.1069 -0.2853  0.0453
  529loPI   C4B 8464   5.468   3.118   8.706 -0.0867 -0.0409  0.3208
  530loPI    C1 8465   1.183   9.782  10.497  0.2097 -0.1713  0.0344
  530loPI    C2 8466   1.216  10.110  10.725  0.0226 -0.0116 -0.1639
  530loPI    C3 8467   1.523   9.855  10.696  0.2288  0.2293 -0.1346
  530loPI   PO4 8468   0.995   9.922  10.247 -0.0310 -0.0386 -0.2163
  530loPI   GL1 8469   0.916   9.828   9.818 -0.0274  0.2728  0.2512
  530loPI   GL2 8470   1.218   9.792   9.804  0.2129 -0.2357  0.1954
  530loPI   C1A 8471   0.958  10.188   9.523  0.0858 -0.2629  0.0122
  530loPI   C2A 8472   0.983  10.236   9.040 -0.0653  0.1863  0.1614
  530loPI   C3A 8473   1.040  10.300   8.656 -0.1184  0.0391  0.0396
  530loPI   C4A 8474   1.074  10.285   8.230  0.4208  0.0036 -0.4274
  530loPI   C5A 8475   1.197  10.067   7.829 -0.0497 -0.1920  0.0160
  530loPI   C6A 8476   1.264  10.084   7.468  0.0576 -0.0467 -0.0980
  530loPI   C1B 8477   1.228   9.799   9.425 -0.0479  0.1443  0.1998
  530loPI   C2B 8478   1.244   9.833   9.007  0.2242  0.1622 -0.1756
  530loPI   C3B 8479   1.361   9.759   8.636 -0.1382 -0.3596  0.0927
  530loPI   C4B 8480   1.555   9.830   8.204 -0.1277  0.1523 -0.1737
  531loPI    C1 8481  11.799   9.381  10.555  0.2507 -0.0005  0.2522
  531loPI    C2 8482  11.718   9.001  10.649  0.0011  0.0068  0.0783
  531loPI    C3 8483  11.465   9.292  10.757 -0.0280  0.0724 -0.1610
  531loPI   PO4 8484  11.825   9.476  10.349 -0.1096  0.3438 -0.1860
  531loPI   GL1 8485  11.767   9.482   9.828  0.2892  0.2878 -0.1749
  531loPI   GL2 8486  11.997   9.368   9.695  0.2039 -0.0783  0.2066
  531loPI   C1A 8487  11.587   9.156   9.552  0.1373 -0.0060 -0.2653
  531loPI   C2A 8488  11.671   9.217   9.048 -0.1092 -0.2653 -0.2324
  531loPI   C3A 8489  11.488   9.192   8.612 -0.1836 -0.1795  0.1411
  531loPI   C4A 8490  11.498   9.144   8.219  0.1150  0.1219 -0.0196
  531loPI   C5A 8491  11.703   9.021   7.870 -0.0285 -0.1507  0.1896
  531loPI   C6A 8492  11.950   9.119   7.492  0.1194  0.5822 -0.1953
  531loPI   C1B 8493  12.091   9.350   9.202  0.0249 -0.2122 -0.0795
  531loPI   C2B 8494  11.976   9.332   8.723 -0.1203 -0.2326 -0.2369
  531loPI   C3B 8495  12.029   9.262   8.286 -0.5324 -0.1493  0.0075
  531loPI   C4B 8496  12.210   9.328   7.803  0.1719  0.0577 -0.3533
  532loPI    C1 8497   8.241  18.302  10.168  0.1176 -0.0980 -0.0558
  532loPI    C2 8498   8.313  17.971  10.381 -0.0983 -0.0586  0.0813
  532loPI    C3 8499   7.936  18.085  10.310 -0.0272  0.0038 -0.2077
  532loPI   PO4 8500   8.356  18.332   9.997 -0.0813  0.0189  0.4147
  532loPI   GL1 8501   8.645  18.162   9.665 -0.2384 -0.0297 -0.4569
  532loPI   GL2 8502   8.319  18.174   9.534 -0.0254  0.0616 -0.0332
  532loPI   C1A 8503   8.826  18.299   9.347 -0.0282 -0.0268 -0.1472
  532loPI   C2A 8504   8.814  18.390   8.953 -0.0165  0.1726  0.0413
  532loPI   C3A 8505   8.826  18.446   8.550 -0.2672 -0.1599  0.2515
  532loPI   C4A 8506   9.009  18.493   8.081 -0.0907 -0.0466  0.0356
  532loPI   C5A 8507   8.908  18.023   7.776 -0.1350  0.5250  0.3324
  532loPI   C6A 8508   8.595  18.134   7.458  0.0668 -0.1830 -0.4316
  532loPI   C1B 8509   8.344  18.224   9.030  0.2247  0.0666 -0.2356
  532loPI   C2B 8510   8.395  18.154   8.658 -0.0200  0.1723  0.0499
  532loPI   C3B 8511   8.432  18.256   8.260  0.0269  0.0518  0.3308
  532loPI   C4B 8512   8.534  18.405   7.983  0.2042  0.0799 -0.0467
  533loPI    C1 8513   1.574   9.064   9.750  0.1050  0.0457  0.2115
  533loPI    C2 8514   1.556   9.079  10.149 -0.3472  0.1771  0.1919
  533loPI    C3 8515   1.883   9.209   9.959 -0.1480  0.1607  0.5143
  533loPI   PO4 8516   1.539   8.751   9.686  0.0215 -0.1296  0.0657
  533loPI   GL1 8517   1.726   8.521   9.410 -0.2990  0.0257 -0.1583
  533loPI   GL2 8518   1.607   8.192   9.351 -0.0219  0.0342 -0.0349
  533loPI   C1A 8519   1.810   8.684   9.049  0.0086  0.0850 -0.0020
  533loPI   C2A 8520   1.536   8.675   8.729  0.1651 -0.0202 -0.3316
  533loPI   C3A 8521   1.740   8.643   8.400  0.5071  0.0552  0.0414
  533loPI   C4A 8522   2.133   8.699   8.045 -0.0966  0.2264  0.1165
  533loPI   C5A 8523   2.511   8.600   7.899 -0.2728 -0.1899 -0.1715
  533loPI   C6A 8524   2.642   8.350   7.577 -0.0498  0.4102 -0.1275
  533loPI   C1B 8525   1.658   8.167   8.906 -0.2262 -0.0530 -0.1487
  533loPI   C2B 8526   1.683   8.145   8.508 -0.3275 -0.0399  0.0833
  533loPI   C3B 8527   1.638   8.171   8.114  0.3020 -0.2653  0.3067
  533loPI   C4B 8528   1.639   8.071   7.627 -0.0755  0.2630 -0.1658
  534loPI    C1 8529   8.550   2.973  10.711 -0.4354 -0.1683  0.1524
  534loPI    C2 8530   8.459   3.308  10.910  0.1080  0.0825 -0.0022
  534loPI    C3 8531   8.629   3.002  11.102  0.2175  0.1506  0.0099
  534loPI   PO4 8532   8.679   3.138  10.470  0.0369  0.3679  0.0469
  534loPI   GL1 8533   8.770   3.299  10.052 -0.3017 -0.3918  0.1803
  534loPI   GL2 8534   8.558   3.438   9.975  0.2016 -0.1008  0.2666
  534loPI   C1A 8535   9.029   3.243   9.728 -0.0700 -0.0095 -0.1483
  534loPI   C2A 8536   8.979   3.067   9.376 -0.1635  0.1707  0.0195
  534loPI   C3A 8537   8.850   3.054   9.005 -0.0148  0.2474  0.5674
  534loPI   C4A 8538   8.801   3.066   8.561  0.0891 -0.1149  0.0626
  534loPI   C5A 8539   8.576   3.291   8.177 -0.0237  0.1138  0.0196
  534loPI   C6A 8540   8.381   3.206   7.773  0.1174  0.2407 -0.0047
  534loPI   C1B 8541   8.285   3.400   9.718  0.4668 -0.0123 -0.0370
  534loPI   C2B 8542   7.955   3.429   9.365 -0.2376 -0.0529 -0.0216
  534loPI   C3B 8543   7.940   3.522   8.903 -0.3085 -0.0361  0.0052
  534loPI   C4B 8544   7.668   3.462   8.486 -0.3234 -0.0884 -0.3127
  535loPI    C1 8545  10.814  11.454  10.204  0.0871 -0.1471 -0.1292
  535loPI    C2 8546  11.202  11.377  10.264  0.0735 -0.0063  0.1573
  535loPI    C3 8547  10.943  11.347  10.568 -0.0942  0.1755  0.0349
  535loPI   PO4 8548  10.801  11.315   9.894 -0.3145  0.0404 -0.0043
  535loPI   GL1 8549  10.959  11.228   9.504  0.7205  0.0407  0.1698
  535loPI   GL2 8550  11.258  11.218   9.580  0.0620  0.1007 -0.1438
  535loPI   C1A 8551  11.016  11.317   9.131 -0.1722  0.0205  0.2944
  535loPI   C2A 8552  10.702  11.235   8.758 -0.1809  0.2079 -0.0018
  535loPI   C3A 8553  10.812  11.082   8.424  0.2185  0.3523  0.2014
  535loPI   C4A 8554  10.717  10.649   8.451  0.2512  0.1550 -0.1751
  535loPI   C5A 8555  10.324  10.537   8.638 -0.1837  0.0119  0.0109
  535loPI   C6A 8556   9.865  10.655   8.704 -0.0119 -0.0781 -0.0949
  535loPI   C1B 8557  11.524  11.187   9.251  0.0685 -0.2590 -0.3557
  535loPI   C2B 8558  11.572  11.237   8.736 -0.0043 -0.1573 -0.2615
  535loPI   C3B 8559  11.615  11.087   8.332 -0.2604 -0.1799 -0.3041
  535loPI   C4B 8560  11.575  11.283   7.962  0.2220 -0.2142  0.1712
  536loPI    C1 8561   4.464  13.116   9.722  0.0299  0.1081  0.1015
  536loPI    C2 8562   4.404  13.035  10.109 -0.0106  0.1706  0.1085
  536loPI    C3 8563   4.760  13.170   9.986 -0.0292  0.2488  0.1401
  536loPI   PO4 8564   4.297  13.287   9.643 -0.1844 -0.1738 -0.0367
  536loPI   GL1 8565   4.452  13.597   9.355  0.0370 -0.1290  0.2593
  536loPI   GL2 8566   4.355  13.970   9.334  0.3827  0.0211  0.1758
  536loPI   C1A 8567   4.582  13.421   9.058  0.0278 -0.1430  0.0559
  536loPI   C2A 8568   4.505  13.257   8.664  0.0879 -0.0980 -0.0865
  536loPI   C3A 8569   4.308  13.048   8.236  0.1223 -0.2882 -0.4247
  536loPI   C4A 8570   4.277  12.878   7.807 -0.0048 -0.0647  0.3993
  536loPI   C5A 8571   4.113  12.889   7.401 -0.0541 -0.1112  0.1557
  536loPI   C6A 8572   3.910  13.166   7.060  0.2190  0.1019  0.0526
  536loPI   C1B 8573   4.205  14.136   9.013 -0.0677  0.1399  0.3637
  536loPI   C2B 8574   4.132  14.111   8.598  0.0852 -0.0592 -0.2349
  536loPI   C3B 8575   3.913  14.008   8.320 -0.1727  0.4304 -0.3522
  536loPI   C4B 8576   3.814  14.103   7.951  0.2594  0.0976 -0.1300
  537loPI    C1 8577   9.325  13.217   9.906 -0.1538  0.2879  0.0148
  537loPI    C2 8578   9.011  13.034  10.074  0.1241  0.0182  0.2511
  537loPI    C3 8579   9.383  12.940  10.189  0.2980  0.2694 -0.0887
  537loPI   PO4 8580   9.303  13.259   9.627  0.1709  0.2189  0.0258
  537loPI   GL1 8581   9.151  13.442   9.275 -0.3445  0.0648 -0.2472
  537loPI   GL2 8582   9.075  13.386   9.042 -0.0342  0.0694 -0.0264
  537loPI   C1A 8583   9.443  13.728   8.980 -0.1222 -0.0183  0.3471
  537loPI   C2A 8584   9.464  13.871   8.625  0.1150 -0.1085 -0.1093
  537loPI   C3A 8585   9.584  14.128   8.255 -0.0211  0.0940 -0.1448
  537loPI   C4A 8586   9.519  14.250   7.801 -0.0061  0.1016 -0.1718
  537loPI   C5A 8587   9.293  14.142   7.463 -0.0955 -0.1125 -0.0181
  537loPI   C6A 8588   9.000  14.442   7.266 -0.1574  0.0499  0.0920
  537loPI   C1B 8589   8.925  13.319   8.629  0.0276 -0.0469  0.1584
  537loPI   C2B 8590   8.721  13.271   8.268 -0.1100  0.0517  0.0639
  537loPI   C3B 8591   8.465  13.102   7.935 -0.1869  0.0812  0.1300
  537loPI   C4B 8592   8.410  13.250   7.554 -0.0040 -0.2901 -0.1930
  538loPI    C1 8593  15.552  17.652  10.662  0.0570 -0.0836  0.0331
  538loPI    C2 8594  15.182  17.518  10.734 -0.0212  0.1487  0.0699
  538loPI    C3 8595  15.366  17.750  11.002  0.1321  0.0754  0.0289
  538loPI   PO4 8596  15.563  17.668  10.466 -0.0647 -0.0936 -0.1242
  538loPI   GL1 8597  15.331  17.520  10.095  0.1004 -0.5750  0.1865
  538loPI   GL2 8598  15.360  17.164  10.028 -0.0290 -0.0019  0.2661
  538loPI   C1A 8599  15.344  17.535   9.609  0.0595  0.2037  0.2568
  538loPI   C2A 8600  15.380  17.256   9.400 -0.1866 -0.0594 -0.0819
  538loPI   C3A 8601  15.327  17.203   8.978 -0.1995 -0.0831 -0.0347
  538loPI   C4A 8602  15.268  17.045   8.579  0.2150 -0.0843 -0.1382
  538loPI   C5A 8603  15.497  17.081   8.144  0.2300 -0.3308  0.3638
  538loPI   C6A 8604  15.479  17.099   7.716 -0.1592  0.1126  0.0202
  538loPI   C1B 8605  15.201  16.838   9.677  0.2389 -0.0070 -0.1710
  538loPI   C2B 8606  15.164  16.774   9.206 -0.1328  0.1332 -0.1213
  538loPI   C3B 8607  14.909  16.916   9.021 -0.0854  0.3033  0.0795
  538loPI   C4B 8608  14.962  16.723   8.736  0.2628  0.0544 -0.0251
  539loPI    C1 8609  16.475   5.790  10.011 -0.1538 -0.0436 -0.0260
  539loPI    C2 8610  16.207   6.028  10.189 -0.2026 -0.0411 -0.1021
  539loPI    C3 8611  16.552   5.942  10.372 -0.2630 -0.0589  0.0042
  539loPI   PO4 8612  16.511   5.857   9.775 -0.0321 -0.0852 -0.1370
  539loPI   GL1 8613  16.788   5.594   9.441  0.2523  0.1235 -0.2914
  539loPI   GL2 8614  16.470   5.421   9.619 -0.1928 -0.0145  0.2617
  539loPI   C1A 8615  16.876   5.387   9.101  0.1360 -0.2642 -0.1995
  539loPI   C2A 8616  16.914   5.502   8.679  0.1448  0.0339  0.2145
  539loPI   C3A 8617  16.751   5.536   8.272  0.3225  0.0067 -0.1544
  539loPI   C4A 8618  16.648   5.658   7.944  0.1532  0.2772  0.0228
  539loPI   C5A 8619  16.435   5.716   7.656  0.2712 -0.0268 -0.0379
  539loPI   C6A 8620  16.073   5.588   7.577 -0.0982 -0.2738 -0.1669
  539loPI   C1B 8621  16.407   5.406   9.199 -0.0553  0.0750 -0.1436
  539loPI   C2B 8622  16.495   5.550   8.859 -0.1043 -0.2588 -0.0956
  539loPI   C3B 8623  16.384   5.791   8.484 -0.0126  0.0316 -0.0139
  539loPI   C4B 8624  16.146   5.732   8.126 -0.3628  0.0784  0.1430
  540loPI    C1 8625  12.575   0.235  10.775 -0.0004  0.0796 -0.1645
  540loPI    C2 8626  12.585  -0.161  10.826 -0.3143  0.0766 -0.1081
  540loPI    C3 8627  12.331   0.062  11.040 -0.1412  0.3090 -0.1417
  540loPI   PO4 8628  12.545   0.235  10.488 -0.0000  0.3883  0.1611
  540loPI   GL1 8629  12.285   0.358  10.149 -0.0902 -0.2115 -0.0768
  540loPI   GL2 8630  11.967   0.271  10.162 -0.0707 -0.2188  0.5165
  540loPI   C1A 8631  12.342   0.370   9.739  0.1300  0.1399 -0.1163
  540loPI   C2A 8632  12.148   0.179   9.403 -0.2674 -0.1788  0.2487
  540loPI   C3A 8633  12.140   0.008   9.066 -0.1097 -0.0382  0.1672
  540loPI   C4A 8634  12.022  -0.099   8.733  0.1005  0.0997 -0.1629
  540loPI   C5A 8635  12.092   0.076   8.326  0.2339  0.2926  0.0242
  540loPI   C6A 8636  12.131   0.348   7.961 -0.0411  0.0891 -0.2120
  540loPI   C1B 8637  11.733   0.523   9.801  0.2916 -0.0957 -0.3543
  540loPI   C2B 8638  11.945   0.746   9.465 -0.2061  0.0137 -0.3669
  540loPI   C3B 8639  12.246   0.582   9.133  0.2000 -0.0604  0.1431
  540loPI   C4B 8640  12.295   0.435   8.639  0.0229  0.2069  0.0260
  541loPI    C1 8641   4.711   0.938  10.427 -0.0553 -0.2161 -0.1319
  541loPI    C2 8642   4.877   0.612  10.590 -0.2803 -0.2806 -0.0283
  541loPI    C3 8643   4.550   0.774  10.754  0.2126  0.4028  0.3315
  541loPI   PO4 8644   4.646   0.953  10.145  0.4183  0.2457  0.5055
  541loPI   GL1 8645   4.541   0.708   9.777  0.2476 -0.2351 -0.0776
  541loPI   GL2 8646   4.555   0.938   9.659  0.1887  0.0760  0.2649
  541loPI   C1A 8647   4.465   0.595   9.313 -0.0128 -0.0455  0.1829
  541loPI   C2A 8648   4.341   0.775   8.899  0.2683  0.1538 -0.0047
  541loPI   C3A 8649   4.525   0.876   8.503  0.0667 -0.1626 -0.0511
  541loPI   C4A 8650   4.664   1.077   8.118 -0.3364  0.0274 -0.0035
  541loPI   C5A 8651   4.806   0.958   7.685 -0.1496  0.0929 -0.2311
  541loPI   C6A 8652   5.188   0.795   7.581 -0.2049 -0.0672 -0.0740
  541loPI   C1B 8653   4.564   1.138   9.210  0.0723  0.0889  0.1310
  541loPI   C2B 8654   4.652   1.252   8.813  0.2919 -0.0894  0.2694
  541loPI   C3B 8655   4.954   1.219   8.508  0.1812 -0.1662  0.0076
  541loPI   C4B 8656   5.063   1.300   8.037 -0.0445  0.1364 -0.0300
  542loPI    C1 8657   6.377   0.286  10.196  0.0063  0.0805  0.0838
  542loPI    C2 8658   6.710   0.286  10.418  0.2004 -0.3693 -0.1921
  542loPI    C3 8659   6.413   0.031  10.502 -0.0304 -0.0518 -0.0211
  542loPI   PO4 8660   6.368   0.348   9.959  0.0816  0.1005 -0.0350
  542loPI   GL1 8661   6.467   0.308   9.508 -0.2101 -0.1072 -0.1453
  542loPI   GL2 8662   6.604   0.076   9.600  0.3781  0.1997  0.0464
  542loPI   C1A 8663   6.325   0.285   8.995 -0.1144 -0.1847  0.0225
  542loPI   C2A 8664   6.327   0.617   8.620  0.0691 -0.1144 -0.2376
  542loPI   C3A 8665   6.467   0.756   8.189  0.1313 -0.1285  0.2404
  542loPI   C4A 8666   6.788   0.880   7.779 -0.1032 -0.0676  0.0088
  542loPI   C5A 8667   7.163   0.881   7.683  0.1340 -0.1374  0.1180
  542loPI   C6A 8668   7.284   0.911   7.185 -0.1212 -0.0628 -0.0846
  542loPI   C1B 8669   6.612  -0.153   9.385 -0.2671  0.1475 -0.0532
  542loPI   C2B 8670   6.543  -0.267   9.038 -0.1139  0.1362  0.2836
  542loPI   C3B 8671   6.307  -0.191   8.724  0.3107 -0.2344 -0.1012
  542loPI   C4B 8672   6.251   0.006   8.405 -0.0154  0.3603  0.2340
  543loPI    C1 8673   1.779   1.616  10.557 -0.2093  0.0115 -0.0557
  543loPI    C2 8674   2.130   1.561  10.742 -0.1451  0.3652 -0.0643
  543loPI    C3 8675   1.790   1.564  10.954 -0.1242  0.2301 -0.0279
  543loPI   PO4 8676   1.870   1.836  10.383  0.3797  0.3165 -0.1628
  543loPI   GL1 8677   2.007   1.811   9.981 -0.1387  0.0353 -0.0606
  543loPI   GL2 8678   1.909   1.528   9.808  0.1760 -0.2303 -0.1602
  543loPI   C1A 8679   1.774   2.001   9.779 -0.0158 -0.0987 -0.0253
  543loPI   C2A 8680   1.473   2.298   9.638 -0.2170  0.3719 -0.1074
  543loPI   C3A 8681   1.483   2.679   9.567  0.0620  0.0643 -0.5084
  543loPI   C4A 8682   1.376   3.085   9.554  0.1367  0.0555 -0.2142
  543loPI   C5A 8683   0.998   3.246   9.452 -0.2303 -0.1336  0.0083
  543loPI   C6A 8684   0.544   3.301   9.421 -0.2898 -0.0401  0.0424
  543loPI   C1B 8685   1.890   1.661   9.374 -0.4711  0.1406 -0.0020
  543loPI   C2B 8686   1.585   1.887   9.179  0.3358  0.0205 -0.0064
  543loPI   C3B 8687   1.391   2.239   9.121 -0.2487  0.2642  0.0120
  543loPI   C4B 8688   1.352   2.697   8.997  0.2554  0.2002 -0.0249
  544loPI    C1 8689   4.881  18.426  10.207  0.1359 -0.0791 -0.2394
  544loPI    C2 8690   5.273  18.348  10.224  0.1505  0.0017 -0.2026
  544loPI    C3 8691   5.009  18.062  10.316  0.2074  0.0578  0.1516
  544loPI   PO4 8692   4.901  18.605   9.991 -0.1106  0.0645 -0.2417
  544loPI   GL1 8693   4.708  18.582   9.567 -0.1364  0.1083 -0.1304
  544loPI   GL2 8694   4.769  18.969   9.591 -0.0262 -0.1725  0.3061
  544loPI   C1A 8695   4.703  18.317   9.201 -0.1815  0.5449  0.0115
  544loPI   C2A 8696   4.547  18.153   8.767  0.2081 -0.0574  0.3929
  544loPI   C3A 8697   4.210  18.021   8.520 -0.0107  0.1159 -0.0888
  544loPI   C4A 8698   4.070  18.001   8.128 -0.2065  0.2344 -0.0750
  544loPI   C5A 8699   3.891  18.077   7.658  0.2246  0.0540  0.0419
  544loPI   C6A 8700   3.958  17.969   7.196  0.0653 -0.3277  0.1759
  544loPI   C1B 8701   4.923  18.890   9.216 -0.1842 -0.4741  0.3572
  544loPI   C2B 8702   4.838  18.574   8.824  0.0292 -0.0926  0.0689
  544loPI   C3B 8703   4.891  18.341   8.455 -0.0582 -0.0014 -0.1039
  544loPI   C4B 8704   5.143  18.146   8.199 -0.3936 -0.0095  0.2947
  545loPI    C1 8705   5.693  17.083   9.856 -0.0949 -0.0485  0.1445
  545loPI    C2 8706   5.439  17.362   9.988 -0.2381 -0.1031 -0.0115
  545loPI    C3 8707   5.328  16.978   9.981 -0.1368 -0.1322 -0.0449
  545loPI   PO4 8708   5.841  17.213   9.641 -0.4427  0.0311  0.0683
  545loPI   GL1 8709   5.614  17.275   9.326 -0.2738 -0.2669  0.2206
  545loPI   GL2 8710   5.298  17.211   9.515 -0.0622  0.1852  0.2984
  545loPI   C1A 8711   5.572  17.720   9.082 -0.1414  0.2647 -0.2665
  545loPI   C2A 8712   5.650  18.164   8.972  0.0108  0.3203  0.0130
  545loPI   C3A 8713   5.805  18.223   8.523  0.0391 -0.1688  0.1569
  545loPI   C4A 8714   5.655  18.210   8.085  0.1564 -0.0571 -0.0396
  545loPI   C5A 8715   5.531  18.275   7.678 -0.0140  0.1811 -0.3209
  545loPI   C6A 8716   5.329  18.011   7.360  0.3287 -0.1103  0.3871
  545loPI   C1B 8717   5.215  16.970   9.245 -0.2383 -0.1479  0.0176
  545loPI   C2B 8718   4.841  16.778   9.080 -0.1177 -0.2745  0.1617
  545loPI   C3B 8719   4.789  16.538   8.671  0.1814 -0.4255 -0.1027
  545loPI   C4B 8720   4.725  16.355   8.524 -0.0755  0.0894 -0.3054
  546loPI    C1 8721   8.314  13.078   9.556  0.1516 -0.2414  0.1117
  546loPI    C2 8722   8.132  12.790   9.347 -0.1826 -0.0099  0.0760
  546loPI    C3 8723   7.971  12.921   9.689 -0.0681  0.1788  0.0594
  546loPI   PO4 8724   8.408  13.274   9.386 -0.0553 -0.2756  0.1479
  546loPI   GL1 8725   8.490  13.377   8.957 -0.3400 -0.1288 -0.3150
  546loPI   GL2 8726   8.421  13.702   9.035  0.0344  0.3616 -0.1011
  546loPI   C1A 8727   8.359  12.952   8.775  0.1074  0.1073  0.0563
  546loPI   C2A 8728   8.216  12.780   8.409  0.1051 -0.0341  0.0471
  546loPI   C3A 8729   8.305  12.645   8.023 -0.0505  0.0400 -0.0075
  546loPI   C4A 8730   8.532  12.672   7.586 -0.1639  0.0970  0.0470
  546loPI   C5A 8731   8.678  12.333   7.230  0.1950 -0.0818  0.0831
  546loPI   C6A 8732   8.724  11.911   7.038 -0.2663  0.1818  0.1756
  546loPI   C1B 8733   8.546  13.812   8.606 -0.0997  0.1688  0.1696
  546loPI   C2B 8734   8.609  13.918   8.111  0.0674  0.0950 -0.6315
  546loPI   C3B 8735   8.756  13.576   7.784  0.0161  0.1131  0.0407
  546loPI   C4B 8736   8.595  13.700   7.416  0.1864 -0.2799 -0.0874
  547loPI    C1 8737   0.489   6.854   9.815  0.0250  0.0022 -0.0805
  547loPI    C2 8738   0.476   6.871  10.215 -0.4842 -0.1643 -0.0825
  547loPI    C3 8739   0.452   7.207   9.999 -0.0417 -0.0580  0.0225
  547loPI   PO4 8740   0.652   6.679   9.776  0.0534 -0.3267 -0.1148
  547loPI   GL1 8741   0.875   6.611   9.502  0.0539  0.0016 -0.2597
  547loPI   GL2 8742   0.731   6.716   9.242  0.1872 -0.5050 -0.0060
  547loPI   C1A 8743   1.207   6.636   9.169  0.0627 -0.1550  0.1030
  547loPI   C2A 8744   1.517   6.746   8.963 -0.0387 -0.3623 -0.0575
  547loPI   C3A 8745   1.691   6.979   8.629  0.1659  0.1864  0.2326
  547loPI   C4A 8746   1.906   7.275   8.271 -0.1014 -0.3948  0.1878
  547loPI   C5A 8747   2.158   7.506   8.133 -0.3207 -0.1294  0.2434
  547loPI   C6A 8748   2.361   7.788   8.207 -0.2726 -0.2235 -0.0908
  547loPI   C1B 8749   0.641   6.697   8.902 -0.1643  0.0722  0.0828
  547loPI   C2B 8750   0.521   6.617   8.513  0.0697 -0.0336 -0.0146
  547loPI   C3B 8751   0.777   6.437   8.113 -0.2665  0.0604 -0.3464
  547loPI   C4B 8752   0.825   6.302   7.528  0.0904  0.1995  0.1422
  548loPI    C1 8753  16.290   2.618  10.806 -0.1450  0.1011  0.1642
  548loPI    C2 8754  16.633   2.796  10.912 -0.1083 -0.0801  0.3568
  548loPI    C3 8755  16.288   2.913  11.077 -0.1311  0.0515  0.2185
  548loPI   PO4 8756  16.280   2.604  10.569 -0.1560 -0.0098 -0.2325
  548loPI   GL1 8757  16.122   2.611  10.270  0.2899 -0.0952  0.2594
  548loPI   GL2 8758  15.917   2.302  10.267  0.3130 -0.0222  0.3137
  548loPI   C1A 8759  15.995   2.666   9.855  0.0199  0.2917 -0.1295
  548loPI   C2A 8760  15.842   2.783   9.443 -0.0144  0.0090  0.3076
  548loPI   C3A 8761  15.886   2.803   9.001  0.2862 -0.0729  0.0347
  548loPI   C4A 8762  15.880   2.918   8.485  0.5055  0.0825  0.1310
  548loPI   C5A 8763  15.721   3.306   8.209  0.3307 -0.1069 -0.3437
  548loPI   C6A 8764  15.499   3.497   7.899  0.3126  0.1227 -0.0665
  548loPI   C1B 8765  16.037   2.178   9.947 -0.0261  0.4914  0.1549
  548loPI   C2B 8766  15.954   2.248   9.559 -0.0513  0.1367 -0.1659
  548loPI   C3B 8767  15.920   2.346   9.223  0.0594  0.0370  0.0897
  548loPI   C4B 8768  15.954   2.369   8.737  0.0048  0.3679 -0.1271
  549loPI    C1 8769  16.025  12.613  10.242  0.1232 -0.2848  0.2657
  549loPI    C2 8770  16.018  12.940  10.471 -0.1706 -0.1820  0.1154
  549loPI    C3 8771  16.215  12.614  10.594  0.3185  0.1216  0.1650
  549loPI   PO4 8772  16.018  12.703   9.939  0.2357  0.1027  0.0376
  549loPI   GL1 8773  16.038  12.619   9.490  0.1601 -0.0711 -0.1706
  549loPI   GL2 8774  15.952  12.938   9.258 -0.3271  0.1956  0.3325
  549loPI   C1A 8775  16.029  12.368   9.160  0.2192  0.0410 -0.1770
  549loPI   C2A 8776  16.343  12.150   8.886 -0.1362  0.1403  0.2165
  549loPI   C3A 8777  16.562  12.160   8.531 -0.1499 -0.0061 -0.1149
  549loPI   C4A 8778  16.358  12.165   8.095 -0.1904 -0.0284 -0.1785
  549loPI   C5A 8779  16.057  11.950   7.854  0.3523 -0.1711 -0.0184
  549loPI   C6A 8780  15.682  12.135   7.787 -0.1048  0.1825  0.1756
  549loPI   C1B 8781  16.150  13.267   9.039 -0.1059  0.1653  0.0212
  549loPI   C2B 8782  16.050  13.758   8.890 -0.3566 -0.0839  0.0258
  549loPI   C3B 8783  16.011  14.166   8.788 -0.0454 -0.3023 -0.0215
  549loPI   C4B 8784  15.669  14.275   8.569 -0.0358  0.0666  0.1077
  550loPI    C1 8785  10.695   7.047  10.929 -0.0559  0.0518 -0.0050
  550loPI    C2 8786  10.423   7.188  11.186 -0.2987 -0.0137 -0.2212
  550loPI    C3 8787  10.686   6.910  11.304 -0.0641  0.3357  0.1007
  550loPI   PO4 8788  10.654   7.194  10.701 -0.2335  0.0899 -0.2484
  550loPI   GL1 8789  10.423   7.216  10.289  0.1093 -0.3034 -0.2263
  550loPI   GL2 8790  10.461   6.881  10.284 -0.0905 -0.1024  0.0149
  550loPI   C1A 8791  10.556   7.143   9.866 -0.0526  0.0381 -0.1790
  550loPI   C2A 8792  10.645   7.022   9.506  0.2685  0.0348 -0.2487
  550loPI   C3A 8793  10.523   7.004   9.142 -0.2411 -0.1383 -0.4351
  550loPI   C4A 8794  10.467   6.870   8.746  0.0748 -0.0714  0.1854
  550loPI   C5A 8795  10.731   6.910   8.415  0.0410 -0.2179 -0.0137
  550loPI   C6A 8796  11.069   6.637   8.390 -0.1183  0.0854  0.2683
  550loPI   C1B 8797  10.250   6.789   9.905  0.1892 -0.0012  0.3043
  550loPI   C2B 8798  10.115   6.806   9.452 -0.1337 -0.2773 -0.1975
  550loPI   C3B 8799  10.053   6.849   9.045  0.2001 -0.0563 -0.0002
  550loPI   C4B 8800   9.930   6.953   8.585 -0.0462  0.0686  0.1022
  551loPI    C1 8801   5.565  11.348   9.583  0.1154 -0.0567  0.0846
  551loPI    C2 8802   5.472  11.239   9.957 -0.2211 -0.0238  0.0133
  551loPI    C3 8803   5.459  11.625   9.852 -0.0157 -0.0204 -0.0037
  551loPI   PO4 8804   5.842  11.171   9.527 -0.0437  0.1887  0.3292
  551loPI   GL1 8805   6.201  11.056   9.250  0.1721  0.0636  0.1394
  551loPI   GL2 8806   6.257  11.318   9.075 -0.2475  0.0891  0.3433
  551loPI   C1A 8807   6.425  10.914   8.897  0.1043 -0.3456  0.0056
  551loPI   C2A 8808   6.229  10.956   8.463  0.1613  0.1040 -0.0252
  551loPI   C3A 8809   6.372  11.147   8.063 -0.1105 -0.0238  0.0331
  551loPI   C4A 8810   6.345  11.235   7.631 -0.0169  0.0038 -0.2959
  551loPI   C5A 8811   6.420  11.346   7.246  0.2119 -0.3066  0.2453
  551loPI   C6A 8812   6.820  11.320   6.912 -0.2101  0.0579 -0.1546
  551loPI   C1B 8813   6.312  11.729   8.763  0.3161  0.0592 -0.3556
  551loPI   C2B 8814   6.353  11.926   8.438  0.0739 -0.3109  0.1350
  551loPI   C3B 8815   6.474  12.041   7.954  0.0981  0.1049  0.1374
  551loPI   C4B 8816   6.315  12.113   7.555  0.2190 -0.0958  0.1835
  552loPI    C1 8817   6.579  15.885  10.004 -0.1319 -0.0480 -0.2029
  552loPI    C2 8818   6.243  15.735  10.160  0.3510 -0.3719  0.5899
  552loPI    C3 8819   6.486  15.501   9.945  0.0705 -0.1285 -0.0149
  552loPI   PO4 8820   6.526  16.023   9.786 -0.1158 -0.1830 -0.1111
  552loPI   GL1 8821   6.331  16.035   9.345 -0.1386  0.0123  0.0203
  552loPI   GL2 8822   6.035  16.085   9.187 -0.1514 -0.1693  0.0670
  552loPI   C1A 8823   6.559  16.040   8.986 -0.2519 -0.0924  0.1107
  552loPI   C2A 8824   6.662  16.196   8.543  0.0235 -0.1038 -0.0188
  552loPI   C3A 8825   6.593  16.328   8.081  0.4557  0.0968 -0.2195
  552loPI   C4A 8826   6.349  16.091   7.783 -0.0119 -0.1086  0.0024
  552loPI   C5A 8827   6.033  15.869   7.515 -0.1206  0.1255  0.0132
  552loPI   C6A 8828   5.737  15.713   7.393  0.2676  0.3442  0.0736
  552loPI   C1B 8829   6.111  16.006   8.766  0.1879 -0.3053  0.0142
  552loPI   C2B 8830   6.074  16.174   8.278 -0.1279 -0.0917  0.2283
  552loPI   C3B 8831   5.856  16.243   7.924 -0.0684 -0.1108 -0.1391
  552loPI   C4B 8832   5.453  16.368   7.833 -0.0008 -0.0938  0.0327
  553loPI    C1 8833   3.614  12.031   9.731  0.0754 -0.1058 -0.0709
  553loPI    C2 8834   3.566  11.801  10.054  0.2836 -0.1879 -0.0969
  553loPI    C3 8835   3.745  12.157  10.088  0.0184 -0.0547 -0.0679
  553loPI   PO4 8836   3.656  11.791   9.559  0.0870 -0.1288  0.2104
  553loPI   GL1 8837   3.764  11.379   9.268 -0.2012 -0.0598  0.2131
  553loPI   GL2 8838   3.754  11.065   9.144 -0.0392 -0.2227  0.1511
  553loPI   C1A 8839   3.587  11.453   8.797 -0.1851 -0.0710  0.1161
  553loPI   C2A 8840   3.244  11.436   8.408 -0.1698 -0.0683 -0.0562
  553loPI   C3A 8841   3.319  11.255   7.962 -0.1626 -0.1841  0.0838
  553loPI   C4A 8842   3.717  11.192   7.706 -0.4513  0.0007 -0.1221
  553loPI   C5A 8843   3.653  11.235   7.237 -0.3540 -0.0479  0.2080
  553loPI   C6A 8844   3.589  11.578   6.965  0.0966  0.0067  0.1864
  553loPI   C1B 8845   3.734  10.944   8.741 -0.2800  0.0642  0.0472
  553loPI   C2B 8846   3.630  10.992   8.263  0.1728 -0.1999 -0.1832
  553loPI   C3B 8847   3.559  10.710   7.901 -0.3014  0.1381  0.0964
  553loPI   C4B 8848   3.338  10.909   7.536  0.0595  0.0099  0.3378
  554loPI    C1 8849   8.493   6.425  10.616  0.3272 -0.2072 -0.3679
  554loPI    C2 8850   8.335   6.059  10.650  0.0787 -0.0795 -0.0981
  554loPI    C3 8851   8.469   6.249  10.975  0.0291  0.1465 -0.2077
  554loPI   PO4 8852   8.547   6.347  10.314 -0.2027 -0.2748  0.1278
  554loPI   GL1 8853   8.382   6.359   9.960 -0.0625 -0.0654  0.0008
  554loPI   GL2 8854   8.700   6.367   9.797 -0.3233 -0.4988  0.1260
  554loPI   C1A 8855   8.223   6.653   9.633  0.3380  0.2371  0.3755
  554loPI   C2A 8856   8.409   6.823   9.403  0.1916  0.0286  0.2310
  554loPI   C3A 8857   8.504   7.005   8.935  0.1582  0.0924 -0.0278
  554loPI   C4A 8858   8.503   6.610   8.606 -0.1795 -0.2453  0.1679
  554loPI   C5A 8859   8.391   6.203   8.336 -0.2713 -0.2124 -0.3856
  554loPI   C6A 8860   8.374   5.873   7.978  0.0469  0.0068 -0.0609
  554loPI   C1B 8861   8.952   6.339   9.356 -0.0693 -0.1011 -0.1005
  554loPI   C2B 8862   9.389   6.233   9.189 -0.1639 -0.0174  0.1590
  554loPI   C3B 8863   9.800   6.410   9.201 -0.0860 -0.0731  0.2312
  554loPI   C4B 8864  10.142   6.263   9.470 -0.1823 -0.1329 -0.1045
  555POPI    C1 8865  12.512  12.227   9.951 -0.1215  0.0366 -0.3697
  555POPI    C2 8866  12.295  12.524  10.109  0.0168  0.0284 -0.1602
  555POPI    C3 8867  12.461  12.249  10.347  0.1044 -0.0703 -0.3335
  555POPI   PO4 8868  12.521  12.358   9.662  0.1825  0.3562 -0.2561
  555POPI   GL1 8869  12.659  12.393   9.277  0.1196 -0.2506  0.3038
  555POPI   GL2 8870  12.570  12.108   9.184 -0.2726 -0.5888  0.2708
  555POPI   C1A 8871  12.810  12.749   9.078 -0.3079  0.0036  0.0840
  555POPI   D2A 8872  12.948  12.928   8.702 -0.0325  0.0666 -0.1440
  555POPI   C3A 8873  12.738  12.964   8.409 -0.1778  0.0699  0.1622
  555POPI   C4A 8874  12.706  12.980   7.936  0.0614 -0.0565 -0.1725
  555POPI   C1B 8875  12.980  12.290   8.985 -0.0616  0.2764  0.4425
  555POPI   C2B 8876  12.967  12.371   8.601  0.3565 -0.1215 -0.1115
  555POPI   C3B 8877  12.982  12.601   8.156 -0.0150 -0.1583 -0.0815
  555POPI   C4B 8878  12.860  12.612   7.707  0.1283  0.1234  0.1507
  556POPI    C1 8879  17.249   0.691  10.724 -0.1480  0.1907  0.0084
  556POPI    C2 8880  17.171   0.427  11.014 -0.2188  0.1144 -0.0793
  556POPI    C3 8881  17.265   0.805  11.107 -0.1467  0.0665  0.0457
  556POPI   PO4 8882  17.463   0.585  10.544 -0.0895 -0.2799 -0.0304
  556POPI   GL1 8883  17.687   0.671  10.185  0.0939  0.0679  0.0231
  556POPI   GL2 8884  17.446   0.876  10.160 -0.0446 -0.2546  0.2265
  556POPI   C1A 8885  17.833   0.579   9.862  0.2147 -0.0446 -0.2353
  556POPI   D2A 8886  17.966   0.606   9.512 -0.0111  0.2929  0.0450
  556POPI   C3A 8887  17.853   0.699   9.109  0.2278  0.0774  0.1267
  556POPI   C4A 8888  17.887   0.714   8.672 -0.2106  0.3487 -0.1960
  556POPI   C1B 8889  17.541   1.014   9.811 -0.1076 -0.3645 -0.2937
  556POPI   C2B 8890  17.646   1.149   9.444  0.0200 -0.2598  0.1735
  556POPI   C3B 8891  17.505   1.200   8.994 -0.1600 -0.1917 -0.1008
  556POPI   C4B 8892  17.593   1.126   8.612  0.1511  0.1124 -0.1655
  557POPI    C1 8893   8.505  14.508   9.667 -0.1749 -0.0079 -0.0534
  557POPI    C2 8894   8.439  14.191   9.432  0.0286 -0.0168 -0.1005
  557POPI    C3 8895   8.407  14.156   9.829  0.2657 -0.1542 -0.0917
  557POPI   PO4 8896   8.724  14.578   9.642  0.2210  0.0222  0.1148
  557POPI   GL1 8897   8.911  14.465   9.303 -0.1212  0.1402  0.3719
  557POPI   GL2 8898   9.018  14.773   9.268  0.2062  0.1413 -0.1937
  557POPI   C1A 8899   8.644  14.216   8.924 -0.2064 -0.2611 -0.2267
  557POPI   D2A 8900   8.629  14.300   8.482 -0.0064 -0.0753  0.2828
  557POPI   C3A 8901   8.668  14.666   8.317 -0.1583 -0.3400 -0.0313
  557POPI   C4A 8902   8.865  14.972   8.094 -0.0334  0.0394 -0.0887
  557POPI   C1B 8903   8.845  14.741   8.889  0.1241 -0.1949  0.2888
  557POPI   C2B 8904   8.436  14.698   8.751  0.1324  0.1427  0.4266
  557POPI   C3B 8905   8.133  14.521   8.439 -0.0830 -0.2132 -0.0373
  557POPI   C4B 8906   8.198  14.159   8.104  0.0844 -0.0219  0.1733
  558POPI    C1 8907  10.106   6.455  10.890 -0.1135 -0.0320  0.0307
  558POPI    C2 8908  10.286   6.802  10.803 -0.0074 -0.0596  0.1365
  558POPI    C3 8909  10.233   6.695  11.185 -0.1492 -0.1037  0.1050
  558POPI   PO4 8910  10.290   6.271  10.768 -0.2388  0.0175  0.0999
  558POPI   GL1 8911  10.504   6.441  10.504  0.3037 -0.1687  0.0777
  558POPI   GL2 8912  10.896   6.336  10.370 -0.1793 -0.1301 -0.0037
  558POPI   C1A 8913  10.466   6.316  10.021 -0.3869 -0.2761  0.2176
  558POPI   D2A 8914  10.088   6.042   9.904  0.0482 -0.1345  0.2170
  558POPI   C3A 8915   9.819   6.445   9.789 -0.2669  0.2159  0.3121
  558POPI   C4A 8916   9.744   6.948   9.784 -0.0016 -0.3400 -0.1012
  558POPI   C1B 8917  10.915   6.145   9.994  0.0242 -0.2167 -0.1381
  558POPI   C2B 8918  10.984   6.014   9.617  0.3458  0.0673 -0.0233
  558POPI   C3B 8919  10.824   6.075   9.246 -0.1143  0.0223 -0.2641
  558POPI   C4B 8920  10.973   5.949   8.853  0.3584 -0.1183  0.3860
  559POPI    C1 8921   4.385   8.178  10.477 -0.0029 -0.1829 -0.0859
  559POPI    C2 8922   4.087   8.178  10.744 -0.0085  0.0110 -0.0912
  559POPI    C3 8923   4.406   7.943  10.801 -0.1348 -0.1532 -0.0554
  559POPI   PO4 8924   4.195   8.181  10.217  0.2853 -0.3413  0.1230
  559POPI   GL1 8925   4.217   8.156   9.788 -0.2276 -0.0691  0.0355
  559POPI   GL2 8926   4.575   8.176   9.830 -0.2622  0.0560 -0.1184
  559POPI   C1A 8927   4.371   7.952   9.408 -0.0550  0.3490 -0.0976
  559POPI   D2A 8928   4.501   7.560   9.202  0.0846 -0.0765 -0.0522
  559POPI   C3A 8929   4.531   7.301   9.509  0.0328 -0.1911  0.0130
  559POPI   C4A 8930   4.610   6.957   9.633  0.2955 -0.1067  0.1319
  559POPI   C1B 8931   4.585   8.396   9.383  0.1121 -0.1688 -0.0847
  559POPI   C2B 8932   4.893   8.454   9.101 -0.1619 -0.0857 -0.2642
  559POPI   C3B 8933   5.182   8.296   8.887 -0.1932 -0.2409 -0.2284
  559POPI   C4B 8934   5.294   8.267   8.443  0.0932  0.0789 -0.3793
  560POPI    C1 8935   0.601  14.223  10.291 -0.1140 -0.2870  0.0391
  560POPI    C2 8936   0.396  14.117  10.619 -0.0990 -0.0304  0.1334
  560POPI    C3 8937   0.354  14.485  10.466 -0.0078 -0.1065 -0.0788
  560POPI   PO4 8938   0.832  14.077  10.204 -0.2284  0.0056  0.2200
  560POPI   GL1 8939   0.996  14.070   9.763  0.2278  0.0780 -0.4827
  560POPI   GL2 8940   0.941  14.349   9.423  0.3857  0.2970 -0.0310
  560POPI   C1A 8941   0.755  13.902   9.443 -0.1246 -0.2413  0.1069
  560POPI   D2A 8942   0.689  14.005   8.918  0.3008  0.0237  0.0444
  560POPI   C3A 8943   0.638  14.176   8.640  0.1067  0.2418 -0.0609
  560POPI   C4A 8944   0.533  14.331   8.299 -0.3160  0.4589 -0.2097
  560POPI   C1B 8945   0.827  14.520   8.971  0.0296 -0.0032 -0.1763
  560POPI   C2B 8946   0.802  14.731   8.602  0.1306 -0.2072 -0.0120
  560POPI   C3B 8947   0.750  14.752   8.174  0.1549 -0.0120 -0.0397
  560POPI   C4B 8948   0.585  14.645   7.800  0.1809 -0.2058 -0.0395
  561POPI    C1 8949   2.745  17.445  10.145 -0.1626 -0.1764 -0.1017
  561POPI    C2 8950   3.053  17.238  10.294 -0.1742 -0.0462  0.1085
  561POPI    C3 8951   2.776  17.389  10.540 -0.0119  0.4675 -0.0101
  561POPI   PO4 8952   2.679  17.425   9.879 -0.1216  0.2742  0.1073
  561POPI   GL1 8953   2.443  17.537   9.632  0.1139 -0.1904 -0.1247
  561POPI   GL2 8954   2.162  17.297   9.588  0.1233  0.3467  0.1230
  561POPI   C1A 8955   2.545  17.432   9.244 -0.0021 -0.2657 -0.5214
  561POPI   D2A 8956   2.730  17.326   8.860  0.2615 -0.0855 -0.1028
  561POPI   C3A 8957   2.646  17.025   8.552 -0.0766  0.1970  0.2391
  561POPI   C4A 8958   2.687  16.831   8.167  0.0652 -0.1623  0.2261
  561POPI   C1B 8959   1.816  17.181   9.382  0.4729 -0.3973  0.1442
  561POPI   C2B 8960   1.546  17.364   9.302 -0.0103 -0.1288 -0.1262
  561POPI   C3B 8961   1.186  17.638   9.169 -0.4457  0.4012  0.0530
  561POPI   C4B 8962   0.857  17.600   9.069  0.0340 -0.2151 -0.2256
  562POPI    C1 8963   3.805   5.291  10.546  0.0446 -0.0635 -0.0610
  562POPI    C2 8964   3.701   4.946  10.719  0.1530 -0.1284 -0.1238
  562POPI    C3 8965   3.666   5.289  10.922 -0.0848 -0.1593 -0.1085
  562POPI   PO4 8966   3.783   5.192  10.276 -0.0738 -0.3129  0.2489
  562POPI   GL1 8967   4.013   4.994   9.993 -0.0109  0.1129 -0.0473
  562POPI   GL2 8968   4.105   5.339   9.860  0.0848 -0.0810 -0.2655
  562POPI   C1A 8969   4.015   4.929   9.556 -0.2759  0.0278  0.1814
  562POPI   D2A 8970   3.676   4.799   9.296  0.0327  0.0618  0.3036
  562POPI   C3A 8971   3.756   4.864   8.849 -0.2287 -0.1247 -0.4803
  562POPI   C4A 8972   3.904   4.709   8.452  0.0789 -0.1878  0.0296
  562POPI   C1B 8973   4.101   5.435   9.511  0.1202 -0.0486  0.1971
  562POPI   C2B 8974   3.940   5.230   9.182  0.0690 -0.1829  0.0169
  562POPI   C3B 8975   3.907   5.333   8.734 -0.0342 -0.1222  0.0922
  562POPI   C4B 8976   3.645   5.121   8.414 -0.1059  0.1225 -0.2950
  563POPI    C1 8977  13.377  17.829  10.787 -0.1225 -0.0477 -0.0967
  563POPI    C2 8978  13.695  17.736  11.011  0.0343 -0.0304 -0.3087
  563POPI    C3 8979  13.364  17.878  11.184  0.1769  0.0481 -0.0953
  563POPI   PO4 8980  13.373  17.761  10.542 -0.1052  0.4019 -0.2064
  563POPI   GL1 8981  13.538  17.650  10.045  0.0048 -0.3765  0.3399
  563POPI   GL2 8982  13.744  17.923  10.175  0.2970  0.1735 -0.3941
  563POPI   C1A 8983  13.137  17.513   9.843  0.1610  0.0114 -0.0885
  563POPI   D2A 8984  12.808  17.299   9.617 -0.2430 -0.2401  0.1340
  563POPI   C3A 8985  12.803  17.227   9.191 -0.1786  0.0568 -0.1887
  563POPI   C4A 8986  12.990  17.440   8.773 -0.2469 -0.1595  0.1391
  563POPI   C1B 8987  13.892  18.076   9.751 -0.1543  0.0254 -0.3068
  563POPI   C2B 8988  13.843  18.031   9.323  0.0822  0.1717 -0.0055
  563POPI   C3B 8989  13.652  17.818   8.971 -0.0143 -0.0199 -0.5223
  563POPI   C4B 8990  13.526  17.574   8.532 -0.3398 -0.0744 -0.0009
  564POPI    C1 8991  12.492   4.829  10.957  0.0129 -0.3001 -0.1317
  564POPI    C2 8992  12.154   4.616  10.940 -0.0357 -0.2560  0.2122
  564POPI    C3 8993  12.280   4.764  11.289 -0.0308  0.3264 -0.0256
  564POPI   PO4 8994  12.505   4.876  10.666  0.0035 -0.1873  0.3074
  564POPI   GL1 8995  12.650   4.685  10.289 -0.1433  0.2575  0.0817
  564POPI   GL2 8996  12.489   4.964  10.083  0.0784 -0.1430  0.0571
  564POPI   C1A 8997  12.780   4.566   9.891 -0.1316 -0.0274 -0.1786
  564POPI   D2A 8998  12.908   4.394   9.565 -0.4581  0.0788 -0.0396
  564POPI   C3A 8999  13.003   4.327   9.111  0.1968 -0.3944 -0.2351
  564POPI   C4A 9000  13.088   4.088   8.867  0.0699  0.1103 -0.2647
  564POPI   C1B 9001  12.656   5.093   9.774 -0.2733  0.1196 -0.1901
  564POPI   C2B 9002  12.840   4.854   9.407 -0.1868 -0.3947 -0.3861
  564POPI   C3B 9003  13.076   4.861   9.022 -0.2070  0.2304 -0.1727
  564POPI   C4B 9004  13.228   4.536   8.712 -0.2911  0.1068 -0.0568
  565POPI    C1 9005   3.494   0.082  10.447 -0.1247 -0.1276 -0.1483
  565POPI    C2 9006   3.150  -0.054  10.599 -0.0165  0.1678  0.3901
  565POPI    C3 9007   3.494  -0.128  10.788  0.1989  0.0506 -0.0345
  565POPI   PO4 9008   3.421   0.017  10.122 -0.1058  0.2326  0.0479
  565POPI   GL1 9009   3.278   0.093   9.710 -0.3273 -0.0977  0.2471
  565POPI   GL2 9010   2.857   0.025   9.587  0.0142  0.3171 -0.2976
  565POPI   C1A 9011   3.142   0.068   9.122 -0.1268 -0.0171  0.1422
  565POPI   D2A 9012   3.089   0.108   8.653 -0.0369  0.1718  0.0700
  565POPI   C3A 9013   3.516   0.090   8.437  0.3725  0.1693  0.3247
  565POPI   C4A 9014   3.922   0.244   8.377 -0.1434  0.0041  0.1486
  565POPI   C1B 9015   2.505   0.137   9.451 -0.2573  0.3424  0.0692
  565POPI   C2B 9016   2.361   0.400   9.234  0.1794 -0.1160  0.5417
  565POPI   C3B 9017   2.168   0.493   8.835  0.1393  0.1433 -0.0269
  565POPI   C4B 9018   2.083   0.555   8.403 -0.0702 -0.1105  0.1241
  566POPI    C1 9019   6.933   8.267  10.333 -0.1847  0.0150  0.0361
  566POPI    C2 9020   7.235   8.424  10.543 -0.2806  0.0421  0.1549
  566POPI    C3 9021   7.007   8.137  10.704 -0.1502 -0.1718 -0.0352
  566POPI   PO4 9022   7.085   8.260  10.090 -0.3011 -0.2590  0.2721
  566POPI   GL1 9023   7.406   8.062   9.841 -0.0114 -0.2008  0.0291
  566POPI   GL2 9024   7.148   8.135   9.654  0.1724  0.0169 -0.0762
  566POPI   C1A 9025   7.676   7.970   9.458  0.0742 -0.2465  0.2537
  566POPI   D2A 9026   7.925   8.307   9.317  0.0109 -0.2264 -0.0345
  566POPI   C3A 9027   7.747   8.283   8.897 -0.1323  0.1881  0.0287
  566POPI   C4A 9028   7.602   8.248   8.597 -0.1793  0.0780 -0.0771
  566POPI   C1B 9029   6.898   8.179   9.298 -0.1474 -0.4801 -0.0090
  566POPI   C2B 9030   6.595   8.103   9.018 -0.0265  0.0640 -0.0004
  566POPI   C3B 9031   6.512   8.102   8.534 -0.2388 -0.0368  0.0877
  566POPI   C4B 9032   6.351   8.134   8.127  0.1941  0.0076  0.0700
  567POPI    C1 9033  17.051  11.091  10.015  0.0738  0.0356  0.0672
  567POPI    C2 9034  16.875  10.822  10.254  0.0351 -0.1047 -0.1170
  567POPI    C3 9035  16.655  11.035   9.995  0.0773  0.0440 -0.0315
  567POPI   PO4 9036  17.367  10.972   9.943  0.2306  0.0358  0.1362
  567POPI   GL1 9037  17.539  10.892   9.595  0.0048  0.1130  0.2294
  567POPI   GL2 9038  17.779  11.163   9.521  0.1068  0.2375 -0.3873
  567POPI   C1A 9039  17.423  11.049   9.202  0.0448  0.1373  0.5131
  567POPI   D2A 9040  17.674  11.376   9.092 -0.1885  0.3253 -0.0037
  567POPI   C3A 9041  17.993  11.540   8.843  0.2051  0.3109 -0.0585
  567POPI   C4A 9042  18.243  11.926   8.595 -0.0706  0.0142 -0.0179
  567POPI   C1B 9043  18.145  11.220   9.400  0.0508 -0.0117  0.2154
  567POPI   C2B 9044  18.367  11.225   9.010 -0.1363 -0.1239  0.2143
  567POPI   C3B 9045  18.330  11.113   8.678  0.2731 -0.2342 -0.1095
  567POPI   C4B 9046  18.192  11.097   8.266  0.1055  0.1886  0.0168
  568POPI    C1 9047  12.101  11.998   9.652 -0.3547 -0.0206 -0.1714
  568POPI    C2 9048  11.952  12.353   9.763  0.1267  0.1902 -0.1770
  568POPI    C3 9049  12.137  12.314   9.410  0.3174  0.0037 -0.0592
  568POPI   PO4 9050  11.917  11.849   9.719  0.1672  0.1698 -0.0601
  568POPI   GL1 9051  11.587  11.655   9.386 -0.4079  0.0792  0.1322
  568POPI   GL2 9052  11.270  11.846   9.199 -0.1161  0.0366 -0.0919
  568POPI   C1A 9053  11.924  11.358   9.083 -0.0229 -0.2149  0.0790
  568POPI   D2A 9054  11.934  11.606   8.756  0.1510 -0.0256 -0.0564
  568POPI   C3A 9055  11.796  12.071   8.605  0.2104 -0.1013  0.2914
  568POPI   C4A 9056  11.933  12.253   8.218  0.0429 -0.0128 -0.1837
  568POPI   C1B 9057  11.437  11.698   8.869 -0.0324  0.1628 -0.1783
  568POPI   C2B 9058  11.531  11.719   8.496  0.2413 -0.0814  0.0270
  568POPI   C3B 9059  11.794  11.814   8.178 -0.1538 -0.1685 -0.0437
  568POPI   C4B 9060  11.789  12.006   7.756  0.1728 -0.0566 -0.3904
  569POPI    C1 9061  12.400  14.960  10.542  0.0690 -0.0722 -0.2837
  569POPI    C2 9062  12.670  14.940  10.836 -0.1068  0.1535 -0.1026
  569POPI    C3 9063  12.630  14.635  10.580  0.0336 -0.0550  0.1190
  569POPI   PO4 9064  12.424  15.204  10.382  0.0943  0.1943 -0.0308
  569POPI   GL1 9065  12.538  15.440  10.026 -0.1357  0.1204 -0.1407
  569POPI   GL2 9066  12.405  15.745  10.013  0.0798  0.1836 -0.2511
  569POPI   C1A 9067  12.461  15.607   9.529  0.2934 -0.1092 -0.1180
  569POPI   D2A 9068  12.512  15.827   9.239 -0.3664 -0.0069  0.0545
  569POPI   C3A 9069  12.763  16.146   9.027 -0.0029 -0.1531 -0.0957
  569POPI   C4A 9070  13.068  16.304   8.794 -0.1987  0.2987 -0.4050
  569POPI   C1B 9071  12.884  15.648   9.760  0.0562  0.1506 -0.0449
  569POPI   C2B 9072  12.940  15.363   9.348  0.0075 -0.1639 -0.0146
  569POPI   C3B 9073  12.787  15.361   9.026  0.0849 -0.0316 -0.0932
  569POPI   C4B 9074  12.598  15.642   8.777 -0.0276 -0.3071  0.0055
  570DPPI    C1 9075   6.592   6.718  10.728 -0.1565 -0.0602  0.0247
  570DPPI    C2 9076   6.725   6.943  11.031  0.1845 -0.1855 -0.0275
  570DPPI    C3 9077   6.404   6.710  11.081 -0.0293  0.1295  0.0990
  570DPPI   PO4 9078   6.532   6.780  10.575  0.1747 -0.0216 -0.1686
  570DPPI   GL1 9079   6.499   6.790  10.139 -0.2454 -0.1825 -0.2236
  570DPPI   GL2 9080   6.420   7.195  10.045  0.1732 -0.2267 -0.0457
  570DPPI   C1A 9081   6.397   6.737   9.631  0.1438 -0.3147 -0.1205
  570DPPI   C2A 9082   6.150   6.536   9.218  0.1559 -0.3121  0.5228
  570DPPI   C3A 9083   5.828   6.386   9.034 -0.1567  0.0933  0.2376
  570DPPI   C4A 9084   5.843   6.247   8.621  0.0279  0.1084 -0.0676
  570DPPI   C1B 9085   6.235   7.200   9.708 -0.1155  0.0451 -0.0325
  570DPPI   C2B 9086   6.376   7.074   9.294 -0.0811 -0.1579  0.0992
  570DPPI   C3B 9087   6.529   7.138   8.844  0.0889 -0.2079  0.0416
  570DPPI   C4B 9088   6.334   7.101   8.359  0.1737 -0.1109 -0.3083
  571DPPI    C1 9089   5.524   6.260  10.889  0.0225 -0.1432 -0.1029
  571DPPI    C2 9090   5.840   6.084  11.061  0.0118 -0.2236 -0.1653
  571DPPI    C3 9091   5.476   5.920  11.095 -0.0337 -0.0994 -0.0431
  571DPPI   PO4 9092   5.634   6.321  10.643  0.0071  0.0492 -0.2317
  571DPPI   GL1 9093   5.523   6.087  10.273  0.1175 -0.2671 -0.0236
  571DPPI   GL2 9094   5.864   6.107  10.083  0.1547 -0.2131 -0.2352
  571DPPI   C1A 9095   5.308   5.818  10.143  0.3048  0.2158  0.1811
  571DPPI   C2A 9096   4.833   6.038   9.946 -0.0202 -0.3258  0.0685
  571DPPI   C3A 9097   4.378   5.972   9.819  0.2253 -0.0906 -0.0064
  571DPPI   C4A 9098   4.176   5.882   9.498 -0.1457 -0.3701  0.3875
  571DPPI   C1B 9099   5.487   6.222   9.823 -0.0012 -0.3466 -0.0049
  571DPPI   C2B 9100   5.095   6.247   9.590  0.0636 -0.3287  0.0266
  571DPPI   C3B 9101   4.774   6.046   9.415  0.1669 -0.3190 -0.4676
  571DPPI   C4B 9102   4.429   6.073   9.102 -0.3806  0.1897 -0.0047
  572DPPI    C1 9103   7.072   0.643  10.590  0.1063  0.0042  0.1549
  572DPPI    C2 9104   7.470   0.626  10.551  0.1074  0.2609  0.0329
  572DPPI    C3 9105   7.306   0.863  10.829  0.0321  0.4552 -0.1739
  572DPPI   PO4 9106   7.040   0.610  10.296  0.3139 -0.1635 -0.2428
  572DPPI   GL1 9107   6.856   0.425   9.942 -0.1911  0.2138  0.2457
  572DPPI   GL2 9108   7.143   0.239   9.795  0.0171 -0.2130 -0.2648
  572DPPI   C1A 9109   6.936   0.583   9.499 -0.0756  0.1409 -0.5478
  572DPPI   C2A 9110   7.186   0.708   9.173 -0.0445 -0.1069 -0.1569
  572DPPI   C3A 9111   7.283   0.913   8.939  0.0809  0.1335  0.0144
  572DPPI   C4A 9112   7.414   0.997   8.540  0.5286  0.1381  0.0821
  572DPPI   C1B 9113   7.093   0.108   9.383 -0.0313 -0.2319 -0.3270
  572DPPI   C2B 9114   6.837   0.105   9.007  0.1814  0.0882  0.2726
  572DPPI   C3B 9115   6.767   0.237   8.684 -0.3307  0.4931  0.3476
  572DPPI   C4B 9116   6.656   0.330   8.279  0.0915 -0.4026  0.0753
  573DPPI    C1 9117   5.006   5.343  10.777  0.0207  0.0875  0.1643
  573DPPI    C2 9118   4.736   5.333  11.072 -0.1867  0.0870 -0.0229
  573DPPI    C3 9119   4.936   5.671  10.995 -0.2647  0.1389  0.0009
  573DPPI   PO4 9120   4.890   5.165  10.600  0.0023  0.1689 -0.3211
  573DPPI   GL1 9121   4.947   4.847  10.271  0.0435 -0.0860  0.0036
  573DPPI   GL2 9122   5.319   5.021  10.342  0.1646 -0.1087  0.0796
  573DPPI   C1A 9123   4.897   5.130   9.914 -0.1126  0.3937 -0.1180
  573DPPI   C2A 9124   5.046   5.596   9.723 -0.2122 -0.1227 -0.0390
  573DPPI   C3A 9125   5.219   5.843   9.326 -0.0946 -0.1643  0.1370
  573DPPI   C4A 9126   5.452   6.003   8.943  0.1631  0.1894  0.0727
  573DPPI   C1B 9127   5.384   5.143   9.945  0.0298  0.3204 -0.1639
  573DPPI   C2B 9128   5.435   5.342   9.661 -0.0731  0.1718  0.2262
  573DPPI   C3B 9129   5.568   5.727   9.705  0.4130 -0.3134 -0.1508
  573DPPI   C4B 9130   5.780   6.055   9.369  0.1487 -0.0650  0.2085
  574DPPI    C1 9131   2.731  14.966  10.799 -0.3233 -0.4407  0.0855
  574DPPI    C2 9132   2.409  15.103  10.994 -0.0942 -0.2219  0.3188
  574DPPI    C3 9133   2.713  14.941  11.198  0.1443 -0.0015  0.1444
  574DPPI   PO4 9134   2.756  15.113  10.496 -0.2892  0.2032 -0.0963
  574DPPI   GL1 9135   2.782  15.118  10.003 -0.1934  0.3048 -0.2250
  574DPPI   GL2 9136   2.616  15.177   9.762  0.2388  0.2276 -0.0123
  574DPPI   C1A 9137   2.969  14.847   9.578  0.2238 -0.1583  0.0772
  574DPPI   C2A 9138   3.201  14.499   9.372  0.1064 -0.0528 -0.1746
  574DPPI   C3A 9139   3.225  14.499   9.009 -0.1111  0.0720 -0.2756
  574DPPI   C4A 9140   3.211  14.271   8.713  0.0268 -0.0527 -0.1715
  574DPPI   C1B 9141   2.837  15.304   9.455 -0.1209 -0.0233 -0.0472
  574DPPI   C2B 9142   2.851  15.208   9.058  0.2217 -0.0904 -0.0017
  574DPPI   C3B 9143   2.977  14.878   8.767 -0.0678  0.0950 -0.0938
  574DPPI   C4B 9144   3.004  14.573   8.355 -0.5504 -0.1050 -0.2666
  575DPPI    C1 9145  16.527   2.180  10.906  0.1728 -0.0176  0.0739
  575DPPI    C2 9146  16.804   2.385  10.703  0.0159  0.1585  0.0352
  575DPPI    C3 9147  16.847   2.326  11.097  0.1068  0.1869  0.0299
  575DPPI   PO4 9148  16.542   1.951  10.758 -0.0111 -0.3127 -0.2285
  575DPPI   GL1 9149  16.386   1.878  10.405  0.1053  0.3393  0.1153
  575DPPI   GL2 9150  16.456   2.156  10.295 -0.2612  0.0861 -0.2940
  575DPPI   C1A 9151  16.108   1.723  10.058 -0.1649  0.1824 -0.0445
  575DPPI   C2A 9152  15.902   1.776   9.564  0.1798  0.1420  0.1448
  575DPPI   C3A 9153  15.888   1.809   9.106  0.3307 -0.1328 -0.0856
  575DPPI   C4A 9154  15.888   1.843   8.597  0.2069 -0.2854  0.2790
  575DPPI   C1B 9155  16.515   2.085   9.802 -0.3323 -0.3087 -0.0695
  575DPPI   C2B 9156  16.418   2.147   9.367 -0.4456 -0.3463  0.0526
  575DPPI   C3B 9157  16.340   2.076   9.028 -0.2024  0.0088 -0.3961
  575DPPI   C4B 9158  16.417   2.231   8.703 -0.1377  0.0107 -0.1587
  576DPPI    C1 9159   4.228   3.347  10.458 -0.2919  0.2116 -0.1958
  576DPPI    C2 9160   4.223   3.126  10.791  0.1626  0.0619 -0.2799
  576DPPI    C3 9161   3.967   3.431  10.748  0.0223  0.0117  0.1532
  576DPPI   PO4 9162   4.207   3.162  10.262  0.1440 -0.0288 -0.0513
  576DPPI   GL1 9163   4.562   3.164  10.031  0.2174 -0.0341 -0.1075
  576DPPI   GL2 9164   4.497   2.808  10.092 -0.0093  0.5646  0.0580
  576DPPI   C1A 9165   4.618   3.127   9.582  0.3157 -0.0693 -0.0023
  576DPPI   C2A 9166   4.301   3.202   9.284  0.3758  0.1804 -0.1477
  576DPPI   C3A 9167   4.087   3.343   8.904 -0.1195  0.1122 -0.4496
  576DPPI   C4A 9168   3.705   3.539   8.820  0.0031  0.0341  0.0071
  576DPPI   C1B 9169   4.545   2.620   9.695  0.1940  0.0482 -0.1476
  576DPPI   C2B 9170   4.508   2.738   9.219  0.2706  0.2053 -0.1613
  576DPPI   C3B 9171   4.138   2.805   8.832  0.1264 -0.2245  0.1689
  576DPPI   C4B 9172   3.866   3.129   8.552  0.2052  0.0137 -0.0578
  577DPPI    C1 9173  13.090  14.127  10.143 -0.1833 -0.2049 -0.1691
  577DPPI    C2 9174  12.761  14.351  10.184  0.0208  0.0746 -0.0316
  577DPPI    C3 9175  12.926  14.176  10.504 -0.2215 -0.4027 -0.1582
  577DPPI   PO4 9176  13.297  14.205  10.074 -0.3026 -0.1941  0.2467
  577DPPI   GL1 9177  13.341  14.474   9.745  0.0713  0.1946  0.1891
  577DPPI   GL2 9178  13.273  14.700   9.832 -0.6910 -0.1373  0.1437
  577DPPI   C1A 9179  13.223  14.455   9.308 -0.3118  0.2440 -0.0381
  577DPPI   C2A 9180  13.340  14.655   8.906 -0.0704  0.0210 -0.0206
  577DPPI   C3A 9181  13.459  14.879   8.626  0.1719  0.2136  0.2201
  577DPPI   C4A 9182  13.430  15.071   8.276 -0.0236 -0.2504 -0.2524
  577DPPI   C1B 9183  13.243  14.952   9.414  0.2267  0.1904  0.1615
  577DPPI   C2B 9184  13.269  15.272   9.011 -0.3325  0.1882  0.0302
  577DPPI   C3B 9185  13.449  15.512   8.599  0.0280 -0.2458  0.1080
  577DPPI   C4B 9186  13.425  15.639   8.169  0.1470 -0.3230  0.0688
  578DPPI    C1 9187   0.784   5.295  10.210 -0.2036  0.1859 -0.0796
  578DPPI    C2 9188   0.914   5.436  10.561 -0.0439  0.1188 -0.1111
  578DPPI    C3 9189   0.632   5.153  10.551 -0.0004  0.0723 -0.0346
  578DPPI   PO4 9190   1.025   5.297  10.102  0.0180  0.3029 -0.1189
  578DPPI   GL1 9191   1.384   5.427   9.773  0.1076  0.0384  0.1196
  578DPPI   GL2 9192   1.520   5.665   9.883 -0.0098 -0.2601  0.0444
  578DPPI   C1A 9193   1.646   5.382   9.454  0.1103 -0.1405  0.1030
  578DPPI   C2A 9194   1.820   5.479   9.127 -0.3160 -0.1011  0.0990
  578DPPI   C3A 9195   2.079   5.112   9.072 -0.1149 -0.2930 -0.1656
  578DPPI   C4A 9196   1.992   4.721   9.340 -0.0822 -0.0187 -0.0423
  578DPPI   C1B 9197   1.182   5.736   9.461 -0.2956  0.0159  0.2942
  578DPPI   C2B 9198   1.129   5.699   9.096 -0.1418  0.1229 -0.0988
  578DPPI   C3B 9199   1.139   5.680   8.700 -0.0510  0.0140 -0.1014
  578DPPI   C4B 9200   1.059   5.508   8.268  0.0496  0.0429 -0.2140
  579PYPI    C1 9201   8.319  10.246  10.194  0.1411  0.0049 -0.1855
  579PYPI    C2 9202   8.283  10.607  10.362 -0.0105 -0.1578  0.1398
  579PYPI    C3 9203   8.205  10.559   9.973 -0.1684  0.1246  0.1345
  579PYPI   PO4 9204   8.537  10.170  10.162  0.4335 -0.0445 -0.0284
  579PYPI   GL1 9205   8.828  10.083   9.784  0.1076  0.1554 -0.2638
  579PYPI   GL2 9206   8.697  10.450   9.770  0.0837 -0.1575  0.2311
  579PYPI   C1A 9207   9.127   9.721   9.628 -0.2874  0.0723  0.4073
  579PYPI   C2A 9208   9.276   9.527   9.217  0.2053 -0.0004 -0.5542
  579PYPI   D3A 9209   9.074   9.461   8.878  0.1853 -0.2249 -0.0527
  579PYPI   C4A 9210   8.598   9.382   8.789 -0.2324 -0.1571  0.0750
  579PYPI   C1B 9211   8.600  10.355   9.417 -0.0807  0.0338 -0.0490
  579PYPI   C2B 9212   8.401  10.238   9.122  0.1090 -0.1770 -0.0201
  579PYPI   C3B 9213   8.249   9.786   8.936  0.1699  0.1391  0.1119
  579PYPI   C4B 9214   8.070   9.624   8.516 -0.0250  0.4383 -0.3705
  580PYPI    C1 9215   3.217  17.718  10.157  0.1943 -0.1180 -0.1149
  580PYPI    C2 9216   2.893  17.876  10.331  0.1904 -0.1134 -0.1264
  580PYPI    C3 9217   3.152  17.661  10.547  0.2754  0.0362 -0.0783
  580PYPI   PO4 9218   3.193  17.586   9.962 -0.0494 -0.0723 -0.1005
  580PYPI   GL1 9219   3.359  17.461   9.516 -0.0440 -0.3028  0.1067
  580PYPI   GL2 9220   3.014  17.516   9.484  0.0702 -0.0922  0.1883
  580PYPI   C1A 9221   3.170  17.248   9.124 -0.1823  0.0234  0.0603
  580PYPI   C2A 9222   3.143  17.156   8.619 -0.2237  0.2702  0.1663
  580PYPI   D3A 9223   3.193  16.779   8.292  0.0904 -0.0148  0.0835
  580PYPI   C4A 9224   3.091  17.089   7.959  0.2365  0.1805  0.0336
  580PYPI   C1B 9225   2.787  17.880   9.212  0.2062 -0.1967 -0.0623
  580PYPI   C2B 9226   2.439  17.801   8.946  0.4344 -0.2613  0.2214
  580PYPI   C3B 9227   2.147  17.563   8.694  0.0123 -0.4368 -0.1535
  580PYPI   C4B 9228   2.307  17.405   8.328 -0.0697 -0.1247 -0.0122
  581PYPI    C1 9229   5.815   5.475  10.879  0.0067 -0.1879  0.0083
  581PYPI    C2 9230   6.124   5.615  11.091 -0.0200  0.0084 -0.0799
  581PYPI    C3 9231   5.789   5.499  11.277  0.0900 -0.1655  0.0125
  581PYPI   PO4 9232   5.929   5.342  10.730 -0.0037 -0.2516 -0.1005
  581PYPI   GL1 9233   5.876   5.147  10.300 -0.1433  0.2206 -0.1062
  581PYPI   GL2 9234   5.912   4.835  10.137  0.1411 -0.1039  0.4074
  581PYPI   C1A 9235   5.948   5.271   9.862  0.0221  0.2212 -0.3508
  581PYPI   C2A 9236   5.782   5.059   9.478 -0.2291 -0.0025 -0.0283
  581PYPI   D3A 9237   5.701   5.088   9.046 -0.1726  0.0801 -0.2385
  581PYPI   C4A 9238   6.046   5.296   8.931  0.1769 -0.2013 -0.1979
  581PYPI   C1B 9239   5.850   4.630   9.716 -0.2861  0.6555  0.1232
  581PYPI   C2B 9240   5.743   4.600   9.314 -0.2651  0.2271  0.1310
  581PYPI   C3B 9241   5.653   4.638   8.820 -0.3522 -0.2348 -0.1903
  581PYPI   C4B 9242   5.704   4.689   8.416 -0.2725 -0.2394  0.1518
  582PYPI    C1 9243  11.872  10.906   9.949  0.0838 -0.0708 -0.0422
  582PYPI    C2 9244  11.885  10.579  10.179  0.0784 -0.0923 -0.0724
  582PYPI    C3 9245  12.121  10.891  10.262  0.1745 -0.1523 -0.1179
  582PYPI   PO4 9246  11.600  10.900   9.880 -0.1642 -0.0018 -0.0851
  582PYPI   GL1 9247  11.356  10.737   9.517 -0.0931 -0.0499  0.1584
  582PYPI   GL2 9248  11.683  10.758   9.345  0.1405  0.2997  0.0976
  582PYPI   C1A 9249  11.318  10.493   9.138  0.0902 -0.0280  0.2054
  582PYPI   C2A 9250  11.517  10.222   8.960  0.0905  0.1596  0.1591
  582PYPI   D3A 9251  11.573   9.728   8.748  0.2492  0.2759 -0.2438
  582PYPI   C4A 9252  11.697   9.610   8.352  0.0866 -0.1215 -0.0543
  582PYPI   C1B 9253  11.632  10.784   8.965 -0.2882 -0.0187 -0.0501
  582PYPI   C2B 9254  11.617  10.617   8.529 -0.0354 -0.5889 -0.0088
  582PYPI   C3B 9255  11.735  10.420   8.196  0.1904 -0.1594  0.4142
  582PYPI   C4B 9256  11.622  10.402   7.664 -0.1718  0.0028  0.0639
  583PYPI    C1 9257   7.066  12.044   9.907  0.0281 -0.1018 -0.0633
  583PYPI    C2 9258   7.404  11.853  10.003  0.0269 -0.1137 -0.0827
  583PYPI    C3 9259   7.205  12.059  10.282  0.0252 -0.1454 -0.0605
  583PYPI   PO4 9260   7.170  12.263   9.675  0.2402  0.0248 -0.2191
  583PYPI   GL1 9261   7.106  12.372   9.278 -0.0889 -0.0482 -0.4877
  583PYPI   GL2 9262   7.378  12.182   9.100  0.1674  0.0848 -0.0453
  583PYPI   C1A 9263   7.004  12.401   8.859 -0.0640  0.1313 -0.2925
  583PYPI   C2A 9264   7.105  12.368   8.449 -0.1146 -0.4550  0.0260
  583PYPI   D3A 9265   6.948  12.452   7.957 -0.0335 -0.1646 -0.2509
  583PYPI   C4A 9266   7.134  12.656   7.662 -0.2480 -0.0861  0.1468
  583PYPI   C1B 9267   7.495  12.179   8.705 -0.0289 -0.1871  0.0641
  583PYPI   C2B 9268   7.499  12.156   8.255  0.0662  0.0795 -0.2160
  583PYPI   C3B 9269   7.491  12.314   7.845 -0.1053 -0.1757  0.2081
  583PYPI   C4B 9270   7.617  12.368   7.396 -0.1395 -0.0023 -0.1809
  584PYPI    C1 9271  12.632   8.574  10.446 -0.0963 -0.0702  0.0813
  584PYPI    C2 9272  12.672   8.969  10.490  0.0588 -0.0766  0.0052
  584PYPI    C3 9273  12.308   8.807  10.459 -0.0015  0.0728 -0.0784
  584PYPI   PO4 9274  12.746   8.524  10.250 -0.0003  0.2064  0.2947
  584PYPI   GL1 9275  12.722   8.320   9.930  0.2838  0.1377 -0.1329
  584PYPI   GL2 9276  12.797   8.031   9.726  0.2374 -0.1950  0.0379
  584PYPI   C1A 9277  12.627   8.353   9.425 -0.0462 -0.1921 -0.0228
  584PYPI   C2A 9278  12.646   8.304   9.004 -0.1633  0.4305  0.0133
  584PYPI   D3A 9279  12.766   8.365   8.600 -0.2096  0.1440 -0.2947
  584PYPI   C4A 9280  12.838   8.038   8.295  0.2135  0.4406 -0.1716
  584PYPI   C1B 9281  12.924   7.927   9.329 -0.2098 -0.0452 -0.0144
  584PYPI   C2B 9282  13.070   8.008   8.895 -0.3362 -0.3168  0.0587
  584PYPI   C3B 9283  13.246   7.891   8.554  0.0074  0.3328 -0.1366
  584PYPI   C4B 9284  13.169   7.660   8.224 -0.4087  0.0697  0.1767
  585ERGO   ROH 9285  14.719   8.303   9.148  0.0581  0.0311  0.0338
  585ERGO    R1 9286  14.568   8.373   8.919  0.1051  0.0288  0.0034
  585ERGO    R2 9287  14.651   8.313   8.662  0.1366 -0.0076  0.0281
  585ERGO    R3 9288  14.406   8.197   8.645  0.1214  0.0268 -0.0074
  585ERGO    R4 9289  14.459   8.298   8.375  0.2182 -0.0510 -0.0255
  585ERGO    R5 9290  14.283   8.339   8.496  0.1873  0.0117 -0.0826
  585ERGO    C1 9291  14.117   8.180   8.192  0.2517 -0.0439 -0.0900
  585ERGO    C2 9292  14.000   8.005   7.933 -0.1033 -0.2019  0.0915
  586ERGO   ROH 9293   6.805   2.064   9.865 -0.1928 -0.1671 -0.0931
  586ERGO    R1 9294   6.827   2.108   9.586 -0.1345 -0.1032 -0.0790
  586ERGO    R2 9295   6.711   2.324   9.460  0.0567  0.0319 -0.0254
  586ERGO    R3 9296   6.963   2.365   9.368  0.0995 -0.1523  0.0061
  586ERGO    R4 9297   6.791   2.402   9.133  0.1111  0.3572  0.0616
  586ERGO    R5 9298   6.963   2.268   9.149 -0.0434  0.1250 -0.1235
  586ERGO    C1 9299   7.076   2.485   8.856  0.1829  0.3737  0.1419
  586ERGO    C2 9300   7.280   2.502   8.412 -0.0136 -0.1016  0.0190
  587ERGO   ROH 9301   4.578   1.518   9.818 -0.2760 -0.0029  0.1827
  587ERGO    R1 9302   4.412   1.523   9.589 -0.1023 -0.4035  0.0395
  587ERGO    R2 9303   4.385   1.747   9.430 -0.7130 -0.3603  0.1892
  587ERGO    R3 9304   4.456   1.575   9.232  0.0522  0.0022  0.1099
  587ERGO    R4 9305   4.313   1.791   9.094 -0.7515 -0.4212  0.1886
  587ERGO    R5 9306   4.270   1.578   9.081  0.0700 -0.6217  0.0396
  587ERGO    C1 9307   4.338   1.655   8.713 -0.0554 -0.1163  0.1139
  587ERGO    C2 9308   4.136   1.750   8.372  0.0913  0.4161 -0.2785
  588ERGO   ROH 9309   4.160  11.414   8.915  0.2403 -0.0645 -0.1430
  588ERGO    R1 9310   4.134  11.259   8.680  0.2919 -0.0012 -0.1902
  588ERGO    R2 9311   3.970  11.333   8.470  0.1657 -0.0586 -0.1108
  588ERGO    R3 9312   4.198  11.306   8.324  0.1426  0.1777 -0.1955
  588ERGO    R4 9313   3.985  11.335   8.125  0.0184 -0.1345 -0.1186
  588ERGO    R5 9314   4.133  11.175   8.135  0.2207  0.0432 -0.1322
  588ERGO    C1 9315   4.208  11.311   7.787 -0.0892  0.0430 -0.2026
  588ERGO    C2 9316   4.127  11.184   7.446 -0.1162  0.0853  0.3818
  589ERGO   ROH 9317  15.457   2.281  10.406 -0.0826 -0.2076 -0.0388
  589ERGO    R1 9318  15.429   2.167  10.149  0.0740 -0.1991 -0.0613
  589ERGO    R2 9319  15.277   2.283   9.949 -0.1318 -0.3903 -0.0254
  589ERGO    R3 9320  15.507   2.262   9.806 -0.1044  0.0021 -0.0468
  589ERGO    R4 9321  15.300   2.151   9.631  0.0661 -0.3240 -0.0391
  589ERGO    R5 9322  15.486   2.054   9.690  0.2328 -0.0237 -0.0652
  589ERGO    C1 9323  15.529   2.055   9.311  0.2071  0.0829 -0.0672
  589ERGO    C2 9324  15.553   2.151   8.922  0.0865 -0.1690  0.0828
  590ERGO   ROH 9325   8.707  11.371   9.306 -0.0534 -0.4076 -0.1711
  590ERGO    R1 9326   8.713  11.304   9.031 -0.0440 -0.1409 -0.2393
  590ERGO    R2 9327   8.599  11.463   8.836 -0.0052  0.0689 -0.0949
  590ERGO    R3 9328   8.847  11.450   8.726  0.0010  0.1383 -0.0889
  590ERGO    R4 9329   8.664  11.456   8.497  0.0031  0.0272 -0.0925
  590ERGO    R5 9330   8.820  11.308   8.534  0.0563  0.0917 -0.0620
  590ERGO    C1 9331   8.934  11.441   8.195  0.0141  0.0682 -0.0854
  590ERGO    C2 9332   8.978  11.359   7.830  0.0921  0.1912 -0.0181
  591ERGO   ROH 9333  13.150   4.649   7.036 -0.1629 -0.2232 -0.0978
  591ERGO    R1 9334  13.140   4.741   7.304 -0.2712 -0.2202 -0.1022
  591ERGO    R2 9335  13.179   4.573   7.520 -0.1585 -0.1811 -0.0901
  591ERGO    R3 9336  13.368   4.756   7.587 -0.3164 -0.0206 -0.0753
  591ERGO    R4 9337  13.375   4.560   7.804 -0.1082 -0.0639 -0.1195
  591ERGO    R5 9338  13.352   4.776   7.825 -0.3034 -0.0887 -0.0690
  591ERGO    C1 9339  13.668   4.725   8.032 -0.2272  0.1549 -0.1227
  591ERGO    C2 9340  13.912   4.684   8.293  0.1374  0.1596  0.1370
  592ERGO   ROH 9341  17.106  14.994   9.719 -0.1726 -0.0139  0.1341
  592ERGO    R1 9342  17.129  15.099   9.457 -0.0891 -0.1889  0.0709
  592ERGO    R2 9343  17.168  14.938   9.235 -0.3428 -0.3664  0.1583
  592ERGO    R3 9344  16.947  15.067   9.143 -0.1968 -0.1272  0.1227
  592ERGO    R4 9345  17.087  14.978   8.901 -0.2875 -0.3911  0.1410
  592ERGO    R5 9346  17.021  15.181   8.946 -0.0472 -0.2818  0.0765
  592ERGO    C1 9347  16.831  15.122   8.621 -0.1183 -0.1810  0.0974
  592ERGO    C2 9348  16.851  15.095   8.354 -0.1879  0.1649 -0.0040
  593ERGO   ROH 9349   2.396   7.391   9.824  0.1085 -0.1593 -0.2024
  593ERGO    R1 9350   2.175   7.433   9.653  0.0843 -0.1586 -0.1710
  593ERGO    R2 9351   2.094   7.685   9.573 -0.0855 -0.1401  0.0490
  593ERGO    R3 9352   2.119   7.579   9.324 -0.0045  0.0952 -0.0456
  593ERGO    R4 9353   1.879   7.747   9.310 -0.1523 -0.0990  0.1130
  593ERGO    R5 9354   1.893   7.537   9.255  0.0279 -0.0413 -0.0698
  593ERGO    C1 9355   1.777   7.685   8.923 -0.1152  0.1458  0.0614
  593ERGO    C2 9356   1.694   7.686   8.534  0.1590 -0.2977 -0.0110
  594ERGO   ROH 9357  10.563  12.951   8.979  0.1392 -0.0385  0.0712
  594ERGO    R1 9358  10.592  12.902   8.702  0.2296 -0.0103  0.0752
  594ERGO    R2 9359  10.460  13.052   8.510  0.0161 -0.2118  0.0602
  594ERGO    R3 9360  10.712  13.087   8.412 -0.0244  0.1580  0.0738
  594ERGO    R4 9361  10.536  13.142   8.185 -0.1025  0.0579  0.1046
  594ERGO    R5 9362  10.701  13.001   8.189  0.0797  0.2609  0.0268
  594ERGO    C1 9363  10.815  13.227   7.904 -0.2097  0.5620  0.1432
  594ERGO    C2 9364  10.859  13.183   7.560  0.1348 -0.1842  0.2529
  595ERGO   ROH 9365  14.050   2.882  10.421  0.0839 -0.2585 -0.1051
  595ERGO    R1 9366  14.096   2.759  10.170 -0.1903 -0.2037 -0.1867
  595ERGO    R2 9367  13.890   2.697   9.995 -0.3538  0.2238 -0.1706
  595ERGO    R3 9368  14.040   2.843   9.821 -0.1585  0.0820 -0.1229
  595ERGO    R4 9369  13.858   2.689   9.651 -0.1477  0.1683 -0.1885
  595ERGO    R5 9370  14.075   2.697   9.635 -0.1411  0.0233 -0.0646
  595ERGO    C1 9371  13.980   2.820   9.287  0.1556  0.0030 -0.1542
  595ERGO    C2 9372  13.745   2.740   9.027 -0.0940 -0.0191  0.1098
  596ERGO   ROH 9373  10.024   4.516  10.494 -0.4295  0.1339  0.0725
  596ERGO    R1 9374   9.890   4.550  10.247 -0.1404  0.1903 -0.0802
  596ERGO    R2 9375  10.025   4.566  10.007  0.1245 -0.1058  0.0421
  596ERGO    R3 9376   9.857   4.364   9.937 -0.0760  0.0785 -0.0205
  596ERGO    R4 9377   9.968   4.460   9.682  0.4088 -0.2747  0.0435
  596ERGO    R5 9378   9.756   4.438   9.732  0.3027  0.0691 -0.2187
  596ERGO    C1 9379   9.777   4.209   9.428  0.3863 -0.2000 -0.0144
  596ERGO    C2 9380   9.699   4.120   9.047 -0.0252  0.0863  0.0356
  597ERGO   ROH 9381   0.629   4.087   9.860  0.1173 -0.1058 -0.1372
  597ERGO    R1 9382   0.583   4.038   9.586  0.0679 -0.2307 -0.1073
  597ERGO    R2 9383   0.551   3.784   9.484 -0.2647 -0.2621  0.0624
  597ERGO    R3 9384   0.320   3.887   9.384 -0.1248 -0.0195 -0.0179
  597ERGO    R4 9385   0.439   3.741   9.159 -0.2135 -0.1729  0.0330
  597ERGO    R5 9386   0.375   3.950   9.160  0.0122 -0.1005 -0.0080
  597ERGO    C1 9387   0.158   3.814   8.877 -0.0524  0.1068 -0.0595
  597ERGO    C2 9388   0.137   3.542   8.623 -0.1709  0.4500  0.1947
  598ERGO   ROH 9389  11.431   6.393  10.349  0.0634  0.0877 -0.0526
  598ERGO    R1 9390  11.345   6.431  10.081  0.0510 -0.0890 -0.0735
  598ERGO    R2 9391  11.522   6.466   9.872  0.0367 -0.1940 -0.0960
  598ERGO    R3 9392  11.385   6.258   9.764  0.0633 -0.2780  0.0274
  598ERGO    R4 9393  11.488   6.408   9.533 -0.3675 -0.1076 -0.0762
  598ERGO    R5 9394  11.280   6.351   9.569 -0.2814 -0.2960  0.1913
  598ERGO    C1 9395  11.340   6.179   9.234 -0.5779 -0.1361  0.0513
  598ERGO    C2 9396  11.223   6.408   8.885 -0.0177 -0.1588  0.1182
  599ERGO   ROH 9397   8.156   1.009  10.134 -0.0363 -0.0276 -0.0375
  599ERGO    R1 9398   8.253   0.881   9.901 -0.0485  0.0012 -0.0592
  599ERGO    R2 9399   8.198   0.616   9.843  0.0266 -0.0204 -0.0424
  599ERGO    R3 9400   8.109   0.720   9.609 -0.0657 -0.0519 -0.0210
  599ERGO    R4 9401   8.182   0.443   9.544 -0.0258 -0.0365 -0.0300
  599ERGO    R5 9402   8.251   0.623   9.442 -0.0957 -0.0279 -0.0589
  599ERGO    C1 9403   8.089   0.440   9.150 -0.1429 -0.0754 -0.0025
  599ERGO    C2 9404   8.034   0.432   8.716 -0.0666 -0.0474 -0.0277
  600ERGO   ROH 9405  11.314  13.527   9.433 -0.2321  0.0818 -0.0714
  600ERGO    R1 9406  11.468  13.588   9.203 -0.0313  0.1615  0.0797
  600ERGO    R2 9407  11.448  13.444   8.968  0.3232  0.1081  0.0677
  600ERGO    R3 9408  11.401  13.689   8.860  0.2504  0.0612 -0.0044
  600ERGO    R4 9409  11.435  13.513   8.629  0.0974 -0.0162  0.0504
  600ERGO    R5 9410  11.543  13.698   8.667  0.1158 -0.0069 -0.0988
  600ERGO    C1 9411  11.384  13.783   8.331 -0.1025 -0.1326 -0.0275
  600ERGO    C2 9412  11.510  13.703   8.055 -0.0737  0.0737 -0.1465
  601ERGO   ROH 9413   9.892   5.623  10.128  0.1266  0.3283 -0.0482
  601ERGO    R1 9414   9.791   5.605   9.864  0.1686  0.2520 -0.0599
  601ERGO    R2 9415   9.957   5.595   9.643  0.2133 -0.0130 -0.0241
  601ERGO    R3 9416   9.816   5.369   9.588  0.0422  0.0646  0.0879
  601ERGO    R4 9417   9.873   5.486   9.326 -0.0711  0.0022  0.0433
  601ERGO    R5 9418   9.677   5.428   9.402 -0.0504  0.1244  0.1794
  601ERGO    C1 9419   9.693   5.210   9.090 -0.3973  0.0837  0.1876
  601ERGO    C2 9420   9.899   5.007   8.760  0.1091  0.1078 -0.1424
  602ERGO   ROH 9421  16.978  15.932   9.642  0.0299 -0.2094 -0.1472
  602ERGO    R1 9422  17.076  16.094   9.432 -0.1700  0.0047 -0.0796
  602ERGO    R2 9423  17.217  15.990   9.218  0.0599  0.2832 -0.0669
  602ERGO    R3 9424  17.026  16.118   9.072 -0.1089  0.0146 -0.0882
  602ERGO    R4 9425  17.215  16.013   8.873 -0.0283  0.1266 -0.0777
  602ERGO    R5 9426  17.147  16.220   8.892 -0.2492  0.0673 -0.1566
  602ERGO    C1 9427  17.034  16.146   8.535 -0.2381 -0.2165 -0.1040
  602ERGO    C2 9428  17.007  16.054   8.118  0.1982  0.0390 -0.2424
  603ERGO   ROH 9429   6.750  11.975   8.868  0.2001  0.0746  0.0066
  603ERGO    R1 9430   6.900  11.965   8.628  0.0879 -0.0502 -0.0587
  603ERGO    R2 9431   6.880  11.754   8.450 -0.1940 -0.0156 -0.0684
  603ERGO    R3 9432   6.827  11.953   8.272 -0.0757  0.0520 -0.0308
  603ERGO    R4 9433   7.005  11.771   8.128 -0.2676 -0.0957 -0.1020
  603ERGO    R5 9434   7.033  11.986   8.155 -0.0747 -0.1159 -0.0852
  603ERGO    C1 9435   7.028  11.968   7.774 -0.1995 -0.0791 -0.0862
  603ERGO    C2 9436   7.124  12.214   7.491  0.0739  0.1126  0.2279
  604ERGO   ROH 9437  16.753   2.627  10.228 -0.1386 -0.0601 -0.0918
  604ERGO    R1 9438  16.554   2.664  10.029 -0.1031 -0.0236 -0.1215
  604ERGO    R2 9439  16.598   2.814   9.801 -0.0265 -0.0680 -0.1391
  604ERGO    R3 9440  16.517   2.587   9.675 -0.0826 -0.0610 -0.1150
  604ERGO    R4 9441  16.493   2.799   9.472  0.0036 -0.0866 -0.1474
  604ERGO    R5 9442  16.337   2.659   9.534 -0.0444 -0.0283 -0.1447
  604ERGO    C1 9443  16.356   2.577   9.162 -0.0315 -0.0908 -0.1297
  604ERGO    C2 9444  16.399   2.681   8.857  0.1062  0.0300 -0.1412
  605ERGO   ROH 9445  11.732   7.311  10.327  0.2919  0.0583  0.1819
  605ERGO    R1 9446  11.663   7.417  10.074  0.2643  0.2241  0.2577
  605ERGO    R2 9447  11.851   7.471   9.879  0.2012 -0.0656  0.1147
  605ERGO    R3 9448  11.691   7.312   9.727 -0.2018  0.2338  0.2101
  605ERGO    R4 9449  11.791   7.517   9.542  0.3932 -0.1525  0.0678
  605ERGO    R5 9450  11.582   7.465   9.577  0.2280  0.4266  0.0749
  605ERGO    C1 9451  11.606   7.395   9.202  0.1265  0.0779  0.1300
  605ERGO    C2 9452  11.621   7.306   8.939 -0.3202 -0.0319 -0.0050
  606ERGO   ROH 9453  14.503  11.078   8.862  0.1723  0.3183  0.0412
  606ERGO    R1 9454  14.475  11.264   8.650  0.1007  0.1998 -0.0553
  606ERGO    R2 9455  14.553  11.208   8.391  0.1349  0.1020 -0.0246
  606ERGO    R3 9456  14.297  11.279   8.333  0.1068 -0.0372 -0.0718
  606ERGO    R4 9457  14.459  11.399   8.120  0.0943  0.1070 -0.0060
  606ERGO    R5 9458  14.316  11.502   8.248 -0.0010 -0.0057 -0.0170
  606ERGO    C1 9459  14.163  11.578   7.907  0.0442 -0.0208 -0.0395
  606ERGO    C2 9460  14.141  11.613   7.595  0.4364 -0.0779 -0.0705
  607ERGO   ROH 9461   2.345  16.619   9.541  0.0296  0.0001  0.1767
  607ERGO    R1 9462   2.213  16.826   9.400  0.0779  0.0366  0.1841
  607ERGO    R2 9463   2.341  16.981   9.210  0.1078 -0.0057  0.1639
  607ERGO    R3 9464   2.134  16.900   9.053  0.0668  0.0476  0.1903
  607ERGO    R4 9465   2.251  17.126   8.909  0.3303 -0.2192 -0.0094
  607ERGO    R5 9466   2.042  17.102   8.965  0.2934  0.0509 -0.0406
  607ERGO    C1 9467   2.005  17.134   8.587  0.4213 -0.2936 -0.0857
  607ERGO    C2 9468   1.781  17.362   8.411  0.1470 -0.1372 -0.2430
  608ERGO   ROH 9469   9.067   8.175  10.027 -0.0824  0.2631  0.0137
  608ERGO    R1 9470   9.202   8.233   9.786 -0.0620  0.1389 -0.0060
  608ERGO    R2 9471   9.393   8.065   9.678  0.0391  0.1409  0.1603
  608ERGO    R3 9472   9.235   8.080   9.457  0.0722 -0.1029  0.1184
  608ERGO    R4 9473   9.507   8.044   9.352  0.1210  0.0700  0.1935
  608ERGO    R5 9474   9.366   8.202   9.299  0.0010 -0.0749  0.0836
  608ERGO    C1 9475   9.425   8.046   8.955  0.1998 -0.2001  0.1735
  608ERGO    C2 9476   9.589   7.840   8.684 -0.2137 -0.0456  0.0521
  609ERGO   ROH 9477   1.473   8.998   9.259  0.0952 -0.0849  0.0181
  609ERGO    R1 9478   1.533   9.174   9.045 -0.1110 -0.0473 -0.0113
  609ERGO    R2 9479   1.754   9.141   8.882 -0.0757  0.1773 -0.0144
  609ERGO    R3 9480   1.568   9.149   8.684 -0.0955 -0.0638 -0.0084
  609ERGO    R4 9481   1.822   9.101   8.546 -0.0113  0.3967 -0.0289
  609ERGO    R5 9482   1.679   9.260   8.503 -0.2761  0.1797  0.0248
  609ERGO    C1 9483   1.687   9.085   8.164  0.0077  0.2981 -0.0317
  609ERGO    C2 9484   1.655   9.027   7.828  0.1449  0.3213 -0.3278
  610ERGO   ROH 9485   0.390  12.475   9.505  0.1841 -0.0334 -0.2931
  610ERGO    R1 9486   0.246  12.637   9.323  0.1349  0.0339 -0.1954
  610ERGO    R2 9487   0.230  12.579   9.053 -0.0242  0.0750 -0.1964
  610ERGO    R3 9488  -0.038  12.594   9.099  0.0038  0.1469 -0.0525
  610ERGO    R4 9489  -0.000  12.719   8.836 -0.1255 -0.0221 -0.1521
  610ERGO    R5 9490  -0.102  12.806   9.008 -0.0128  0.1011 -0.1476
  610ERGO    C1 9491  -0.385  12.814   8.753 -0.1584 -0.0112  0.0087
  610ERGO    C2 9492  -0.528  12.906   8.460  0.1515  0.0883 -0.1573
  611ERGO   ROH 9493  12.544  12.434   8.771  0.4274  0.1588 -0.1039
  611ERGO    R1 9494  12.427  12.383   8.518  0.1997  0.0047  0.0288
  611ERGO    R2 9495  12.468  12.547   8.300 -0.1347 -0.0329 -0.0653
  611ERGO    R3 9496  12.546  12.316   8.181 -0.1020 -0.0157 -0.0770
  611ERGO    R4 9497  12.434  12.477   7.963  0.1451  0.1057 -0.1245
  611ERGO    R5 9498  12.378  12.274   8.016  0.0288  0.1015 -0.2474
  611ERGO    C1 9499  12.489  12.219   7.655  0.3388  0.2027 -0.1699
  611ERGO    C2 9500  12.503  12.291   7.345 -0.2709 -0.1474 -0.0342
  612ERGO   ROH 9501   0.527   8.712   9.381  0.0969  0.0111  0.0639
  612ERGO    R1 9502   0.712   8.516   9.296  0.1121  0.0065  0.1054
  612ERGO    R2 9503   0.639   8.256   9.239  0.1313 -0.0137  0.1601
  612ERGO    R3 9504   0.760   8.308   9.002  0.1260 -0.0516  0.1495
  612ERGO    R4 9505   0.655   8.036   8.973 -0.1370  0.0595  0.0810
  612ERGO    R5 9506   0.860   8.099   8.939 -0.0854 -0.1253  0.0555
  612ERGO    C1 9507   0.778   7.956   8.595 -0.2982  0.0664  0.0250
  612ERGO    C2 9508   0.599   8.056   8.310  0.0742  0.2292  0.1446
  613ERGO   ROH 9509   1.977   2.465   9.877 -0.2032  0.0685  0.0014
  613ERGO    R1 9510   2.024   2.458   9.598 -0.3282  0.3175 -0.0273
  613ERGO    R2 9511   2.047   2.222   9.457  0.2620  0.4294 -0.1326
  613ERGO    R3 9512   1.851   2.331   9.304 -0.1384 -0.0509  0.0128
  613ERGO    R4 9513   1.989   2.143   9.125  0.5118  0.5853 -0.2175
  613ERGO    R5 9514   1.950   2.354   9.087 -0.2115  0.5302  0.0218
  613ERGO    C1 9515   1.770   2.199   8.789  0.2814  0.2252 -0.1305
  613ERGO    C2 9516   1.555   2.079   8.590  0.3048 -0.2001  0.0273
  614ERGO   ROH 9517  12.424   1.664  10.240 -0.3089  0.3061  0.1354
  614ERGO    R1 9518  12.525   1.849  10.051 -0.0484  0.1311  0.0991
  614ERGO    R2 9519  12.723   1.783   9.869 -0.1695 -0.1963  0.0809
  614ERGO    R3 9520  12.541   1.873   9.688 -0.0577  0.0611  0.0934
  614ERGO    R4 9521  12.792   1.851   9.537 -0.0794 -0.2453  0.0893
  614ERGO    R5 9522  12.664   2.027   9.552  0.1446 -0.0784  0.1117
  614ERGO    C1 9523  12.662   1.976   9.175  0.0778 -0.0322  0.1060
  614ERGO    C2 9524  12.642   1.917   8.755  0.2572 -0.3414 -0.1583
  615PSPI    C1 9525   4.554  11.850   4.555  0.2786 -0.2695 -0.2680
  615PSPI    C2 9526   4.259  11.625   4.406 -0.2091  0.0345  0.2051
  615PSPI    C3 9527   4.249  12.023   4.362  0.4200  0.0149 -0.2420
  615PSPI   PO4 9528   4.614  11.754   4.769  0.3091 -0.3320 -0.1656
  615PSPI   GL1 9529   4.546  11.416   5.105  0.0842 -0.1174 -0.2258
  615PSPI   GL2 9530   4.867  11.389   5.306 -0.0129 -0.0983 -0.0253
  615PSPI   C1A 9531   4.539  11.430   5.618  0.2102  0.1078 -0.0507
  615PSPI   C2A 9532   4.459  11.486   6.037  0.0676  0.0004 -0.4325
  615PSPI   C3A 9533   4.623  11.492   6.441 -0.0004  0.1926 -0.2074
  615PSPI   C4A 9534   4.513  11.819   6.757 -0.0413 -0.1000  0.0066
  615PSPI   C1B 9535   5.029  11.396   5.818 -0.1216 -0.0148 -0.1133
  615PSPI   C2B 9536   5.466  11.472   6.179  0.1185  0.2155  0.0061
  615PSPI   C3B 9537   5.529  11.658   6.518 -0.1056 -0.1415 -0.1906
  615PSPI   C4B 9538   5.540  12.039   6.921  0.1683 -0.2153 -0.0218
  616PSPI    C1 9539   5.231  16.792   5.287 -0.0710 -0.2565 -0.0588
  616PSPI    C2 9540   4.943  16.857   5.557 -0.1586  0.1060 -0.2345
  616PSPI    C3 9541   4.936  16.525   5.334 -0.1940 -0.1001  0.0682
  616PSPI   PO4 9542   5.415  16.912   5.365  0.0691  0.1343 -0.0966
  616PSPI   GL1 9543   5.600  16.967   5.725  0.1783 -0.0269  0.2840
  616PSPI   GL2 9544   5.301  16.996   5.865 -0.0459 -0.1783 -0.4342
  616PSPI   C1A 9545   5.724  16.788   6.139 -0.0096 -0.0984 -0.0176
  616PSPI   C2A 9546   5.899  16.683   6.561 -0.0483 -0.2632 -0.0530
  616PSPI   C3A 9547   5.784  16.752   7.071  0.0890  0.1545  0.0452
  616PSPI   C4A 9548   5.841  16.586   7.470  0.1850 -0.1520 -0.1508
  616PSPI   C1B 9549   5.357  17.114   6.211 -0.1338 -0.0147 -0.3025
  616PSPI   C2B 9550   5.372  17.183   6.706  0.5775  0.2288 -0.0332
  616PSPI   C3B 9551   5.403  17.154   7.141  0.1024 -0.2427  0.1441
  616PSPI   C4B 9552   5.600  17.022   7.487  0.3651  0.0391 -0.1604
  617PSPI    C1 9553  17.214  12.191   5.447  0.1525 -0.1971 -0.2600
  617PSPI    C2 9554  17.165  12.587   5.478  0.1273 -0.2314  0.2135
  617PSPI    C3 9555  17.532  12.433   5.435  0.1647 -0.1709  0.3155
  617PSPI   PO4 9556  17.082  12.099   5.551  0.1885  0.2439 -0.4247
  617PSPI   GL1 9557  16.977  12.207   5.990  0.0321 -0.2447  0.1690
  617PSPI   GL2 9558  16.739  12.017   5.962  0.2407  0.1318  0.0717
  617PSPI   C1A 9559  17.055  12.439   6.462 -0.1918  0.2089  0.2281
  617PSPI   C2A 9560  17.217  12.703   6.696 -0.0860 -0.1867 -0.0828
  617PSPI   C3A 9561  17.568  12.991   6.750  0.4719  0.0898  0.0220
  617PSPI   C4A 9562  17.824  13.193   7.084  0.1860  0.0612 -0.0622
  617PSPI   C1B 9563  17.031  11.865   6.296  0.0852  0.0400  0.1251
  617PSPI   C2B 9564  17.126  11.933   6.668 -0.0598 -0.0210  0.1524
  617PSPI   C3B 9565  17.198  12.354   7.028  0.2483 -0.6183 -0.0583
  617PSPI   C4B 9566  17.279  12.305   7.472  0.0967 -0.1762  0.0478
  618PSPI    C1 9567  14.465   1.009   5.939 -0.2058 -0.3186 -0.1973
  618PSPI    C2 9568  14.320   1.375   6.007  0.2787 -0.1457 -0.0546
  618PSPI    C3 9569  14.192   1.165   5.692 -0.0083  0.1419 -0.1356
  618PSPI   PO4 9570  14.477   0.834   6.259  0.1556 -0.1544  0.1557
  618PSPI   GL1 9571  14.701   0.718   6.643  0.1726 -0.0915  0.3067
  618PSPI   GL2 9572  14.679   1.043   6.680 -0.0882  0.1079  0.3325
  618PSPI   C1A 9573  14.688   0.540   7.072  0.2425  0.2404  0.0116
  618PSPI   C2A 9574  14.736   0.730   7.519  0.4262 -0.0321  0.1858
  618PSPI   C3A 9575  14.775   0.899   7.847 -0.1107  0.1865  0.0354
  618PSPI   C4A 9576  14.843   1.131   8.140  0.0621 -0.1498 -0.0924
  618PSPI   C1B 9577  14.581   1.012   7.095 -0.2843 -0.0977  0.1700
  618PSPI   C2B 9578  14.425   1.135   7.520 -0.3138 -0.2202  0.0535
  618PSPI   C3B 9579  14.197   1.177   7.858 -0.1711 -0.0816  0.0427
  618PSPI   C4B 9580  14.145   1.359   8.227  0.0740  0.0298  0.2797
  619PSPI    C1 9581   2.147  11.680   4.817 -0.0691 -0.1135 -0.0176
  619PSPI    C2 9582   2.505  11.517   4.745 -0.0189 -0.0366  0.0564
  619PSPI    C3 9583   2.255  11.592   4.442  0.2132  0.3385 -0.0496
  619PSPI   PO4 9584   2.097  11.585   5.045 -0.0098  0.1315 -0.0089
  619PSPI   GL1 9585   2.083  11.571   5.432 -0.0486  0.0750 -0.3469
  619PSPI   GL2 9586   2.502  11.465   5.343  0.1040 -0.0363  0.3047
  619PSPI   C1A 9587   2.238  11.518   5.944  0.3050  0.2176  0.1906
  619PSPI   C2A 9588   2.017  11.523   6.406  0.0880 -0.0317  0.2604
  619PSPI   C3A 9589   2.103  11.669   6.786  0.0368 -0.0583 -0.0213
  619PSPI   C4A 9590   2.277  11.851   7.143 -0.1271  0.0557 -0.1767
  619PSPI   C1B 9591   2.819  11.250   5.573 -0.1042  0.1772 -0.0132
  619PSPI   C2B 9592   2.804  11.257   6.075  0.0651 -0.0420 -0.2924
  619PSPI   C3B 9593   2.525  11.131   6.361  0.1408 -0.4707 -0.3151
  619PSPI   C4B 9594   2.228  11.074   6.721  0.2518  0.0376 -0.1810
  620PSPI    C1 9595  10.924  15.774   5.650  0.1579 -0.0396 -0.0773
  620PSPI    C2 9596  11.067  16.114   5.495 -0.1905 -0.0139 -0.3553
  620PSPI    C3 9597  11.285  15.779   5.478  0.1971  0.2097  0.0083
  620PSPI   PO4 9598  10.900  15.899   5.988  0.0224  0.2638  0.0649
  620PSPI   GL1 9599  11.193  15.880   6.431  0.1120  0.1315  0.2930
  620PSPI   GL2 9600  11.275  16.255   6.383 -0.0739 -0.1167  0.0068
  620PSPI   C1A 9601  11.185  16.016   6.823 -0.0273 -0.2360  0.0517
  620PSPI   C2A 9602  11.048  16.326   7.113  0.0745 -0.0875  0.2609
  620PSPI   C3A 9603  11.027  16.362   7.563 -0.0736 -0.1626 -0.2489
  620PSPI   C4A 9604  11.311  16.391   7.862 -0.1812  0.2257 -0.1363
  620PSPI   C1B 9605  11.035  16.531   6.553 -0.1754 -0.2349  0.0027
  620PSPI   C2B 9606  10.726  16.572   6.846 -0.0191 -0.2695 -0.1592
  620PSPI   C3B 9607  10.597  16.606   7.309 -0.1338 -0.0802 -0.0655
  620PSPI   C4B 9608  10.476  16.374   7.660  0.1347 -0.0268  0.2103
  621PSPI    C1 9609   2.929   4.150   6.259  0.5564  0.1595 -0.1849
  621PSPI    C2 9610   2.721   4.277   5.942 -0.0128 -0.1531  0.0475
  621PSPI    C3 9611   2.679   4.460   6.295  0.0559 -0.2629  0.1130
  621PSPI   PO4 9612   2.942   3.800   6.285 -0.0277 -0.3575 -0.2770
  621PSPI   GL1 9613   3.052   3.583   6.614 -0.0920 -0.3792 -0.2483
  621PSPI   GL2 9614   2.861   3.392   6.590 -0.1757  0.1368 -0.0514
  621PSPI   C1A 9615   3.029   3.684   6.963  0.1388  0.3911 -0.1430
  621PSPI   C2A 9616   3.155   3.713   7.376  0.1897  0.0954 -0.0138
  621PSPI   C3A 9617   3.307   4.092   7.724  0.1750 -0.0960 -0.0988
  621PSPI   C4A 9618   3.394   4.279   8.195  0.1944  0.0536  0.0868
  621PSPI   C1B 9619   2.571   3.424   6.866 -0.0915 -0.0560 -0.1808
  621PSPI   C2B 9620   2.671   3.329   7.311  0.0221  0.0818 -0.1805
  621PSPI   C3B 9621   2.818   3.432   7.729  0.1562  0.0044 -0.0430
  621PSPI   C4B 9622   3.009   3.254   8.147 -0.0304 -0.0632  0.1249
  622PSPI    C1 9623  16.318   7.575   5.317  0.0470 -0.0199  0.0023
  622PSPI    C2 9624  16.417   7.395   4.974 -0.0970 -0.1017  0.0027
  622PSPI    C3 9625  16.087   7.619   4.994  0.0100  0.0545  0.0387
  622PSPI   PO4 9626  16.584   7.442   5.444  0.0221  0.0307  0.2161
  622PSPI   GL1 9627  16.928   7.468   5.604 -0.0004  0.2335 -0.0256
  622PSPI   GL2 9628  17.326   7.306   5.639  0.2331 -0.1674  0.0554
  622PSPI   C1A 9629  17.038   7.676   5.973 -0.0465 -0.2124  0.1821
  622PSPI   C2A 9630  17.070   7.680   6.358 -0.2183  0.1579 -0.1908
  622PSPI   C3A 9631  17.351   7.587   6.740  0.2363  0.2518  0.1437
  622PSPI   C4A 9632  17.591   7.390   7.122 -0.0687  0.0527 -0.1683
  622PSPI   C1B 9633  17.660   7.537   5.847  0.0702 -0.1439  0.2012
  622PSPI   C2B 9634  17.980   7.534   6.147 -0.0306 -0.0525  0.0791
  622PSPI   C3B 9635  18.349   7.385   6.386  0.5212 -0.0408 -0.2321
  622PSPI   C4B 9636  18.777   7.136   6.442  0.0058 -0.1870  0.5017
  623PSPI    C1 9637   6.661  14.964   5.455 -0.0152  0.3233  0.0986
  623PSPI    C2 9638   6.744  15.179   5.128 -0.2406  0.0106 -0.1720
  623PSPI    C3 9639   6.901  14.814   5.172 -0.1887  0.0620  0.0859
  623PSPI   PO4 9640   6.786  15.084   5.651 -0.2714 -0.0756 -0.2393
  623PSPI   GL1 9641   6.923  15.147   5.991  0.1967  0.4385  0.2215
  623PSPI   GL2 9642   6.963  15.460   6.034  0.1389  0.1372 -0.0240
  623PSPI   C1A 9643   6.878  14.995   6.371  0.0937 -0.3853 -0.0945
  623PSPI   C2A 9644   6.914  15.081   6.799 -0.2885  0.0823  0.1746
  623PSPI   C3A 9645   6.746  14.962   7.185 -0.0496 -0.0778 -0.0150
  623PSPI   C4A 9646   6.587  14.602   7.300  0.0122 -0.0648 -0.2460
  623PSPI   C1B 9647   7.041  15.461   6.447 -0.0397 -0.0225  0.1022
  623PSPI   C2B 9648   6.710  15.576   6.814  0.1048  0.0223  0.2088
  623PSPI   C3B 9649   6.817  15.433   7.103 -0.1060 -0.1105  0.1073
  623PSPI   C4B 9650   7.149  15.300   7.379  0.1318  0.0835  0.0150
  624PSPI    C1 9651  16.971  13.684   5.049 -0.1067  0.1009  0.0496
  624PSPI    C2 9652  17.242  13.394   5.100 -0.2129  0.0275  0.2022
  624PSPI    C3 9653  17.298  13.672   4.819 -0.0505 -0.0706  0.1365
  624PSPI   PO4 9654  16.996  13.937   5.289  0.1117 -0.1860  0.0935
  624PSPI   GL1 9655  16.950  14.065   5.705 -0.0559 -0.1179 -0.0735
  624PSPI   GL2 9656  16.566  14.101   5.724 -0.1551  0.0591  0.3991
  624PSPI   C1A 9657  16.994  14.186   6.171 -0.1030  0.2490  0.0481
  624PSPI   C2A 9658  16.813  14.173   6.551 -0.1536 -0.0738 -0.0415
  624PSPI   C3A 9659  16.575  14.245   6.977 -0.0085  0.0435 -0.2390
  624PSPI   C4A 9660  16.327  14.564   6.989 -0.1760 -0.1056  0.2197
  624PSPI   C1B 9661  16.490  14.118   6.180 -0.0693 -0.2769  0.2564
  624PSPI   C2B 9662  16.320  14.157   6.611  0.1991 -0.3337 -0.0450
  624PSPI   C3B 9663  16.053  14.180   6.810  0.2411  0.2235  0.2136
  624PSPI   C4B 9664  15.912  14.320   7.205  0.1111  0.0358 -0.1679
  625PSPI    C1 9665  10.005  11.864   4.781 -0.4074 -0.0618 -0.2983
  625PSPI    C2 9666  10.299  11.593   4.761 -0.2176  0.1007  0.1631
  625PSPI    C3 9667  10.209  11.814   4.440  0.0939 -0.0224 -0.0132
  625PSPI   PO4 9668   9.837  11.826   5.121  0.1950 -0.1532 -0.0292
  625PSPI   GL1 9669   9.675  12.098   5.486 -0.2523  0.1089  0.0524
  625PSPI   GL2 9670   9.989  11.973   5.586 -0.1787  0.2887 -0.1474
  625PSPI   C1A 9671   9.525  12.062   5.923 -0.4031  0.3212 -0.2949
  625PSPI   C2A 9672   9.386  12.013   6.345 -0.3759  0.0373  0.1208
  625PSPI   C3A 9673   9.580  11.899   6.739 -0.2068 -0.1589  0.0157
  625PSPI   C4A 9674   9.726  12.107   7.137 -0.0785  0.1290  0.1962
  625PSPI   C1B 9675  10.037  12.296   5.867 -0.0943  0.3151 -0.1525
  625PSPI   C2B 9676  10.134  12.380   6.287 -0.2242  0.0537  0.2091
  625PSPI   C3B 9677  10.407  12.591   6.582 -0.3023 -0.0973  0.3004
  625PSPI   C4B 9678  10.441  12.703   6.979  0.0710  0.1862 -0.2151
  626PSPI    C1 9679  14.950   3.590   6.038  0.5434  0.2849 -0.3039
  626PSPI    C2 9680  15.104   3.489   6.392 -0.0701  0.0702 -0.0845
  626PSPI    C3 9681  15.179   3.264   6.070  0.1477  0.0275 -0.0060
  626PSPI   PO4 9682  14.968   3.914   6.112 -0.3363  0.4037 -0.4892
  626PSPI   GL1 9683  14.988   4.152   6.459 -0.0639  0.3380 -0.2109
  626PSPI   GL2 9684  14.913   3.880   6.624  0.2091 -0.2368  0.1120
  626PSPI   C1A 9685  14.966   4.346   6.855 -0.2408  0.2083 -0.2040
  626PSPI   C2A 9686  14.908   4.273   7.333 -0.0510 -0.1773 -0.3386
  626PSPI   C3A 9687  15.092   4.358   7.768  0.3375  0.2562  0.0802
  626PSPI   C4A 9688  15.125   4.555   8.189  0.0608  0.1619 -0.0476
  626PSPI   C1B 9689  15.019   3.854   7.034  0.2309  0.0721  0.2221
  626PSPI   C2B 9690  15.037   3.795   7.467  0.3669  0.0133  0.0696
  626PSPI   C3B 9691  14.975   3.730   7.873 -0.0606  0.0580 -0.0243
  626PSPI   C4B 9692  14.678   3.623   8.291  0.1062 -0.0997 -0.1445
  627PSPI    C1 9693   1.380   8.495   5.418 -0.2037  0.3907  0.0186
  627PSPI    C2 9694   1.144   8.173   5.442  0.0791  0.1836  0.0647
  627PSPI    C3 9695   1.369   8.232   5.117  0.3115  0.1326  0.2140
  627PSPI   PO4 9696   1.463   8.567   5.597 -0.0276  0.2026 -0.3484
  627PSPI   GL1 9697   1.486   8.764   5.985 -0.1141 -0.0265  0.0321
  627PSPI   GL2 9698   1.184   8.746   6.085 -0.0391 -0.2475 -0.2055
  627PSPI   C1A 9699   1.637   8.759   6.412  0.1531  0.4306 -0.0147
  627PSPI   C2A 9700   1.461   8.668   6.743  0.1062  0.0168 -0.2726
  627PSPI   C3A 9701   1.201   8.591   7.138  0.1160 -0.3004 -0.1775
  627PSPI   C4A 9702   1.237   8.503   7.610  0.0802  0.1881 -0.0667
  627PSPI   C1B 9703   1.128   8.922   6.394 -0.0850  0.1966  0.1006
  627PSPI   C2B 9704   1.114   9.066   6.734 -0.1359  0.1709 -0.4669
  627PSPI   C3B 9705   1.081   9.250   7.128  0.2556  0.1433  0.1011
  627PSPI   C4B 9706   1.057   9.529   7.518  0.0463 -0.0710 -0.1637
  628PSPI    C1 9707   1.187  14.265   5.773 -0.0962 -0.1630  0.1134
  628PSPI    C2 9708   1.075  14.197   5.395 -0.0867  0.1396  0.0538
  628PSPI    C3 9709   0.836  14.404   5.640  0.0018  0.1265  0.1517
  628PSPI   PO4 9710   1.315  13.964   5.881 -0.2538 -0.0697 -0.0933
  628PSPI   GL1 9711   1.330  13.822   6.303 -0.0302  0.2140 -0.4529
  628PSPI   GL2 9712   1.063  13.689   6.203 -0.1475 -0.2530  0.2327
  628PSPI   C1A 9713   1.347  14.005   6.674 -0.1288  0.0860  0.0055
  628PSPI   C2A 9714   1.161  13.825   7.103  0.0216  0.0272 -0.0423
  628PSPI   C3A 9715   0.958  13.798   7.560  0.2430  0.1098  0.1761
  628PSPI   C4A 9716   1.072  13.658   7.964  0.0233 -0.2268  0.1290
  628PSPI   C1B 9717   0.876  13.711   6.640  0.3122 -0.0146 -0.1746
  628PSPI   C2B 9718   0.668  13.643   7.022 -0.1127 -0.0850 -0.0300
  628PSPI   C3B 9719   0.500  13.727   7.384  0.1385  0.0060 -0.1988
  628PSPI   C4B 9720   0.555  13.592   7.814 -0.1062  0.0243 -0.1168
  629PSPI    C1 9721   1.793   7.573   5.152 -0.4751  0.1590 -0.3907
  629PSPI    C2 9722   1.579   7.274   5.310 -0.0121 -0.1343 -0.2991
  629PSPI    C3 9723   1.775   7.220   4.966  0.2173  0.0042 -0.1930
  629PSPI   PO4 9724   1.866   7.635   5.427 -0.0151  0.2130  0.1137
  629PSPI   GL1 9725   1.742   7.381   5.782  0.1796  0.5296 -0.0611
  629PSPI   GL2 9726   2.037   7.303   5.783 -0.2448 -0.1713  0.0475
  629PSPI   C1A 9727   1.470   7.328   6.249 -0.0772  0.1891  0.2024
  629PSPI   C2A 9728   1.293   7.301   6.613  0.0653 -0.1378  0.0199
  629PSPI   C3A 9729   1.504   7.065   6.902 -0.2506  0.1434 -0.2745
  629PSPI   C4A 9730   1.513   6.707   7.091 -0.3427 -0.2801 -0.0311
  629PSPI   C1B 9731   1.956   7.147   6.186 -0.0339  0.1175 -0.1865
  629PSPI   C2B 9732   1.849   7.029   6.562  0.0758 -0.1487 -0.1307
  629PSPI   C3B 9733   1.994   7.135   6.949 -0.1556 -0.1517 -0.0193
  629PSPI   C4B 9734   1.786   7.354   7.222  0.1526 -0.2129  0.2617
  630PSPI    C1 9735  18.523  10.745   5.723 -0.2217  0.0429  0.0828
  630PSPI    C2 9736  18.648  10.480   5.450 -0.2251  0.2086 -0.0821
  630PSPI    C3 9737  18.329  10.398   5.678 -0.0418 -0.0590  0.0836
  630PSPI   PO4 9738  18.746  10.888   5.833  0.4118 -0.0949  0.1501
  630PSPI   GL1 9739  18.630  11.249   6.056 -0.0200 -0.1239 -0.0014
  630PSPI   GL2 9740  18.350  11.409   6.071 -0.1900  0.3703  0.1370
  630PSPI   C1A 9741  18.765  11.178   6.504  0.0014 -0.1950 -0.0231
  630PSPI   C2A 9742  18.870  11.085   6.955  0.3205  0.0582 -0.1629
  630PSPI   C3A 9743  19.057  11.307   7.282 -0.2124  0.1907 -0.0778
  630PSPI   C4A 9744  18.913  11.803   7.433  0.0166  0.4144 -0.1658
  630PSPI   C1B 9745  18.564  11.694   6.227 -0.1607 -0.2463  0.0728
  630PSPI   C2B 9746  18.830  11.971   6.488  0.1218 -0.1252  0.3038
  630PSPI   C3B 9747  18.806  12.024   6.962 -0.0565  0.1763  0.0093
  630PSPI   C4B 9748  18.463  11.921   7.237  0.1689 -0.1228  0.1597
  631PSPI    C1 9749  13.808   3.543   6.170 -0.2056 -0.3388  0.0376
  631PSPI    C2 9750  13.794   3.298   5.855 -0.1776 -0.0161 -0.2196
  631PSPI    C3 9751  14.144   3.379   6.030 -0.1695 -0.0546 -0.2179
  631PSPI   PO4 9752  13.719   3.517   6.323 -0.1669  0.0301  0.0832
  631PSPI   GL1 9753  13.470   3.685   6.646 -0.0497 -0.0267  0.1180
  631PSPI   GL2 9754  13.157   3.612   6.582  0.2371 -0.2116  0.0500
  631PSPI   C1A 9755  13.656   3.771   7.101 -0.1413 -0.1722  0.1513
  631PSPI   C2A 9756  13.586   3.961   7.611 -0.3047  0.0023 -0.1110
  631PSPI   C3A 9757  13.711   3.671   7.942 -0.1616 -0.1327  0.1288
  631PSPI   C4A 9758  13.777   3.752   8.330  0.0471 -0.0847 -0.2026
  631PSPI   C1B 9759  13.202   4.004   6.938 -0.0206  0.1138  0.2095
  631PSPI   C2B 9760  13.124   4.066   7.382 -0.0107  0.2033 -0.1075
  631PSPI   C3B 9761  12.839   3.834   7.538  0.0326 -0.0137 -0.0753
  631PSPI   C4B 9762  12.367   3.917   7.334  0.5055 -0.1820  0.1825
  632PSPI    C1 9763   9.796   7.816   6.053 -0.0903 -0.0727  0.2417
  632PSPI    C2 9764   9.399   7.827   6.005 -0.0891  0.0993  0.2621
  632PSPI    C3 9765   9.571   7.511   6.181 -0.1582 -0.2388 -0.2527
  632PSPI   PO4 9766   9.926   8.046   6.151  0.2008  0.0960 -0.0026
  632PSPI   GL1 9767  10.080   8.199   6.487 -0.1279 -0.1071  0.0949
  632PSPI   GL2 9768  10.311   8.400   6.208 -0.1948 -0.0007 -0.3466
  632PSPI   C1A 9769  10.072   8.350   6.871 -0.2484  0.0707 -0.0815
  632PSPI   C2A 9770  10.118   8.736   7.055  0.0200  0.0938  0.0010
  632PSPI   C3A 9771  10.125   9.111   7.296 -0.1259 -0.1530  0.1449
  632PSPI   C4A 9772  10.027   9.353   7.693  0.0184  0.1432  0.1948
  632PSPI   C1B 9773  10.491   8.540   6.626  0.3223  0.2239  0.1012
  632PSPI   C2B 9774  10.605   8.772   6.973  0.1307 -0.0733 -0.0992
  632PSPI   C3B 9775  10.472   8.731   7.385  0.2918  0.1359 -0.1595
  632PSPI   C4B 9776  10.165   8.760   7.775 -0.0491  0.0062 -0.0128
  633PSPI    C1 9777  16.087  18.549   5.364 -0.1144  0.0475 -0.0918
  633PSPI    C2 9778  16.287  18.886   5.281 -0.1325  0.0600 -0.0839
  633PSPI    C3 9779  16.129  18.669   4.985 -0.1687  0.0880 -0.0852
  633PSPI   PO4 9780  15.992  18.538   5.558  0.2409 -0.0485  0.1574
  633PSPI   GL1 9781  16.087  18.603   6.068 -0.1110 -0.0539 -0.2757
  633PSPI   GL2 9782  16.316  18.418   6.185  0.1724 -0.0820  0.0862
  633PSPI   C1A 9783  15.884  18.309   6.436 -0.3431 -0.0142 -0.1434
  633PSPI   C2A 9784  15.725  18.415   6.837 -0.1459  0.0298 -0.0679
  633PSPI   C3A 9785  15.649  18.255   7.178  0.2453 -0.2024 -0.1191
  633PSPI   C4A 9786  16.004  17.982   7.520  0.2693  0.0488  0.0932
  633PSPI   C1B 9787  16.352  18.139   6.527 -0.0008 -0.1348 -0.0674
  633PSPI   C2B 9788  16.456  17.756   6.683  0.0207  0.1819  0.0598
  633PSPI   C3B 9789  16.532  17.701   7.115 -0.0203 -0.3071  0.0229
  633PSPI   C4B 9790  16.795  17.660   7.492 -0.1367  0.1308 -0.1311
  634PSPI    C1 9791   8.261   5.275   5.430 -0.0021 -0.0566  0.1440
  634PSPI    C2 9792   8.650   5.302   5.519  0.0205 -0.1805  0.0850
  634PSPI    C3 9793   8.534   5.130   5.177 -0.0827 -0.0589  0.0577
  634PSPI   PO4 9794   8.167   5.296   5.742 -0.0436 -0.2582 -0.0508
  634PSPI   GL1 9795   7.824   5.313   6.023  0.0547  0.2040  0.0203
  634PSPI   GL2 9796   8.057   5.526   6.159 -0.0139 -0.0258 -0.4746
  634PSPI   C1A 9797   7.650   5.342   6.363 -0.1919  0.0485  0.0481
  634PSPI   C2A 9798   7.408   5.435   6.636  0.0212 -0.1297  0.3225
  634PSPI   C3A 9799   7.053   5.167   6.853  0.0817  0.3331 -0.3897
  634PSPI   C4A 9800   7.198   4.845   7.089 -0.2747  0.0734  0.1004
  634PSPI   C1B 9801   8.166   5.406   6.432 -0.1309  0.0303 -0.0506
  634PSPI   C2B 9802   8.188   5.466   6.876 -0.3179  0.0674  0.1648
  634PSPI   C3B 9803   8.141   5.444   7.273 -0.2698  0.2256  0.0520
  634PSPI   C4B 9804   7.818   5.389   7.512 -0.2715 -0.3965  0.0181
  635POPI    C1 9805  18.053   3.283   5.891 -0.0706  0.0298 -0.2113
  635POPI    C2 9806  18.060   3.248   5.493  0.0158 -0.1214 -0.1971
  635POPI    C3 9807  18.395   3.193   5.704  0.0292  0.2216 -0.1239
  635POPI   PO4 9808  17.965   3.495   5.954 -0.2112 -0.0538 -0.1476
  635POPI   GL1 9809  17.876   3.765   6.250 -0.0418  0.2801 -0.0724
  635POPI   GL2 9810  18.003   3.969   6.275 -0.2166 -0.1663  0.0653
  635POPI   C1A 9811  17.567   3.785   6.570  0.1514  0.2014 -0.0740
  635POPI   D2A 9812  17.300   4.086   6.713  0.0156  0.5696 -0.0319
  635POPI   C3A 9813  17.468   4.436   6.813 -0.1679  0.0015 -0.1488
  635POPI   C4A 9814  17.717   4.639   7.168 -0.0160  0.3922  0.1067
  635POPI   C1B 9815  18.338   4.020   6.563  0.3828 -0.2180  0.0318
  635POPI   C2B 9816  18.339   4.046   7.002  0.0969  0.3513  0.1621
  635POPI   C3B 9817  18.501   4.049   7.413 -0.1522  0.2599  0.3372
  635POPI   C4B 9818  18.452   4.304   7.804  0.0814  0.2954 -0.0113
  636POPI    C1 9819  14.410  13.671   5.630  0.2755  0.1286  0.1307
  636POPI    C2 9820  14.574  13.813   5.294 -0.0004 -0.0267 -0.0743
  636POPI    C3 9821  14.331  13.496   5.279 -0.0313 -0.0230  0.2713
  636POPI   PO4 9822  14.221  13.928   5.713 -0.2895  0.2372 -0.0459
  636POPI   GL1 9823  13.886  13.905   6.063  0.1164  0.0790  0.0853
  636POPI   GL2 9824  13.760  14.106   6.169 -0.0083  0.0669  0.0604
  636POPI   C1A 9825  14.188  14.122   6.311  0.0927  0.0395  0.2064
  636POPI   D2A 9826  14.532  14.015   6.415 -0.1539 -0.1731  0.1359
  636POPI   C3A 9827  14.746  13.649   6.251 -0.3531  0.1818 -0.1043
  636POPI   C4A 9828  15.041  13.299   6.101  0.2404 -0.1771 -0.3993
  636POPI   C1B 9829  13.772  14.088   6.576 -0.3803  0.0333 -0.0841
  636POPI   C2B 9830  13.826  14.037   6.968  0.0402  0.2315  0.0539
  636POPI   C3B 9831  13.676  14.037   7.433 -0.1885  0.0152 -0.0458
  636POPI   C4B 9832  13.767  14.127   7.852 -0.1197 -0.0629  0.1004
  637POPI    C1 9833   2.398  17.605   5.486  0.3226 -0.1060 -0.0725
  637POPI    C2 9834   2.376  17.895   5.211  0.0081 -0.2087 -0.1596
  637POPI    C3 9835   2.528  17.538   5.113 -0.2311 -0.2901 -0.2423
  637POPI   PO4 9836   2.454  17.751   5.740 -0.0471  0.3929 -0.0659
  637POPI   GL1 9837   2.230  17.719   6.065  0.1312 -0.3356 -0.0109
  637POPI   GL2 9838   2.164  17.434   6.004  0.0761  0.1001 -0.0032
  637POPI   C1A 9839   2.246  17.729   6.414  0.1563  0.0616  0.2144
  637POPI   D2A 9840   2.212  17.747   6.869  0.0839  0.1544 -0.1184
  637POPI   C3A 9841   2.206  17.426   7.223  0.5218 -0.1788  0.1934
  637POPI   C4A 9842   2.118  17.034   7.245  0.0696 -0.0661 -0.0976
  637POPI   C1B 9843   2.325  17.225   6.358  0.3126  0.2042 -0.0628
  637POPI   C2B 9844   2.324  17.232   6.753  0.2305 -0.0338 -0.3343
  637POPI   C3B 9845   2.535  17.122   7.028 -0.1373 -0.2022  0.1174
  637POPI   C4B 9846   2.704  17.215   7.336  0.1755  0.3821 -0.1263
  638POPI    C1 9847   1.702  11.343   4.734 -0.0684 -0.0940 -0.1555
  638POPI    C2 9848   1.379  11.149   4.600 -0.2060  0.1225 -0.1426
  638POPI    C3 9849   1.505  11.480   4.414  0.0111  0.0378 -0.1486
  638POPI   PO4 9850   1.713  11.125   4.978 -0.1076 -0.1168 -0.2935
  638POPI   GL1 9851   1.855  11.053   5.305 -0.2425  0.0337 -0.3502
  638POPI   GL2 9852   2.124  11.009   5.307 -0.1531 -0.2620 -0.0211
  638POPI   C1A 9853   1.831  10.966   5.730 -0.0297  0.2540 -0.0644
  638POPI   D2A 9854   1.710  11.352   5.811  0.0826 -0.1855  0.0617
  638POPI   C3A 9855   1.812  11.741   5.986  0.1359  0.0953  0.1161
  638POPI   C4A 9856   2.132  12.014   6.192 -0.0802  0.1058 -0.0982
  638POPI   C1B 9857   2.382  11.065   5.688 -0.1220  0.1504  0.1997
  638POPI   C2B 9858   2.178  10.913   6.040 -0.0860 -0.1924  0.1501
  638POPI   C3B 9859   2.288  10.674   6.393 -0.1154 -0.1011  0.0290
  638POPI   C4B 9860   2.679  10.782   6.787  0.0961 -0.4177 -0.3326
  639POPI    C1 9861  15.017  13.096   5.130 -0.1331 -0.0628  0.0861
  639POPI    C2 9862  14.743  13.380   5.066 -0.0415 -0.0108 -0.0806
  639POPI    C3 9863  14.637  13.034   5.237 -0.1942  0.0418 -0.0675
  639POPI   PO4 9864  15.178  13.220   5.256 -0.1998 -0.1697 -0.0603
  639POPI   GL1 9865  15.558  13.427   5.447 -0.0652  0.0056 -0.2088
  639POPI   GL2 9866  15.789  13.475   5.827 -0.2946  0.0321 -0.2469
  639POPI   C1A 9867  15.398  13.691   5.710  0.1749  0.1020  0.2462
  639POPI   D2A 9868  15.119  13.818   6.020  0.1262 -0.3420  0.0302
  639POPI   C3A 9869  15.040  14.166   6.268 -0.0793 -0.0343  0.1794
  639POPI   C4A 9870  14.827  14.399   6.625 -0.1641 -0.1233  0.2515
  639POPI   C1B 9871  15.493  13.542   6.170 -0.0400 -0.0561  0.2383
  639POPI   C2B 9872  15.192  13.604   6.487  0.3083 -0.0874  0.1645
  639POPI   C3B 9873  14.940  13.720   6.785  0.1947  0.0145 -0.2022
  639POPI   C4B 9874  14.590  13.576   6.792  0.3816  0.3639 -0.1057
  640POPI    C1 9875  10.313   8.162   5.787  0.3456  0.1197 -0.0111
  640POPI    C2 9876  10.221   7.926   5.478  0.2988  0.0347  0.0673
  640POPI    C3 9877  10.205   8.324   5.438 -0.1766  0.0240  0.0986
  640POPI   PO4 9878  10.536   8.118   5.859  0.1081  0.0789 -0.0225
  640POPI   GL1 9879  10.667   7.969   6.242 -0.2829 -0.3682  0.0345
  640POPI   GL2 9880  10.596   7.769   6.482  0.0848  0.0253 -0.1834
  640POPI   C1A 9881  10.864   8.157   6.644 -0.1285 -0.0869  0.1477
  640POPI   D2A 9882  10.829   8.358   7.128  0.1742 -0.2255  0.1343
  640POPI   C3A 9883  10.912   8.370   7.555  0.0953  0.1667  0.1343
  640POPI   C4A 9884  11.047   8.276   8.004  0.1197 -0.3362 -0.0857
  640POPI   C1B 9885  10.424   7.996   6.805 -0.0383  0.0503 -0.2085
  640POPI   C2B 9886  10.380   8.172   7.227 -0.0767 -0.1735  0.0817
  640POPI   C3B 9887  10.422   8.205   7.622  0.0104  0.0580  0.3934
  640POPI   C4B 9888  10.378   8.234   8.007 -0.0822  0.0545 -0.3230
  641POPI    C1 9889   6.453   5.292   5.922  0.0253 -0.1391  0.1690
  641POPI    C2 9890   6.851   5.288   5.968  0.0381  0.0905  0.0937
  641POPI    C3 9891   6.646   5.625   6.034 -0.1518 -0.0412  0.1862
  641POPI   PO4 9892   6.291   5.157   6.126  0.0618  0.0337 -0.2344
  641POPI   GL1 9893   6.350   4.879   6.503  0.0835 -0.0803  0.0404
  641POPI   GL2 9894   6.215   5.122   6.689 -0.0582 -0.1410  0.0747
  641POPI   C1A 9895   6.707   4.773   6.830  0.4939 -0.1220  0.2716
  641POPI   D2A 9896   6.688   4.822   7.278 -0.2681 -0.0706  0.0393
  641POPI   C3A 9897   6.540   4.723   7.650  0.0593  0.2541 -0.0020
  641POPI   C4A 9898   6.478   4.863   8.022 -0.1291 -0.0493 -0.0887
  641POPI   C1B 9899   6.058   5.457   6.948 -0.1807  0.1268  0.3077
  641POPI   C2B 9900   5.763   5.393   7.232 -0.0904 -0.0339 -0.0454
  641POPI   C3B 9901   5.533   5.366   7.603 -0.0498 -0.1730 -0.1918
  641POPI   C4B 9902   5.332   5.797   7.715 -0.1652 -0.1831 -0.1559
  642POPI    C1 9903  13.705  15.686   5.505 -0.0449  0.2153 -0.0324
  642POPI    C2 9904  14.085  15.570   5.462 -0.0869 -0.0447  0.2684
  642POPI    C3 9905  13.828  15.527   5.159  0.0965  0.0346  0.0994
  642POPI   PO4 9906  13.683  15.529   5.724 -0.0921 -0.1944  0.2668
  642POPI   GL1 9907  13.618  15.365   6.046 -0.0888  0.2084  0.0154
  642POPI   GL2 9908  13.521  15.690   6.181 -0.2960  0.0681  0.1234
  642POPI   C1A 9909  13.503  15.098   6.437 -0.1347 -0.4767  0.3140
  642POPI   D2A 9910  13.397  14.952   6.958 -0.4471 -0.0454 -0.2532
  642POPI   C3A 9911  13.288  15.181   7.361 -0.0404  0.2226 -0.0093
  642POPI   C4A 9912  13.363  15.429   7.717  0.2553  0.1898  0.1346
  642POPI   C1B 9913  13.583  15.988   6.551  0.0709  0.2199  0.3073
  642POPI   C2B 9914  13.336  16.234   6.925  0.2235 -0.2387 -0.0675
  642POPI   C3B 9915  13.036  16.042   7.192  0.1967 -0.0426 -0.1950
  642POPI   C4B 9916  13.049  15.833   7.567 -0.3419 -0.2384 -0.1719
  643POPI    C1 9917  15.478  10.717   5.120  0.1585  0.1656 -0.0626
  643POPI    C2 9918  15.759  10.597   4.862  0.0611  0.0933 -0.1360
  643POPI    C3 9919  15.376  10.504   4.797  0.0564 -0.0818  0.1305
  643POPI   PO4 9920  15.631  10.705   5.394 -0.0437  0.3154  0.2186
  643POPI   GL1 9921  15.643  10.731   5.824 -0.3754  0.1933  0.0144
  643POPI   GL2 9922  15.910  10.563   5.930 -0.0672  0.0126  0.3742
  643POPI   C1A 9923  15.453  10.674   6.260  0.0426 -0.0383  0.1418
  643POPI   D2A 9924  15.243  10.682   6.673  0.2416  0.4955 -0.0839
  643POPI   C3A 9925  15.508  10.675   7.110  0.1868  0.1472  0.2164
  643POPI   C4A 9926  15.544  10.632   7.573 -0.1471 -0.2217  0.0846
  643POPI   C1B 9927  15.963  10.539   6.383  0.0554 -0.1198  0.2051
  643POPI   C2B 9928  15.761  10.463   6.755  0.0263 -0.0719 -0.3415
  643POPI   C3B 9929  15.812  10.352   7.205 -0.3190  0.0879  0.3420
  643POPI   C4B 9930  15.848  10.255   7.641  0.0432 -0.4649  0.1073
  644POPI    C1 9931   4.294   7.243   5.435 -0.0583 -0.1800 -0.0894
  644POPI    C2 9932   4.644   7.057   5.492  0.0531  0.1123  0.2175
  644POPI    C3 9933   4.317   6.845   5.400  0.2133 -0.2135  0.3782
  644POPI   PO4 9934   4.359   7.468   5.644  0.2340  0.0334  0.1289
  644POPI   GL1 9935   4.487   7.580   6.115 -0.1354  0.1906  0.2378
  644POPI   GL2 9936   4.632   7.365   6.334  0.1116  0.0840 -0.0423
  644POPI   C1A 9937   4.267   7.890   6.393 -0.3480  0.3077  0.2417
  644POPI   D2A 9938   4.180   8.086   6.770 -0.0773 -0.1271  0.0106
  644POPI   C3A 9939   4.268   8.047   7.189  0.0316 -0.2392 -0.0397
  644POPI   C4A 9940   4.243   7.837   7.515 -0.1043  0.1877  0.1886
  644POPI   C1B 9941   4.797   7.296   6.750  0.3347  0.3966  0.1206
  644POPI   C2B 9942   4.835   7.095   7.140 -0.2567  0.1592 -0.2429
  644POPI   C3B 9943   4.717   6.865   7.489  0.1529 -0.1736  0.0442
  644POPI   C4B 9944   4.710   6.752   7.929 -0.1511  0.1033 -0.2021
  645POPI    C1 9945  10.706   7.055   5.973  0.1088  0.3877  0.0109
  645POPI    C2 9946  10.654   7.030   5.577 -0.1770 -0.3336  0.0789
  645POPI    C3 9947  10.367   7.188   5.807 -0.1896 -0.2944  0.0363
  645POPI   PO4 9948  10.788   6.748   6.133  0.1735  0.0840  0.1754
  645POPI   GL1 9949  10.755   6.792   6.554  0.3163 -0.0628  0.0272
  645POPI   GL2 9950  10.831   6.469   6.678 -0.1409  0.1505  0.0244
  645POPI   C1A 9951  10.631   6.897   6.949 -0.0779 -0.4562 -0.1588
  645POPI   D2A 9952  10.240   7.062   7.313  0.1958 -0.0858  0.0376
  645POPI   C3A 9953  10.381   7.404   7.692 -0.0159  0.0336  0.2154
  645POPI   C4A 9954  10.153   7.452   8.068 -0.0508  0.2512 -0.1273
  645POPI   C1B 9955  10.857   6.501   7.145 -0.0108 -0.1281  0.0167
  645POPI   C2B 9956  10.757   6.859   7.450  0.1286 -0.1527 -0.1564
  645POPI   C3B 9957  10.495   6.900   7.820 -0.1430 -0.2321  0.0069
  645POPI   C4B 9958  10.285   6.891   8.227  0.1506 -0.3802 -0.1487
  646POPI    C1 9959   7.306  15.990   5.086 -0.1976 -0.1364  0.0377
  646POPI    C2 9960   7.185  16.361   5.173  0.1008  0.0222 -0.2032
  646POPI    C3 9961   7.034  16.171   4.855  0.3305  0.1442 -0.3882
  646POPI   PO4 9962   7.276  15.830   5.392 -0.0740 -0.0327 -0.2426
  646POPI   GL1 9963   7.338  15.969   5.725 -0.1096  0.2190 -0.0986
  646POPI   GL2 9964   7.060  15.955   5.900  0.3633  0.1212  0.0170
  646POPI   C1A 9965   7.678  16.093   6.029  0.1059 -0.2461 -0.0976
  646POPI   D2A 9966   7.986  16.117   6.382  0.6327 -0.2768  0.0232
  646POPI   C3A 9967   7.817  16.190   6.849 -0.0417 -0.0810 -0.0543
  646POPI   C4A 9968   7.948  16.421   7.224  0.0915  0.0750 -0.1116
  646POPI   C1B 9969   7.204  15.899   6.278 -0.2135  0.1692  0.2069
  646POPI   C2B 9970   7.300  15.778   6.732 -0.0912 -0.1546  0.0309
  646POPI   C3B 9971   7.501  15.860   7.147 -0.1522  0.0659  0.1971
  646POPI   C4B 9972   7.596  16.088   7.414  0.0236 -0.1358 -0.1275
  647POPI    C1 9973  16.932  13.089   5.425 -0.0110  0.1757 -0.1667
  647POPI    C2 9974  17.010  12.907   5.077 -0.2670 -0.0886 -0.0898
  647POPI    C3 9975  16.789  13.241   5.084 -0.0868  0.0341 -0.1990
  647POPI   PO4 9976  16.763  12.945   5.653  0.0725  0.1253  0.0786
  647POPI   GL1 9977  16.836  12.850   6.072  0.0371  0.0210  0.0585
  647POPI   GL2 9978  17.107  12.731   6.051 -0.1313 -0.0217 -0.1895
  647POPI   C1A 9979  16.658  12.796   6.482 -0.0340 -0.3030  0.1787
  647POPI   D2A 9980  16.266  12.778   6.617 -0.3549  0.2558  0.0442
  647POPI   C3A 9981  16.280  12.686   6.991  0.1581 -0.0098  0.0117
  647POPI   C4A 9982  16.392  12.759   7.440  0.1417  0.2505  0.1006
  647POPI   C1B 9983  17.449  12.825   6.287 -0.2819 -0.1376  0.0172
  647POPI   C2B 9984  17.846  12.714   6.501  0.1833  0.0196 -0.0645
  647POPI   C3B 9985  18.061  12.801   6.824 -0.2430 -0.1777 -0.0366
  647POPI   C4B 9986  18.295  12.843   7.124 -0.0642  0.0914 -0.0504
  648POPI    C1 9987   5.786   7.249   5.944  0.3058  0.1017 -0.1902
  648POPI    C2 9988   5.454   7.200   5.726  0.1109  0.0349  0.1156
  648POPI    C3 9989   5.507   7.536   5.935  0.1935  0.0070  0.1399
  648POPI   PO4 9990   5.812   7.001   6.134  0.0759 -0.2210 -0.1614
  648POPI   GL1 9991   5.750   7.114   6.524 -0.3040 -0.0745 -0.0900
  648POPI   GL2 9992   5.844   7.383   6.440  0.0321 -0.2468  0.0043
  648POPI   C1A 9993   5.674   6.829   6.904 -0.1541 -0.2252  0.1366
  648POPI   D2A 9994   5.618   6.730   7.371  0.1488  0.1545  0.1712
  648POPI   C3A 9995   5.765   6.353   7.613 -0.1172  0.6670 -0.3370
  648POPI   C4A 9996   6.032   6.403   7.971 -0.1363 -0.1716 -0.1321
  648POPI   C1B 9997   5.980   7.318   6.896  0.2355 -0.1079  0.1762
  648POPI   C2B 9998   5.960   7.076   7.194 -0.1108 -0.2235 -0.4049
  648POPI   C3B 9999   6.098   6.946   7.551 -0.1847 -0.1449 -0.2158
  648POPI   C4B10000   5.960   6.904   7.970 -0.3705 -0.0364  0.0943
  649POPI    C110001  11.301   4.100   6.078 -0.0877  0.0507 -0.0794
  649POPI    C210002  11.470   3.878   5.791  0.3021  0.0452  0.1467
  649POPI    C310003  11.290   4.223   5.698 -0.0457 -0.2120 -0.1679
  649POPI   PO410004  11.152   3.905   6.207  0.1137  0.0954 -0.0385
  649POPI   GL110005  11.312   3.770   6.625  0.0292 -0.0237 -0.2511
  649POPI   GL210006  11.552   3.922   6.540  0.0852 -0.0379  0.1341
  649POPI   C1A10007  11.182   3.640   7.086  0.1240 -0.0524  0.1699
  649POPI   D2A10008  11.129   3.668   7.484 -0.0370 -0.1705 -0.1575
  649POPI   C3A10009  11.304   3.374   7.890 -0.1401  0.0305  0.2081
  649POPI   C4A10010  11.275   3.434   8.333 -0.0197 -0.5685 -0.0548
  649POPI   C1B10011  11.790   3.922   6.914 -0.0181  0.0462 -0.1381
  649POPI   C2B10012  11.915   3.909   7.338  0.1120 -0.2000  0.0317
  649POPI   C3B10013  11.841   4.053   7.666  0.1124 -0.0794  0.4314
  649POPI   C4B10014  11.910   4.055   8.096 -0.3529  0.1006 -0.2414
  650POPI    C110015   8.456   6.862   5.795 -0.0279  0.3019 -0.1817
  650POPI    C210016   8.600   6.942   5.430  0.1554  0.1101 -0.1533
  650POPI    C310017   8.361   6.626   5.486  0.3084  0.0080 -0.0676
  650POPI   PO410018   8.443   7.223   5.883  0.0533 -0.0908 -0.4155
  650POPI   GL110019   8.486   7.426   6.275 -0.0176  0.2396  0.0058
  650POPI   GL210020   8.553   7.252   6.518 -0.3974  0.0129 -0.0412
  650POPI   C1A10021   8.094   7.622   6.466 -0.1852  0.2858 -0.5494
  650POPI   D2A10022   7.783   7.659   6.772  0.1836  0.0711  0.1633
  650POPI   C3A10023   7.674   7.730   7.246 -0.0027 -0.0017 -0.1729
  650POPI   C4A10024   7.221   7.775   7.393  0.0252 -0.4522  0.0478
  650POPI   C1B10025   8.491   7.114   6.890  0.1653  0.0704 -0.0547
  650POPI   C2B10026   8.449   7.253   7.278 -0.2515 -0.2077 -0.3693
  650POPI   C3B10027   8.479   7.281   7.814  0.0684 -0.1524  0.0181
  650POPI   C4B10028   8.629   7.465   8.216 -0.1760  0.0593 -0.2276
  651POPI    C110029  16.881   7.187   4.995  0.0319  0.2638  0.0294
  651POPI    C210030  17.091   7.011   4.703  0.1390  0.1195  0.1908
  651POPI    C310031  17.067   7.410   4.720  0.1368  0.1291 -0.0103
  651POPI   PO410032  17.003   7.070   5.244 -0.0697 -0.0865  0.0172
  651POPI   GL110033  17.107   6.679   5.430  0.2348 -0.1164  0.0066
  651POPI   GL210034  17.257   6.837   5.649  0.0021  0.2926 -0.0332
  651POPI   C1A10035  17.158   6.437   5.880 -0.2410 -0.3819  0.0795
  651POPI   D2A10036  17.174   6.508   6.221 -0.2146  0.0240 -0.1655
  651POPI   C3A10037  16.838   6.497   6.360  0.0102 -0.0483 -0.0519
  651POPI   C4A10038  16.670   6.769   6.703 -0.1863 -0.1050 -0.0611
  651POPI   C1B10039  17.481   7.071   6.084 -0.1504  0.1989  0.0965
  651POPI   C2B10040  17.497   7.397   6.310  0.0289 -0.1218  0.0042
  651POPI   C3B10041  17.887   7.518   6.620 -0.1133 -0.1451  0.0485
  651POPI   C4B10042  18.076   7.332   6.976 -0.2588  0.1550  0.2772
  652POPI    C110043  13.171  15.700   5.565 -0.0270  0.2110  0.1317
  652POPI    C210044  13.320  16.052   5.449  0.1533  0.1106  0.0533
  652POPI    C310045  12.970  15.925   5.303  0.2961  0.0626 -0.2555
  652POPI   PO410046  13.233  15.711   5.787 -0.4531  0.1423 -0.0136
  652POPI   GL110047  13.125  16.082   6.164 -0.1229  0.2844 -0.3348
  652POPI   GL210048  13.002  15.698   6.192  0.0638 -0.1667 -0.4625
  652POPI   C1A10049  12.918  16.119   6.499  0.2869 -0.0656  0.3250
  652POPI   D2A10050  12.662  16.018   6.845  0.1151  0.1184 -0.0358
  652POPI   C3A10051  12.366  15.758   7.188  0.0798  0.1865  0.1713
  652POPI   C4A10052  12.560  15.754   7.577  0.2420  0.1478  0.3268
  652POPI   C1B10053  13.040  15.383   6.378 -0.2305 -0.0606  0.1563
  652POPI   C2B10054  13.045  15.317   6.819 -0.0717  0.2526 -0.3021
  652POPI   C3B10055  12.933  14.988   7.134  0.1138  0.0738 -0.2178
  652POPI   C4B10056  12.946  14.778   7.524 -0.1248  0.5682  0.2239
  653POPI    C110057   2.013   9.797   5.202 -0.2408 -0.2246  0.0390
  653POPI    C210058   1.735  10.069   5.294 -0.1012 -0.0310 -0.0999
  653POPI    C310059   1.850  10.022   4.914  0.0413 -0.1235 -0.0461
  653POPI   PO410060   2.157   9.856   5.408 -0.0455 -0.1139 -0.0015
  653POPI   GL110061   2.526   9.907   5.715  0.1874  0.0237 -0.2487
  653POPI   GL210062   2.630  10.196   5.614  0.0091  0.2652 -0.0173
  653POPI   C1A10063   2.641   9.930   6.269 -0.0986 -0.4352  0.1650
  653POPI   D2A10064   2.627  10.017   6.765  0.4191 -0.1820  0.1370
  653POPI   C3A10065   2.270   9.979   6.997 -0.1887  0.0226  0.1463
  653POPI   C4A10066   1.878  10.094   7.219 -0.3425 -0.0916 -0.0871
  653POPI   C1B10067   2.388  10.282   6.082 -0.0221  0.1293  0.3310
  653POPI   C2B10068   2.148  10.052   6.469  0.1520 -0.0510 -0.0787
  653POPI   C3B10069   1.876   9.928   6.781 -0.1156 -0.0677 -0.3437
  653POPI   C4B10070   1.486   9.814   7.100 -0.0435  0.1136 -0.2105
  654POPI    C110071  16.569  17.656   6.089  0.1236  0.2014  0.1348
  654POPI    C210072  16.453  17.657   5.707 -0.0624 -0.2528  0.1827
  654POPI    C310073  16.258  17.880   5.976 -0.2135 -0.2726  0.0909
  654POPI   PO410074  16.569  17.293   6.129  0.0358  0.3834  0.0269
  654POPI   GL110075  16.967  17.060   6.180 -0.0879 -0.0920 -0.0633
  654POPI   GL210076  17.113  17.304   6.059  0.3509  0.1844  0.0159
  654POPI   C1A10077  17.258  16.984   6.578  0.0285 -0.1283 -0.4958
  654POPI   D2A10078  17.386  17.052   6.958  0.1107 -0.0795  0.2809
  654POPI   C3A10079  17.669  17.041   7.319  0.2018  0.1319  0.0283
  654POPI   C4A10080  17.625  17.256   7.652  0.0469  0.2107  0.1440
  654POPI   C1B10081  17.329  17.436   6.362  0.3003  0.3906 -0.2143
  654POPI   C2B10082  17.358  17.541   6.838  0.0054 -0.2930 -0.0154
  654POPI   C3B10083  17.296  17.433   7.318  0.2564  0.0103 -0.1383
  654POPI   C4B10084  17.215  16.962   7.470  0.0069  0.3171  0.0704
  655POPI    C110085  18.242  13.045   5.465 -0.0341  0.0243 -0.2831
  655POPI    C210086  18.044  12.854   5.174 -0.0325 -0.2431 -0.1124
  655POPI    C310087  18.424  12.966   5.117 -0.0704 -0.1850 -0.2562
  655POPI   PO410088  17.981  13.116   5.621  0.3996 -0.0580  0.0719
  655POPI   GL110089  17.854  13.037   6.095  0.0239 -0.2219  0.0358
  655POPI   GL210090  17.568  13.268   6.065  0.2772  0.0994 -0.0922
  655POPI   C1A10091  17.951  13.191   6.509 -0.1035  0.1468 -0.1442
  655POPI   D2A10092  18.223  13.341   6.837  0.0419  0.0257  0.0332
  655POPI   C3A10093  18.061  13.560   7.114 -0.2506 -0.0872 -0.0136
  655POPI   C4A10094  17.705  13.694   7.372 -0.0174 -0.0723  0.0733
  655POPI   C1B10095  17.589  13.463   6.409  0.0343 -0.0360 -0.0304
  655POPI   C2B10096  17.561  13.594   6.831  0.0914  0.4045 -0.2323
  655POPI   C3B10097  17.259  13.603   7.170 -0.0288 -0.0323 -0.1142
  655POPI   C4B10098  17.230  13.567   7.556 -0.1070  0.0063 -0.4396
  656POPI    C110099   0.350   1.069   5.749  0.0641 -0.0896 -0.0205
  656POPI    C210100   0.073   1.344   5.663  0.0292 -0.0853  0.1043
  656POPI    C310101   0.196   1.089   5.380  0.2380  0.2129 -0.0796
  656POPI   PO410102   0.320   1.001   5.999  0.0411  0.2428  0.0390
  656POPI   GL110103   0.317   1.262   6.371  0.0308 -0.0688  0.0418
  656POPI   GL210104   0.116   0.977   6.645  0.0586 -0.4410 -0.1618
  656POPI   C1A10105   0.226   1.451   6.821 -0.1535  0.1038 -0.0008
  656POPI   D2A10106   0.025   1.432   7.241 -0.0930  0.2011 -0.1913
  656POPI   C3A10107   0.244   1.559   7.538  0.0009 -0.2617  0.0593
  656POPI   C4A10108   0.158   1.630   7.970  0.0178  0.2654  0.2794
  656POPI   C1B10109   0.202   0.942   7.077 -0.2099 -0.0439 -0.0164
  656POPI   C2B10110   0.419   1.174   7.313 -0.1073  0.1793 -0.2703
  656POPI   C3B10111   0.640   1.446   7.224 -0.0487  0.3351  0.0294
  656POPI   C4B10112   0.965   1.773   7.303 -0.1433 -0.0159 -0.0849
  657POPI    C110113   3.336   7.045   5.321 -0.1540 -0.0212 -0.0527
  657POPI    C210114   3.287   7.285   5.005  0.0185  0.0028 -0.0624
  657POPI    C310115   3.483   6.939   4.964  0.1412  0.0592  0.0418
  657POPI   PO410116   3.390   7.208   5.513 -0.1718  0.4855  0.1563
  657POPI   GL110117   3.098   7.244   5.858  0.0980  0.1913 -0.0684
  657POPI   GL210118   3.387   7.385   6.001  0.1028 -0.1680  0.2485
  657POPI   C1A10119   2.902   7.339   6.214  0.1910  0.3065  0.0574
  657POPI   D2A10120   2.849   7.416   6.704 -0.2291  0.1157  0.1380
  657POPI   C3A10121   3.079   7.430   7.103  0.1345  0.1632 -0.1926
  657POPI   C4A10122   3.042   7.587   7.465 -0.0794  0.1571  0.0060
  657POPI   C1B10123   3.411   7.395   6.392 -0.2821 -0.0598 -0.1307
  657POPI   C2B10124   3.481   7.424   6.869  0.1075 -0.1257 -0.0224
  657POPI   C3B10125   3.459   7.203   7.274  0.0906 -0.1612  0.2792
  657POPI   C4B10126   3.360   6.835   7.533 -0.0126 -0.0840  0.0903
  658POPI    C110127   6.678   7.723   6.387 -0.0610 -0.3179  0.0506
  658POPI    C210128   6.468   7.778   6.050 -0.1418  0.0806  0.1608
  658POPI    C310129   6.867   7.809   6.045 -0.1364  0.0042  0.0873
  658POPI   PO410130   6.546   7.451   6.473 -0.4541  0.2199  0.1434
  658POPI   GL110131   6.440   7.360   6.749  0.1876  0.1044  0.0271
  658POPI   GL210132   6.772   7.176   6.832 -0.3781  0.0404  0.2411
  658POPI   C1A10133   6.445   7.118   7.174  0.1605  0.1049  0.1053
  658POPI   D2A10134   6.537   7.103   7.643  0.2870 -0.0455  0.1900
  658POPI   C3A10135   6.444   6.677   7.904 -0.5048  0.0085 -0.0490
  658POPI   C4A10136   6.581   6.342   8.048  0.2670 -0.0593  0.2282
  658POPI   C1B10137   6.878   7.373   7.283 -0.0486  0.1023  0.1769
  658POPI   C2B10138   7.012   7.467   7.701 -0.2033  0.1147 -0.1774
  658POPI   C3B10139   7.066   7.721   8.020 -0.0393  0.0016 -0.0925
  658POPI   C4B10140   6.871   7.803   8.240 -0.0060 -0.3578  0.0471
  659POPI    C110141  15.781  17.914   6.128  0.2396  0.1965  0.1356
  659POPI    C210142  15.844  18.186   5.842 -0.1640  0.1230 -0.0294
  659POPI    C310143  15.534  18.227   6.091 -0.0841 -0.0579  0.1018
  659POPI   PO410144  15.793  17.717   6.104  0.0032 -0.0354  0.1206
  659POPI   GL110145  15.822  17.294   6.402  0.1489  0.0841  0.1936
  659POPI   GL210146  16.107  17.497   6.392 -0.1915 -0.4261  0.4705
  659POPI   C1A10147  15.707  17.210   6.854  0.0974 -0.1008 -0.3268
  659POPI   D2A10148  15.609  17.055   7.214 -0.1428  0.1439 -0.0880
  659POPI   C3A10149  15.943  17.060   7.468 -0.1123 -0.2583 -0.4888
  659POPI   C4A10150  16.317  17.058   7.754 -0.0914  0.3988  0.2344
  659POPI   C1B10151  16.228  17.275   6.750 -0.0336 -0.0985  0.2506
  659POPI   C2B10152  16.444  17.112   7.112  0.0990 -0.0320  0.1438
  659POPI   C3B10153  16.724  17.131   7.451  0.2348  0.2615 -0.0654
  659POPI   C4B10154  16.800  16.769   7.816  0.0060  0.1090  0.0098
  660POPI    C110155  17.402  10.603   5.601 -0.0605  0.0695 -0.1209
  660POPI    C210156  17.386  10.815   5.262  0.0568  0.3127  0.0226
  660POPI    C310157  17.722  10.809   5.479  0.0888 -0.1043 -0.0288
  660POPI   PO410158  17.261  10.641   5.794 -0.2236  0.0235  0.0715
  660POPI   GL110159  17.403  10.612   6.122  0.3845 -0.1028 -0.1157
  660POPI   GL210160  17.337  10.390   6.207  0.0726 -0.1857 -0.2887
  660POPI   C1A10161  17.665  10.627   6.479  0.2897 -0.1408  0.4010
  660POPI   D2A10162  17.954  10.851   6.799  0.0913 -0.3868  0.0909
  660POPI   C3A10163  17.824  10.831   7.169 -0.5598 -0.0956  0.0029
  660POPI   C4A10164  17.598  10.976   7.456 -0.1401  0.2067  0.0734
  660POPI   C1B10165  17.416  10.102   6.521  0.2746  0.1256  0.0972
  660POPI   C2B10166  17.532  10.008   6.978  0.4434  0.0995  0.0088
  660POPI   C3B10167  17.480   9.994   7.523  0.2130  0.0100 -0.0123
  660POPI   C4B10168  17.371  10.118   7.928 -0.2199 -0.4809 -0.0588
  661POPI    C110169  11.087   7.619   6.003  0.3400  0.0477 -0.0213
  661POPI    C210170  11.112   7.365   5.695  0.1706 -0.0625  0.0546
  661POPI    C310171  11.414   7.616   5.772  0.2785 -0.1409 -0.1076
  661POPI   PO410172  10.894   7.455   6.156 -0.2382 -0.0269  0.3093
  661POPI   GL110173  10.876   7.301   6.520 -0.1571 -0.0017  0.1344
  661POPI   GL210174  11.127   7.209   6.541 -0.1648  0.3632 -0.0581
  661POPI   C1A10175  10.916   7.282   6.973  0.0551 -0.0492  0.1986
  661POPI   D2A10176  11.062   7.416   7.293  0.1613 -0.0184  0.1706
  661POPI   C3A10177  10.929   7.306   7.621  0.1536 -0.1882  0.2490
  661POPI   C4A10178  10.980   7.025   7.980 -0.0890 -0.2575  0.1281
  661POPI   C1B10179  11.375   7.254   6.867 -0.2021  0.1920  0.2176
  661POPI   C2B10180  11.623   7.375   7.283  0.0274 -0.0875  0.4185
  661POPI   C3B10181  11.886   7.451   7.581  0.2688  0.1578 -0.1035
  661POPI   C4B10182  12.189   7.415   7.954  0.3202 -0.5360 -0.0814
  662POPI    C110183   6.208  18.583   5.420 -0.0138 -0.0442  0.1105
  662POPI    C210184   6.048  18.217   5.395  0.0487 -0.0482 -0.3009
  662POPI    C310185   6.036  18.463   5.080  0.2079  0.2229 -0.1004
  662POPI   PO410186   6.498  18.582   5.573  0.1963  0.0016 -0.1642
  662POPI   GL110187   6.548  18.729   5.971 -0.2256 -0.3849  0.3572
  662POPI   GL210188   6.550  19.061   5.999 -0.0007  0.0044 -0.1063
  662POPI   C1A10189   6.526  18.322   6.153  0.2405  0.0426  0.0663
  662POPI   D2A10190   6.852  17.981   6.283 -0.2030 -0.1962  0.2650
  662POPI   C3A10191   6.951  18.116   6.633 -0.2411  0.0746  0.0584
  662POPI   C4A10192   7.011  18.114   7.187  0.0782  0.1246  0.0291
  662POPI   C1B10193   6.561  19.173   6.484  0.2115 -0.1749 -0.1932
  662POPI   C2B10194   6.344  19.321   6.794  0.1409  0.2604  0.1714
  662POPI   C3B10195   6.311  19.406   7.334 -0.2516  0.0970  0.0321
  662POPI   C4B10196   6.253  19.565   7.727  0.2552 -0.0646  0.1888
  663POPI    C110197   0.774  11.517   5.518 -0.0114 -0.0794 -0.0834
  663POPI    C210198   0.727  11.322   5.172 -0.4025 -0.0269 -0.0650
  663POPI    C310199   0.886  11.689   5.175  0.0604 -0.2206 -0.1312
  663POPI   PO410200   0.873  11.320   5.689 -0.1038  0.4252 -0.0308
  663POPI   GL110201   0.931  11.246   6.115 -0.0597  0.3658 -0.2325
  663POPI   GL210202   1.282  11.262   6.036 -0.1709  0.2167  0.0396
  663POPI   C1A10203   0.745  11.065   6.560  0.0719  0.0411  0.2084
  663POPI   D2A10204   0.835  11.265   6.967  0.0383 -0.0217 -0.1129
  663POPI   C3A10205   0.635  10.845   7.109 -0.1579 -0.1907  0.1890
  663POPI   C4A10206   0.384  10.498   7.013 -0.2220 -0.2987 -0.1736
  663POPI   C1B10207   1.450  11.391   6.395 -0.1169  0.2990  0.4389
  663POPI   C2B10208   1.704  11.407   6.843  0.0402 -0.0429 -0.1366
  663POPI   C3B10209   1.707  11.136   7.186 -0.1452  0.2332  0.3641
  663POPI   C4B10210   1.600  11.023   7.585 -0.2198  0.2501  0.0492
  664POPI    C110211   3.153  15.255   5.335 -0.1558  0.1150  0.0118
  664POPI    C210212   2.793  15.105   5.248 -0.1043 -0.0304  0.0466
  664POPI    C310213   3.110  14.863   5.271 -0.0205  0.0840  0.1066
  664POPI   PO410214   3.110  15.427   5.559  0.0662 -0.0628  0.0037
  664POPI   GL110215   3.352  15.351   5.922 -0.0301 -0.1105 -0.1636
  664POPI   GL210216   3.176  15.473   6.075  0.0170 -0.1734  0.0752
  664POPI   C1A10217   3.569  15.264   6.262  0.0810 -0.2649  0.2476
  664POPI   D2A10218   3.766  15.055   6.486  0.0336 -0.2587 -0.1153
  664POPI   C3A10219   3.826  15.018   6.940 -0.0115 -0.0880  0.1142
  664POPI   C4A10220   4.031  15.205   7.318 -0.1491 -0.0121  0.1908
  664POPI   C1B10221   3.247  15.451   6.543  0.0701 -0.0457  0.2512
  664POPI   C2B10222   3.337  15.259   6.786 -0.2297  0.0538  0.2307
  664POPI   C3B10223   3.267  15.119   7.263 -0.2203  0.1794  0.1179
  664POPI   C4B10224   3.502  14.991   7.629 -0.0921 -0.1841  0.1200
  665POPI    C110225   8.640   5.717   5.868  0.0723 -0.3400  0.1555
  665POPI    C210226   8.739   5.805   5.490  0.0021 -0.0099  0.2113
  665POPI    C310227   8.357   5.733   5.586 -0.0215  0.1886  0.2704
  665POPI   PO410228   8.889   5.609   5.959 -0.4608  0.0702  0.1578
  665POPI   GL110229   8.932   5.492   6.399 -0.0932  0.4106 -0.2322
  665POPI   GL210230   9.098   5.802   6.409  0.2433  0.0249 -0.1624
  665POPI   C1A10231   8.685   5.228   6.557 -0.0964 -0.3239  0.0004
  665POPI   D2A10232   8.479   4.731   6.679 -0.2784  0.1939 -0.1515
  665POPI   C3A10233   8.694   4.377   6.896  0.3168  0.4046 -0.1206
  665POPI   C4A10234   8.889   3.978   6.808  0.0253 -0.0458  0.3789
  665POPI   C1B10235   8.845   5.994   6.768 -0.1233 -0.1861  0.1915
  665POPI   C2B10236   8.709   6.263   7.203 -0.1200 -0.0818  0.4353
  665POPI   C3B10237   8.314   6.258   7.448 -0.0580 -0.0878  0.1937
  665POPI   C4B10238   8.019   5.941   7.611 -0.4824 -0.0433  0.0708
  666POPI    C110239  14.067  10.096   5.110 -0.1449 -0.0915 -0.1539
  666POPI    C210240  14.445  10.167   5.001 -0.0460 -0.2946  0.0491
  666POPI    C310241  14.224   9.905   4.796 -0.1042 -0.1174 -0.1179
  666POPI   PO410242  14.122  10.157   5.344  0.1054  0.1248  0.0401
  666POPI   GL110243  14.348   9.979   5.757  0.0429 -0.2137 -0.0062
  666POPI   GL210244  14.603   9.955   6.019  0.1798 -0.0889  0.2809
  666POPI   C1A10245  14.174   9.783   6.147 -0.1009  0.1380 -0.1248
  666POPI   D2A10246  13.927   9.885   6.509 -0.0535  0.1264  0.2009
  666POPI   C3A10247  13.811   9.919   6.932 -0.3320  0.0962  0.2162
  666POPI   C4A10248  13.537  10.232   7.196  0.0439 -0.0766  0.0269
  666POPI   C1B10249  14.560  10.075   6.414  0.2300  0.1247  0.3732
  666POPI   C2B10250  14.745   9.924   6.797 -0.0062  0.0208  0.0240
  666POPI   C3B10251  14.993   9.806   7.174  0.0568  0.2502 -0.1019
  666POPI   C4B10252  14.914   9.607   7.523  0.1257  0.0997 -0.0995
  667POPI    C110253   1.292  17.060   5.358  0.0925  0.0863 -0.1656
  667POPI    C210254   1.629  17.129   5.154  0.1925  0.2698  0.0574
  667POPI    C310255   1.277  17.253   5.008  0.1771 -0.1992 -0.3306
  667POPI   PO410256   1.430  17.074   5.632  0.0884 -0.1570  0.1387
  667POPI   GL110257   1.355  17.226   5.976  0.2177  0.3281  0.1905
  667POPI   GL210258   1.637  17.367   5.991  0.0270 -0.1021  0.3622
  667POPI   C1A10259   1.304  17.283   6.394 -0.4465 -0.1488  0.0737
  667POPI   D2A10260   1.274  17.208   6.785 -0.0076 -0.2741 -0.4694
  667POPI   C3A10261   1.268  17.350   7.174 -0.2782  0.0545 -0.2361
  667POPI   C4A10262   1.335  17.425   7.659 -0.0535 -0.0197 -0.0242
  667POPI   C1B10263   1.831  17.406   6.455  0.2398 -0.0589 -0.0286
  667POPI   C2B10264   1.751  17.332   6.920 -0.0114 -0.0731  0.0510
  667POPI   C3B10265   1.760  17.476   7.383 -0.2192 -0.1228 -0.0337
  667POPI   C4B10266   1.735  17.321   7.875  0.2098 -0.0603  0.1327
  668POPI    C110267  15.503   1.703   6.212  0.0142 -0.0135  0.1405
  668POPI    C210268  15.735   1.621   5.897 -0.3117 -0.0010 -0.1082
  668POPI    C310269  15.350   1.513   5.896 -0.3939  0.2722  0.1574
  668POPI   PO410270  15.586   1.562   6.436 -0.0798 -0.0857 -0.1460
  668POPI   GL110271  15.640   1.201   6.663 -0.0667  0.0487  0.1039
  668POPI   GL210272  15.334   1.362   6.812  0.1353  0.0725  0.0041
  668POPI   C1A10273  15.867   1.366   6.909  0.0462  0.1686 -0.0243
  668POPI   D2A10274  16.034   1.196   7.254  0.4667 -0.1601  0.0312
  668POPI   C3A10275  16.270   0.954   7.600  0.3015 -0.0507 -0.1339
  668POPI   C4A10276  16.452   1.084   7.914 -0.3236 -0.0918  0.2059
  668POPI   C1B10277  15.536   1.679   7.136 -0.0635 -0.0620  0.0132
  668POPI   C2B10278  15.941   1.656   7.341  0.1178  0.0270  0.3066
  668POPI   C3B10279  16.362   1.497   7.591  0.1419  0.1243  0.0121
  668POPI   C4B10280  16.545   1.692   7.901  0.3800  0.2837 -0.2383
  669POPI    C110281  17.876  10.017   5.171  0.2306  0.0944  0.0890
  669POPI    C210282  17.878  10.331   5.419  0.0785  0.1847 -0.0223
  669POPI    C310283  18.161  10.296   5.138 -0.0827  0.3892 -0.2140
  669POPI   PO410284  17.733   9.790   5.369  0.1767 -0.0939  0.1639
  669POPI   GL110285  17.954   9.455   5.576  0.1431  0.2092  0.3467
  669POPI   GL210286  18.208   9.316   5.555  0.1060  0.0938 -0.0723
  669POPI   C1A10287  17.900   9.385   6.038  0.0556 -0.4055  0.0907
  669POPI   D2A10288  17.794   9.186   6.494  0.2747  0.4132 -0.2689
  669POPI   C3A10289  17.458   8.967   6.689 -0.1013  0.0474  0.1299
  669POPI   C4A10290  17.071   9.125   6.829 -0.2843  0.0469  0.1306
  669POPI   C1B10291  18.376   9.313   5.982 -0.1052 -0.2121 -0.0340
  669POPI   C2B10292  18.411   9.454   6.355 -0.5275 -0.3268  0.0540
  669POPI   C3B10293  18.206   9.334   6.714  0.1306 -0.1706  0.4004
  669POPI   C4B10294  18.015   9.148   7.068 -0.2972 -0.2027  0.0817
  670POPI    C110295   9.721   9.048   5.800  0.1681  0.2272 -0.2325
  670POPI    C210296   9.482   8.789   5.610  0.4339 -0.0813 -0.1561
  670POPI    C310297   9.324   9.098   5.810  0.1080 -0.2128 -0.2035
  670POPI   PO410298   9.833   9.008   6.006 -0.0111  0.4073  0.1123
  670POPI   GL110299  10.158   8.853   6.369  0.2756  0.1064 -0.0486
  670POPI   GL210300   9.903   8.682   6.333  0.1739  0.2428  0.1335
  670POPI   C1A10301  10.178   9.216   6.662 -0.0527 -0.5090  0.2898
  670POPI   D2A10302   9.998   9.590   7.016  0.1253  0.2814  0.2166
  670POPI   C3A10303   9.677   9.507   7.376 -0.3512 -0.0562  0.3412
  670POPI   C4A10304   9.549   9.403   7.682 -0.1062 -0.1753 -0.1176
  670POPI   C1B10305   9.627   8.416   6.689 -0.3316 -0.3248 -0.2417
  670POPI   C2B10306   9.589   8.354   7.141  0.2226  0.2095  0.0085
  670POPI   C3B10307   9.400   8.455   7.471  0.2374  0.4685  0.1544
  670POPI   C4B10308   9.214   8.830   7.591 -0.1581 -0.1536  0.0083
  671POPI    C110309   8.951   7.556   5.739 -0.1899  0.2774 -0.0331
  671POPI    C210310   9.106   7.883   5.569 -0.0483  0.1782 -0.0976
  671POPI    C310311   9.024   7.562   5.346  0.1123  0.0567  0.0162
  671POPI   PO410312   8.988   7.514   5.965  0.1019 -0.0838  0.5405
  671POPI   GL110313   9.018   7.451   6.285  0.1168  0.0061 -0.3715
  671POPI   GL210314   9.135   7.270   6.530 -0.1437 -0.0058 -0.1069
  671POPI   C1A10315   8.804   7.592   6.747 -0.1593  0.2076  0.2806
  671POPI   D2A10316   8.287   7.749   6.917 -0.1071  0.0769  0.3417
  671POPI   C3A10317   8.330   7.742   7.296 -0.2249 -0.3304 -0.4690
  671POPI   C4A10318   8.030   7.804   7.598 -0.5083 -0.2356  0.0967
  671POPI   C1B10319   9.220   7.236   6.913 -0.3970  0.0975 -0.2041
  671POPI   C2B10320   8.957   7.242   7.208 -0.1457 -0.0534  0.1431
  671POPI   C3B10321   8.784   7.590   7.434  0.2037 -0.0460  0.0275
  671POPI   C4B10322   8.630   7.812   7.846  0.1093  0.2857 -0.0520
  672POPI    C110323   2.260   2.343   5.877 -0.1226  0.1027 -0.0459
  672POPI    C210324   2.442   2.139   5.586  0.0225  0.0890  0.0537
  672POPI    C310325   2.043   2.164   5.592 -0.0091 -0.3495  0.1436
  672POPI   PO410326   2.312   2.302   6.149 -0.0084 -0.2465 -0.0294
  672POPI   GL110327   2.165   2.494   6.578  0.2947  0.1408  0.1813
  672POPI   GL210328   2.254   2.659   6.713 -0.0621 -0.0825 -0.2100
  672POPI   C1A10329   2.022   2.135   6.839  0.0191  0.3539  0.3235
  672POPI   D2A10330   2.134   1.826   7.084  0.0253  0.2561  0.4769
  672POPI   C3A10331   1.920   1.776   7.397 -0.1296  0.1266  0.1398
  672POPI   C4A10332   1.451   1.899   7.426 -0.2283  0.1144  0.1581
  672POPI   C1B10333   2.152   2.584   7.109 -0.1618  0.1848 -0.4002
  672POPI   C2B10334   2.213   2.610   7.558  0.0893 -0.0288  0.2141
  672POPI   C3B10335   2.498   2.872   7.792  0.4226 -0.0693 -0.0048
  672POPI   C4B10336   2.433   3.269   8.007 -0.0286  0.0782 -0.4437
  673POPI    C110337   9.849   7.126   5.904  0.0423  0.2641  0.1026
  673POPI    C210338   9.996   6.801   5.723 -0.4265 -0.0537  0.2727
  673POPI    C310339   9.874   7.113   5.505  0.1658  0.0804  0.1151
  673POPI   PO410340   9.975   7.212   6.086  0.0972  0.2120 -0.2177
  673POPI   GL110341   9.856   7.135   6.464 -0.2902  0.0814  0.2386
  673POPI   GL210342   9.587   6.996   6.497 -0.0753  0.0206  0.1029
  673POPI   C1A10343   9.874   7.442   6.814  0.4657 -0.0064 -0.0377
  673POPI   D2A10344   9.953   7.906   6.911 -0.1908  0.1661 -0.0740
  673POPI   C3A10345   9.901   8.024   7.322  0.2740  0.0734  0.2196
  673POPI   C4A10346  10.024   8.438   7.421  0.0378  0.0531  0.1121
  673POPI   C1B10347   9.460   6.816   6.824 -0.1305 -0.2105  0.0128
  673POPI   C2B10348   9.313   6.869   7.268  0.2254 -0.0342 -0.1219
  673POPI   C3B10349   9.409   7.374   7.361 -0.3264  0.1340  0.0161
  673POPI   C4B10350   9.593   7.473   7.804  0.1542  0.0404  0.0586
  674POPI    C110351  17.417   3.939   5.532  0.3080  0.2109  0.1246
  674POPI    C210352  17.435   3.594   5.735 -0.1076  0.0649 -0.0736
  674POPI    C310353  17.710   3.678   5.457 -0.1810 -0.2551 -0.2470
  674POPI   PO410354  17.338   4.121   5.760  0.0765  0.0497  0.2107
  674POPI   GL110355  17.226   3.985   6.165 -0.2031  0.4260  0.1773
  674POPI   GL210356  17.166   4.324   6.189 -0.2109  0.0805 -0.0116
  674POPI   C1A10357  17.614   4.216   6.371  0.1438  0.0191 -0.0697
  674POPI   D2A10358  17.817   4.134   6.714  0.2159  0.0826  0.3456
  674POPI   C3A10359  17.634   4.112   7.098  0.0984  0.4089 -0.0701
  674POPI   C4A10360  17.201   4.023   7.334 -0.2290 -0.1605 -0.1963
  674POPI   C1B10361  17.147   4.777   6.379 -0.1478 -0.1097 -0.1614
  674POPI   C2B10362  17.176   4.903   6.796 -0.0543 -0.0347  0.3166
  674POPI   C3B10363  17.150   5.015   7.205 -0.2398  0.0253  0.0460
  674POPI   C4B10364  17.155   5.152   7.568  0.0102  0.0111 -0.1189
  675POPI    C110365  14.066  17.949   5.976 -0.3260 -0.1465  0.0865
  675POPI    C210366  14.138  18.230   6.252 -0.1276 -0.0375 -0.0734
  675POPI    C310367  13.763  18.158   6.132 -0.1815  0.1463 -0.0175
  675POPI   PO410368  14.096  17.726   6.062 -0.3505 -0.0909  0.1315
  675POPI   GL110369  13.926  17.647   6.364  0.3230 -0.3064 -0.2536
  675POPI   GL210370  14.013  17.789   6.666 -0.2311  0.0430  0.0089
  675POPI   C1A10371  13.772  17.225   6.535  0.1093  0.0043 -0.1923
  675POPI   D2A10372  13.772  16.851   6.680  0.0408 -0.0467 -0.1837
  675POPI   C3A10373  13.525  16.728   7.035 -0.2755  0.2339  0.1190
  675POPI   C4A10374  13.431  16.835   7.400  0.0336  0.0830  0.0725
  675POPI   C1B10375  13.780  17.805   7.085 -0.1351 -0.2153  0.3463
  675POPI   C2B10376  13.885  17.773   7.534 -0.1813  0.3086 -0.2155
  675POPI   C3B10377  13.757  17.511   7.856  0.1479  0.0711 -0.0416
  675POPI   C4B10378  13.664  17.229   8.193  0.1899 -0.0846  0.1100
  676POPI    C110379  11.837   2.431   5.973  0.2799  0.0819 -0.0988
  676POPI    C210380  11.690   2.305   5.623 -0.0882 -0.0689  0.1044
  676POPI    C310381  11.638   2.685   5.737 -0.2569 -0.1021  0.1402
  676POPI   PO410382  11.780   2.260   6.150 -0.3633  0.3308 -0.1310
  676POPI   GL110383  11.518   2.121   6.365 -0.0297 -0.4609 -0.0027
  676POPI   GL210384  11.210   2.171   6.446 -0.1110  0.4666 -0.2877
  676POPI   C1A10385  11.683   2.087   6.854  0.4643 -0.4422 -0.0862
  676POPI   D2A10386  11.767   1.756   7.047 -0.0667  0.2975 -0.0496
  676POPI   C3A10387  11.933   1.883   7.360 -0.0906 -0.2444 -0.0477
  676POPI   C4A10388  12.316   2.092   7.190  0.1491  0.3267 -0.0509
  676POPI   C1B10389  11.194   1.953   6.804 -0.1481  0.2154 -0.1429
  676POPI   C2B10390  10.984   1.736   7.260  0.0763  0.0900 -0.2990
  676POPI   C3B10391  10.979   2.024   7.649  0.1273 -0.1536 -0.2040
  676POPI   C4B10392  11.079   2.349   7.780 -0.3446 -0.2189  0.0681
  677POPI    C110393  15.828  11.119   4.990  0.1116  0.1127  0.0297
  677POPI    C210394  15.735  11.335   4.667  0.2384 -0.0319 -0.1047
  677POPI    C310395  16.040  11.076   4.654  0.1023 -0.2034  0.0610
  677POPI   PO410396  15.616  11.199   5.123 -0.3606  0.3843 -0.1466
  677POPI   GL110397  15.486  11.495   5.504 -0.2716 -0.3946 -0.0281
  677POPI   GL210398  15.603  11.249   5.604 -0.1609  0.0460 -0.0751
  677POPI   C1A10399  15.490  11.744   5.874 -0.0595  0.0857  0.1203
  677POPI   D2A10400  15.706  12.044   6.261 -0.1268 -0.2528 -0.0080
  677POPI   C3A10401  15.633  12.137   6.623 -0.0421 -0.1353  0.0923
  677POPI   C4A10402  15.396  12.330   6.844  0.0834  0.0052 -0.2213
  677POPI   C1B10403  15.457  11.244   6.036  0.2708 -0.3154 -0.0128
  677POPI   C2B10404  15.274  11.364   6.388  0.1163  0.4142  0.0116
  677POPI   C3B10405  15.129  11.166   6.693  0.0636 -0.1889 -0.0605
  677POPI   C4B10406  14.980  10.913   7.029  0.1728  0.2050  0.1661
  678POPI    C110407   4.850   5.430   6.206 -0.2922  0.1874  0.0124
  678POPI    C210408   4.713   5.550   5.850  0.0340  0.0495 -0.1636
  678POPI    C310409   5.081   5.395   5.881 -0.0911 -0.1882  0.1892
  678POPI   PO410410   4.640   5.299   6.278  0.1229 -0.3069 -0.4674
  678POPI   GL110411   4.463   5.253   6.615  0.2171  0.0865  0.0296
  678POPI   GL210412   4.316   5.565   6.528 -0.2732 -0.2685  0.0019
  678POPI   C1A10413   4.652   5.348   7.045  0.1194  0.0589 -0.0620
  678POPI   D2A10414   4.462   5.468   7.402 -0.1029 -0.1229 -0.0324
  678POPI   C3A10415   4.646   5.287   7.799  0.0168  0.0970 -0.0929
  678POPI   C4A10416   4.969   5.192   8.131 -0.0249  0.0584 -0.1561
  678POPI   C1B10417   4.158   5.620   6.968  0.0242 -0.2741 -0.2071
  678POPI   C2B10418   4.066   5.697   7.361  0.3447 -0.0233  0.0127
  678POPI   C3B10419   3.788   5.789   7.671  0.2227 -0.0775  0.0469
  678POPI   C4B10420   3.706   6.014   8.079 -0.2765  0.0095 -0.0212
  679POPI    C110421   5.150   1.350   5.786 -0.1012  0.0117 -0.0167
  679POPI    C210422   5.123   1.437   5.397 -0.2501  0.0079 -0.0078
  679POPI    C310423   5.390   1.627   5.626  0.0955 -0.2521 -0.1862
  679POPI   PO410424   4.879   1.240   5.743 -0.0090  0.2703 -0.2592
  679POPI   GL110425   4.706   0.854   5.959 -0.0833  0.1582 -0.1826
  679POPI   GL210426   5.031   0.871   6.150 -0.0138 -0.2347  0.1980
  679POPI   C1A10427   4.453   1.037   6.429  0.2598  0.0289  0.2868
  679POPI   D2A10428   4.167   0.751   6.725  0.0059 -0.0743  0.5749
  679POPI   C3A10429   4.014   0.925   7.115 -0.1503  0.1099 -0.0833
  679POPI   C4A10430   4.129   1.292   7.437  0.0527  0.3493  0.2202
  679POPI   C1B10431   5.006   0.972   6.544 -0.0566 -0.1303 -0.0459
  679POPI   C2B10432   5.022   0.636   6.831 -0.2414 -0.1406 -0.2399
  679POPI   C3B10433   5.132   0.315   7.236 -0.0259  0.1717  0.3041
  679POPI   C4B10434   5.133  -0.081   7.507 -0.0020 -0.5816  0.1958
  680POPI    C110435  14.246   4.547   5.991  0.0505 -0.0362  0.1587
  680POPI    C210436  14.044   4.359   6.281 -0.0894  0.1645  0.1938
  680POPI    C310437  13.858   4.461   5.941  0.0666 -0.0435  0.0434
  680POPI   PO410438  14.383   4.740   6.085  0.0545 -0.0152 -0.2001
  680POPI   GL110439  14.367   5.140   6.226  0.4119 -0.0727 -0.0337
  680POPI   GL210440  14.435   5.445   6.255  0.0014  0.1653  0.1555
  680POPI   C1A10441  14.395   5.154   6.702  0.2049  0.4865  0.0610
  680POPI   D2A10442  14.248   4.923   7.147 -0.4787  0.2522 -0.0459
  680POPI   C3A10443  14.337   5.062   7.541 -0.2138 -0.2394 -0.0981
  680POPI   C4A10444  14.278   5.513   7.681  0.0277  0.0572  0.5861
  680POPI   C1B10445  14.728   5.493   6.404 -0.0906 -0.1208 -0.1800
  680POPI   C2B10446  15.147   5.562   6.539  0.0236  0.1306  0.1451
  680POPI   C3B10447  15.399   5.235   6.727  0.4152 -0.1325  0.1283
  680POPI   C4B10448  15.763   5.064   6.969 -0.0780 -0.3552 -0.0269
  681POPI    C110449  10.282   6.189   6.298  0.3428 -0.0994 -0.2915
  681POPI    C210450  10.151   6.323   5.945 -0.1933  0.1005 -0.0286
  681POPI    C310451   9.904   6.121   6.187  0.1715 -0.0472  0.2297
  681POPI   PO410452  10.435   6.364   6.333  0.1846  0.2221 -0.3263
  681POPI   GL110453  10.241   6.608   6.645  0.0300 -0.1080 -0.2784
  681POPI   GL210454  10.369   6.419   6.877  0.0301  0.0752 -0.0931
  681POPI   C1A10455   9.958   6.915   6.871  0.0223  0.1189  0.1684
  681POPI   D2A10456   9.787   7.078   7.219  0.0919 -0.0678  0.0134
  681POPI   C3A10457   9.959   7.495   7.394 -0.1018  0.0205 -0.0919
  681POPI   C4A10458  10.034   7.842   7.726 -0.1924 -0.3069  0.1295
  681POPI   C1B10459  10.359   6.554   7.293  0.2720 -0.0912  0.0417
  681POPI   C2B10460  10.568   6.294   7.587 -0.0619  0.2310 -0.1513
  681POPI   C3B10461  10.831   6.004   7.881  0.2988  0.1131  0.0074
  681POPI   C4B10462  10.933   6.188   8.259 -0.2583  0.2168  0.3998
  682POPS   CNO10463   7.646   6.679   6.123  0.1085 -0.0137  0.1400
  682POPS   PO410464   7.529   7.016   6.265 -0.1473  0.2039  0.0415
  682POPS   GL110465   7.710   7.032   6.659 -0.0332  0.1833 -0.2765
  682POPS   GL210466   8.027   7.150   6.597 -0.1486 -0.2302  0.3345
  682POPS   C1A10467   7.602   6.900   7.047  0.1367  0.0405  0.0448
  682POPS   D2A10468   7.766   6.811   7.428 -0.1835 -0.3066  0.2263
  682POPS   C3A10469   7.864   6.482   7.540 -0.1318  0.2056 -0.1448
  682POPS   C4A10470   7.572   6.062   7.746 -0.1579  0.0133 -0.2899
  682POPS   C1B10471   7.950   7.243   7.056 -0.1795  0.3495 -0.3187
  682POPS   C2B10472   7.964   7.281   7.520 -0.2173 -0.3950  0.0454
  682POPS   C3B10473   7.997   7.377   7.999  0.0005  0.3017  0.3840
  682POPS   C4B10474   8.213   7.642   8.079 -0.2478 -0.1610 -0.0192
  683POPS   CNO10475  13.642   7.136   5.455 -0.2074 -0.1841  0.1569
  683POPS   PO410476  13.373   7.046   5.762  0.0461  0.2023 -0.2015
  683POPS   GL110477  13.180   6.989   6.216 -0.1097  0.2667  0.2976
  683POPS   GL210478  12.830   7.147   6.363  0.3406 -0.2094 -0.0156
  683POPS   C1A10479  13.137   6.935   6.657  0.0403 -0.2365 -0.0681
  683POPS   D2A10480  12.903   6.941   6.985 -0.1150 -0.1594 -0.0486
  683POPS   C3A10481  12.856   7.094   7.340 -0.0116  0.1166  0.0818
  683POPS   C4A10482  12.659   7.492   7.572  0.0799 -0.0471  0.1005
  683POPS   C1B10483  12.960   7.686   6.304 -0.1113 -0.0117  0.1076
  683POPS   C2B10484  13.146   7.862   6.713  0.1745 -0.1848  0.1164
  683POPS   C3B10485  12.954   8.136   6.990 -0.1400  0.1279  0.0463
  683POPS   C4B10486  13.131   8.406   7.344  0.2537  0.0959 -0.0462
  684POPS   CNO10487  11.173   2.958   5.831 -0.3407  0.1419  0.0183
  684POPS   PO410488  10.925   3.059   6.037  0.2657 -0.0716 -0.0631
  684POPS   GL110489  10.802   2.934   6.366 -0.2954  0.1307 -0.0507
  684POPS   GL210490  11.055   2.878   6.619 -0.1029  0.0828  0.1059
  684POPS   C1A10491  10.531   2.768   6.801 -0.0895  0.0011 -0.0741
  684POPS   D2A10492  10.584   2.637   7.152  0.1031  0.1750 -0.1045
  684POPS   C3A10493  10.978   2.544   7.341 -0.1773  0.0042 -0.0582
  684POPS   C4A10494  11.378   2.677   7.126 -0.0993 -0.0424  0.0164
  684POPS   C1B10495  10.953   2.912   7.069 -0.2972 -0.1334 -0.0347
  684POPS   C2B10496  10.815   3.172   7.421 -0.3930 -0.0511 -0.1369
  684POPS   C3B10497  10.709   3.338   7.872  0.3299  0.1493 -0.2366
  684POPS   C4B10498  10.397   3.343   8.228 -0.1302 -0.1057 -0.0627
  685POPS   CNO10499  11.157   1.146   6.071 -0.0956  0.3622 -0.1089
  685POPS   PO410500  10.709   1.252   6.104 -0.0453  0.0863 -0.1639
  685POPS   GL110501  10.469   1.143   6.497  0.1974  0.0834  0.1734
  685POPS   GL210502  10.480   0.811   6.610  0.2564  0.0619  0.1137
  685POPS   C1A10503  10.470   1.102   7.007 -0.0792 -0.1938 -0.1425
  685POPS   D2A10504  10.757   1.258   7.312 -0.0049  0.1398 -0.2802
  685POPS   C3A10505  10.568   1.320   7.746  0.0469 -0.1298 -0.0982
  685POPS   C4A10506  10.364   0.980   8.037  0.1665 -0.3709  0.3727
  685POPS   C1B10507  10.224   0.698   6.974  0.3313 -0.2460 -0.0862
  685POPS   C2B10508   9.982   0.504   7.234  0.1784  0.1382 -0.2724
  685POPS   C3B10509   9.924   0.270   7.539 -0.0780  0.2670 -0.0660
  685POPS   C4B10510   9.821   0.065   7.921  0.1781 -0.2329 -0.1043
  686POPS   CNO10511   7.649   8.172   5.523  0.0117 -0.2853  0.1356
  686POPS   PO410512   7.718   8.595   5.677  0.0332  0.0399  0.0995
  686POPS   GL110513   7.780   8.694   6.172  0.1032 -0.0357 -0.0249
  686POPS   GL210514   8.087   8.575   6.285  0.0473  0.0934  0.2539
  686POPS   C1A10515   7.802   8.787   6.662  0.0059  0.1893  0.1742
  686POPS   D2A10516   7.744   8.889   7.224  0.0739  0.0818 -0.1664
  686POPS   C3A10517   7.863   8.726   7.518  0.0394  0.3283  0.2193
  686POPS   C4A10518   8.179   8.603   7.798  0.1758 -0.1758 -0.3042
  686POPS   C1B10519   8.333   8.454   6.599 -0.0848  0.0309 -0.0666
  686POPS   C2B10520   8.629   8.557   6.880  0.0114  0.2347 -0.2839
  686POPS   C3B10521   8.669   8.628   7.405 -0.2717  0.0578  0.5229
  686POPS   C4B10522   8.801   8.703   7.861 -0.3146 -0.0234  0.0067
  687POPS   CNO10523   0.159  12.571   5.077  0.1641 -0.3402 -0.0063
  687POPS   PO410524   0.482  12.532   5.295  0.0526 -0.0466 -0.1583
  687POPS   GL110525   0.407  12.553   5.763  0.2242  0.1854 -0.0238
  687POPS   GL210526   0.039  12.524   5.723 -0.1951 -0.2099  0.2527
  687POPS   C1A10527   0.381  12.850   6.159 -0.0167  0.1892 -0.2413
  687POPS   D2A10528   0.577  12.884   6.568  0.0955  0.2760  0.3895
  687POPS   C3A10529   0.673  12.663   6.924 -0.2811  0.2499  0.4173
  687POPS   C4A10530   0.652  12.777   7.423 -0.3521 -0.1260 -0.0796
  687POPS   C1B10531  -0.023  12.483   6.156 -0.0456  0.2390 -0.2616
  687POPS   C2B10532   0.152  12.452   6.533 -0.0698 -0.0973 -0.1260
  687POPS   C3B10533   0.026  12.468   6.884  0.0615 -0.3035  0.1602
  687POPS   C4B10534  -0.086  12.405   7.251 -0.1332  0.0856 -0.0659
  688POPS   CNO10535   3.953  15.956   5.088  0.1205 -0.0443  0.0045
  688POPS   PO410536   4.072  15.682   5.419 -0.3451  0.1555 -0.2595
  688POPS   GL110537   4.117  15.849   5.813 -0.2168  0.0057 -0.0346
  688POPS   GL210538   3.956  16.107   6.076  0.0662  0.1418 -0.0420
  688POPS   C1A10539   4.396  16.016   6.169  0.2583  0.0955 -0.1403
  688POPS   D2A10540   4.595  15.754   6.435  0.2072  0.0935  0.2544
  688POPS   C3A10541   4.560  15.739   6.896 -0.0912 -0.2324 -0.1503
  688POPS   C4A10542   4.267  15.618   7.145  0.2649 -0.2681 -0.3113
  688POPS   C1B10543   3.823  15.741   6.313 -0.0342  0.0825 -0.3148
  688POPS   C2B10544   3.766  15.582   6.736  0.0066 -0.1638  0.0423
  688POPS   C3B10545   3.600  15.465   7.157  0.1171 -0.3761  0.0560
  688POPS   C4B10546   3.353  15.683   7.466  0.2064 -0.1020  0.1719
  689POPS   CNO10547   8.154  13.839   5.149  0.0073 -0.6284 -0.1381
  689POPS   PO410548   8.057  13.790   5.569  0.2347 -0.1878 -0.0364
  689POPS   GL110549   8.059  14.054   5.876 -0.4885 -0.3838  0.1135
  689POPS   GL210550   8.412  14.054   6.019 -0.0354  0.1214  0.0504
  689POPS   C1A10551   7.913  14.084   6.293  0.1405 -0.1717 -0.0204
  689POPS   D2A10552   7.856  13.912   6.620 -0.0122  0.1304 -0.2006
  689POPS   C3A10553   7.798  13.920   7.027  0.3769 -0.0186  0.3501
  689POPS   C4A10554   8.198  14.026   7.306  0.5228 -0.1046  0.1996
  689POPS   C1B10555   8.323  13.997   6.487 -0.1463 -0.1603  0.0037
  689POPS   C2B10556   8.308  13.850   6.868 -0.0680  0.1706 -0.2952
  689POPS   C3B10557   8.214  13.497   7.112 -0.2948 -0.1098 -0.2469
  689POPS   C4B10558   8.133  13.025   7.220  0.2242  0.1466 -0.1488
  690POPS   CNO10559   3.977  17.529   5.169  0.0163  0.2973  0.0959
  690POPS   PO410560   3.817  17.231   5.359 -0.1450  0.1937  0.0133
  690POPS   GL110561   4.043  17.386   5.711  0.2455 -0.0120  0.3097
  690POPS   GL210562   3.954  17.620   5.667  0.0400 -0.0414  0.2025
  690POPS   C1A10563   4.137  17.236   6.203 -0.1647 -0.0221 -0.1923
  690POPS   D2A10564   4.192  17.426   6.585 -0.0531  0.1676  0.1328
  690POPS   C3A10565   3.920  17.201   6.956  0.1737 -0.0563  0.0076
  690POPS   C4A10566   3.938  16.923   7.406 -0.1784 -0.3394  0.3456
  690POPS   C1B10567   3.561  17.569   5.995  0.0972  0.0925 -0.1339
  690POPS   C2B10568   3.284  17.714   6.256 -0.3836 -0.1186 -0.2003
  690POPS   C3B10569   3.362  17.924   6.553 -0.2031 -0.1405  0.0741
  690POPS   C4B10570   3.517  18.065   6.927  0.1288 -0.1171  0.1076
  691POPS   CNO10571   1.174  10.379   5.304 -0.0417 -0.2369 -0.1645
  691POPS   PO410572   1.205  10.025   5.528  0.3576  0.1126  0.2070
  691POPS   GL110573   1.289   9.919   5.982 -0.2939  0.5565  0.1249
  691POPS   GL210574   1.503   9.687   6.064 -0.1090  0.3154 -0.0295
  691POPS   C1A10575   1.523  10.245   6.309 -0.4670 -0.3154  0.4015
  691POPS   D2A10576   1.824  10.401   6.624  0.2467 -0.0231 -0.2264
  691POPS   C3A10577   2.246  10.441   6.863  0.2927  0.1677  0.0293
  691POPS   C4A10578   2.494  10.381   7.153 -0.2421 -0.3359  0.1426
  691POPS   C1B10579   1.539   9.761   6.446 -0.1182 -0.1868 -0.1150
  691POPS   C2B10580   1.410  10.163   6.779  0.2090  0.2312 -0.1935
  691POPS   C3B10581   1.475  10.370   7.139  0.1171 -0.2525  0.1379
  691POPS   C4B10582   1.427  10.530   7.577 -0.3411  0.0801  0.2139
  692POPS   CNO10583  11.963  17.418   5.939  0.1604 -0.2318  0.1894
  692POPS   PO410584  11.593  17.696   5.807  0.2042 -0.1256 -0.2458
  692POPS   GL110585  11.543  17.592   6.324  0.0406  0.2150  0.1522
  692POPS   GL210586  11.254  17.627   6.569  0.0747  0.0734 -0.0534
  692POPS   C1A10587  11.650  17.296   6.703 -0.0735  0.1459  0.0113
  692POPS   D2A10588  11.640  17.212   7.255 -0.0983 -0.1608 -0.1252
  692POPS   C3A10589  11.265  17.255   7.460 -0.0714  0.2521  0.1551
  692POPS   C4A10590  10.975  16.987   7.693 -0.0735 -0.1324 -0.1317
  692POPS   C1B10591  11.209  17.432   6.999  0.0105 -0.1363 -0.1196
  692POPS   C2B10592  10.892  17.496   7.263  0.2107 -0.0736  0.1122
  692POPS   C3B10593  10.505  17.647   7.515 -0.0052 -0.0742  0.2103
  692POPS   C4B10594  10.339  18.000   7.437  0.3056 -0.3598 -0.2369
  693POPS   CNO10595  13.609  17.340   5.700 -0.0900  0.0012 -0.0346
  693POPS   PO410596  13.287  17.274   5.868 -0.0129 -0.0855  0.0803
  693POPS   GL110597  13.264  17.389   6.314 -0.0847  0.1936  0.0617
  693POPS   GL210598  13.135  17.727   6.418 -0.0620  0.3403 -0.1256
  693POPS   C1A10599  13.326  17.386   6.778 -0.2444  0.1549 -0.3469
  693POPS   D2A10600  13.596  17.267   7.065 -0.2852  0.1085  0.0248
  693POPS   C3A10601  13.529  17.332   7.479 -0.4462 -0.1123 -0.0617
  693POPS   C4A10602  13.272  17.359   7.872  0.1438  0.0928 -0.0105
  693POPS   C1B10603  13.124  17.799   6.882 -0.1713  0.1183 -0.3912
  693POPS   C2B10604  13.335  17.807   7.354  0.5293  0.0169  0.0650
  693POPS   C3B10605  13.253  17.936   7.700  0.0673 -0.0166  0.1263
  693POPS   C4B10606  13.421  17.817   8.062  0.2660  0.0250 -0.1836
  694POPS   CNO10607   6.604  17.315   5.387 -0.2046  0.1815  0.0695
  694POPS   PO410608   6.998  16.946   5.416 -0.0114 -0.1745 -0.0472
  694POPS   GL110609   6.984  17.079   5.873  0.0210  0.1382  0.2773
  694POPS   GL210610   6.998  16.793   6.089 -0.3513  0.3348  0.1073
  694POPS   C1A10611   6.801  17.143   6.303 -0.0661 -0.0738  0.3224
  694POPS   D2A10612   6.974  17.385   6.626 -0.1044  0.1645 -0.1405
  694POPS   C3A10613   7.143  17.698   6.830 -0.0785 -0.4929 -0.2451
  694POPS   C4A10614   7.283  17.626   7.278 -0.0370  0.2557  0.0002
  694POPS   C1B10615   7.342  16.486   6.109 -0.1086 -0.0737  0.0766
  694POPS   C2B10616   7.541  16.233   6.471  0.1774 -0.3476 -0.3357
  694POPS   C3B10617   7.298  16.253   6.788 -0.1436 -0.0145 -0.0877
  694POPS   C4B10618   6.934  16.476   6.950 -0.2813  0.0141 -0.0141
  695POPS   CNO10619   5.103  17.312   5.507 -0.0953 -0.0169 -0.5021
  695POPS   PO410620   5.247  17.676   5.554  0.3251 -0.3431 -0.0670
  695POPS   GL110621   5.173  17.789   5.930 -0.1514 -0.1346  0.0899
  695POPS   GL210622   5.398  17.592   6.099  0.0331 -0.1969 -0.1041
  695POPS   C1A10623   4.980  17.900   6.328  0.0128 -0.1006 -0.0778
  695POPS   D2A10624   4.962  17.952   6.861 -0.0798 -0.1751  0.2142
  695POPS   C3A10625   4.778  17.848   7.166  0.1770  0.1248 -0.2358
  695POPS   C4A10626   4.942  17.996   7.636 -0.1168  0.0641 -0.1294
  695POPS   C1B10627   5.381  17.713   6.570  0.0776  0.1025 -0.1832
  695POPS   C2B10628   5.437  17.618   7.031  0.0285  0.0207  0.2042
  695POPS   C3B10629   5.666  17.539   7.387 -0.2840 -0.0153  0.0126
  695POPS   C4B10630   5.554  17.820   7.744 -0.1715  0.0734  0.0960
  696POPS   CNO10631  13.108   9.110   4.901  0.0681 -0.2081  0.1866
  696POPS   PO410632  13.283   9.334   5.362 -0.1057  0.2478 -0.2257
  696POPS   GL110633  13.255   9.316   5.823  0.0267  0.3599  0.1059
  696POPS   GL210634  13.559   9.330   5.969  0.0496 -0.1290  0.1624
  696POPS   C1A10635  12.892   9.224   6.093 -0.1262  0.3904  0.1446
  696POPS   D2A10636  12.495   8.974   6.130  0.4132 -0.0356 -0.0283
  696POPS   C3A10637  12.264   9.045   6.530  0.0081 -0.1026 -0.2066
  696POPS   C4A10638  11.973   9.246   6.887 -0.2865  0.1806  0.3606
  696POPS   C1B10639  13.328   9.406   6.305  0.0470 -0.1040 -0.1668
  696POPS   C2B10640  13.106   9.345   6.603  0.2111  0.0456  0.3332
  696POPS   C3B10641  13.287   9.281   7.064 -0.0951 -0.2392 -0.3532
  696POPS   C4B10642  13.177   9.267   7.561  0.2737 -0.1334  0.2955
  697POPS   CNO10643   1.604   6.428   5.761 -0.2332  0.0736  0.1321
  697POPS   PO410644   1.622   6.047   5.816 -0.3298 -0.0455 -0.0431
  697POPS   GL110645   1.719   6.181   6.259  0.0703  0.5098  0.1142
  697POPS   GL210646   1.997   6.124   6.233  0.0188 -0.1001 -0.0408
  697POPS   C1A10647   1.813   5.881   6.624 -0.0621 -0.2742  0.3379
  697POPS   D2A10648   2.128   5.727   6.865  0.2652 -0.0838 -0.3158
  697POPS   C3A10649   1.965   5.606   7.283  0.0099  0.0128 -0.0946
  697POPS   C4A10650   1.739   5.402   7.566  0.1173  0.2700  0.2739
  697POPS   C1B10651   2.246   6.144   6.633  0.0346 -0.1075  0.1125
  697POPS   C2B10652   2.329   6.216   6.994 -0.0714 -0.1565 -0.1193
  697POPS   C3B10653   2.523   6.433   7.323  0.2866 -0.3674  0.1867
  697POPS   C4B10654   2.487   6.810   7.676 -0.1315  0.4329  0.0691
  698POPS   CNO10655  14.344  13.126   5.664  0.5201 -0.1621 -0.1659
  698POPS   PO410656  14.424  12.671   5.503 -0.2418  0.2235 -0.2746
  698POPS   GL110657  14.633  12.764   5.885  0.0018 -0.0904  0.1867
  698POPS   GL210658  14.743  12.469   6.039 -0.1596 -0.1012 -0.2528
  698POPS   C1A10659  14.486  13.023   6.193 -0.1057  0.1446 -0.1457
  698POPS   D2A10660  14.304  13.199   6.577  0.0522  0.0515 -0.0023
  698POPS   C3A10661  14.436  13.076   6.979  0.0073  0.0640 -0.0496
  698POPS   C4A10662  14.299  12.732   7.156  0.4210  0.4525 -0.0941
  698POPS   C1B10663  14.932  12.804   6.262  0.0221 -0.0997  0.0622
  698POPS   C2B10664  14.810  13.116   6.634 -0.1204  0.1553  0.2047
  698POPS   C3B10665  14.989  13.237   6.990 -0.0238 -0.2757 -0.2999
  698POPS   C4B10666  15.060  13.138   7.436  0.0943 -0.2334 -0.0457
  699POPS   CNO10667  10.437  17.207   5.509 -0.0133  0.0497  0.2188
  699POPS   PO410668  10.697  17.567   5.756 -0.0695 -0.0942 -0.1821
  699POPS   GL110669  10.594  17.393   6.177  0.0318 -0.1778 -0.2202
  699POPS   GL210670  10.403  17.572   6.438 -0.4238  0.1970  0.0543
  699POPS   C1A10671  10.273  17.138   6.319  0.0271 -0.4567 -0.1436
  699POPS   D2A10672  10.029  16.832   6.390  0.0863  0.0692 -0.0270
  699POPS   C3A10673  10.263  16.437   6.528 -0.2109 -0.1269  0.2334
  699POPS   C4A10674  10.109  16.034   6.676 -0.0758 -0.0813  0.1392
  699POPS   C1B10675  10.015  17.334   6.726 -0.1716  0.0961 -0.0694
  699POPS   C2B10676   9.649  17.248   6.916  0.1318 -0.1017 -0.1491
  699POPS   C3B10677   9.646  17.084   7.333  0.0917  0.0324  0.1840
  699POPS   C4B10678   9.878  17.186   7.637 -0.0238  0.2436 -0.3209
  700POPS   CNO10679   5.388  10.205   5.163 -0.1717  0.4206  0.0650
  700POPS   PO410680   5.057  10.485   5.221 -0.2107  0.0059  0.1245
  700POPS   GL110681   4.880  10.345   5.643 -0.0942  0.0906 -0.2326
  700POPS   GL210682   5.174  10.601   5.722  0.2071 -0.1051 -0.1274
  700POPS   C1A10683   4.686  10.040   5.959 -0.1694 -0.3138 -0.0968
  700POPS   D2A10684   4.581  10.047   6.401  0.1222  0.0317 -0.1987
  700POPS   C3A10685   4.764   9.952   6.829 -0.0106 -0.0952 -0.4635
  700POPS   C4A10686   4.871  10.104   7.172 -0.0714  0.0748  0.1728
  700POPS   C1B10687   4.854  10.914   5.884  0.0306 -0.2338  0.0618
  700POPS   C2B10688   4.989  11.115   6.270 -0.2074 -0.1718 -0.0232
  700POPS   C3B10689   5.080  11.463   6.572  0.0122 -0.0619  0.1653
  700POPS   C4B10690   5.358  11.547   6.970  0.0419 -0.0004  0.0476
  701POPS   CNO10691   2.532   7.132   5.614  0.4618 -0.4759 -0.0925
  701POPS   PO410692   2.533   7.577   5.764 -0.0367  0.2130 -0.2592
  701POPS   GL110693   2.584   7.850   6.136 -0.1051  0.2913  0.0549
  701POPS   GL210694   2.390   8.050   6.035  0.1630 -0.3660 -0.0118
  701POPS   C1A10695   2.601   7.805   6.613  0.1254  0.0226 -0.0377
  701POPS   D2A10696   2.707   7.751   7.061  0.0774 -0.1257  0.0750
  701POPS   C3A10697   2.880   8.066   7.280  0.3369 -0.1152  0.1416
  701POPS   C4A10698   3.002   8.045   7.719 -0.4716 -0.3011  0.1654
  701POPS   C1B10699   2.241   8.172   6.436 -0.0806  0.1162  0.3529
  701POPS   C2B10700   2.074   7.981   6.826 -0.0621  0.0181 -0.0171
  701POPS   C3B10701   1.934   7.819   7.183 -0.0101  0.3130 -0.0888
  701POPS   C4B10702   1.982   7.584   7.672  0.1920  0.0722 -0.0025
  702POPS   CNO10703  13.239  11.726   5.450 -0.1738  0.0965  0.2627
  702POPS   PO410704  13.520  11.933   5.579  0.0602 -0.1455 -0.0766
  702POPS   GL110705  13.390  12.073   5.936 -0.0482 -0.0868 -0.0820
  702POPS   GL210706  13.165  12.348   6.057  0.2507 -0.2808 -0.0064
  702POPS   C1A10707  13.235  11.955   6.404  0.1628  0.1009 -0.0322
  702POPS   D2A10708  12.932  11.738   6.584  0.1379 -0.1935  0.2226
  702POPS   C3A10709  12.695  11.446   6.747 -0.1470 -0.3184 -0.0905
  702POPS   C4A10710  12.508  11.159   7.093 -0.1023 -0.1008 -0.0734
  702POPS   C1B10711  13.361  12.507   6.504 -0.0871 -0.2245 -0.0029
  702POPS   C2B10712  13.567  12.478   6.943 -0.0991 -0.3009  0.0602
  702POPS   C3B10713  13.631  11.984   7.138 -0.2356 -0.0697 -0.2453
  702POPS   C4B10714  13.833  11.614   7.225  0.0250 -0.1285  0.2391
  703POPS   CNO10715  15.204  12.451   5.219 -0.1766 -0.2080  0.2422
  703POPS   PO410716  15.477  12.468   5.579  0.1239  0.4198 -0.1813
  703POPS   GL110717  15.250  12.621   5.912  0.1073  0.0376  0.2219
  703POPS   GL210718  15.292  12.359   6.174 -0.2206 -0.0268 -0.3025
  703POPS   C1A10719  15.394  12.892   6.186 -0.0476 -0.1032 -0.1077
  703POPS   D2A10720  15.343  13.164   6.514  0.3242 -0.2642  0.0977
  703POPS   C3A10721  15.338  12.915   6.858 -0.0411  0.2131 -0.0544
  703POPS   C4A10722  15.425  12.735   7.263  0.2052  0.2942  0.0207
  703POPS   C1B10723  15.079  12.388   6.515 -0.1261  0.0521  0.1224
  703POPS   C2B10724  14.848  12.127   6.871 -0.3798  0.1728  0.0249
  703POPS   C3B10725  14.979  11.886   7.289 -0.1014 -0.5071 -0.0747
  703POPS   C4B10726  15.423  11.801   7.466  0.1251 -0.0207  0.2024
  704POPS   CNO10727   6.368   8.349   5.561 -0.3414 -0.0184  0.2411
  704POPS   PO410728   6.632   8.198   5.725  0.0151  0.0062  0.0323
  704POPS   GL110729   6.739   8.266   6.118  0.2586 -0.0471 -0.1067
  704POPS   GL210730   6.584   8.251   6.407 -0.0406  0.1088  0.0136
  704POPS   C1A10731   6.865   8.666   6.332  0.1595  0.0534  0.1138
  704POPS   D2A10732   7.348   8.811   6.460  0.3525  0.1888  0.0426
  704POPS   C3A10733   7.332   8.547   6.876  0.3327 -0.3689  0.1736
  704POPS   C4A10734   7.325   8.661   7.266  0.3441  0.0280 -0.2076
  704POPS   C1B10735   6.582   8.529   6.778 -0.2230  0.1497 -0.0951
  704POPS   C2B10736   6.965   8.894   6.782 -0.0956  0.2133  0.1172
  704POPS   C3B10737   7.330   9.101   6.893  0.0015  0.0088  0.4582
  704POPS   C4B10738   7.803   9.256   6.815  0.1272  0.0672  0.2160
  705POPS   CNO10739   8.885  14.457   5.272 -0.0394 -0.2103  0.0824
  705POPS   PO410740   8.513  14.619   5.258 -0.0084 -0.2845  0.1753
  705POPS   GL110741   8.600  14.880   5.601  0.0121  0.0608 -0.1364
  705POPS   GL210742   8.438  14.981   5.870  0.1614  0.0227 -0.0013
  705POPS   C1A10743   8.871  15.095   5.787 -0.3961  0.0415 -0.2162
  705POPS   D2A10744   9.036  15.435   5.911  0.0620  0.0011  0.1300
  705POPS   C3A10745   8.950  15.555   6.344 -0.2669  0.1430 -0.0727
  705POPS   C4A10746   8.960  16.011   6.509  0.0841 -0.1383  0.0240
  705POPS   C1B10747   8.653  15.123   6.258 -0.0643  0.3845 -0.2028
  705POPS   C2B10748   8.514  15.298   6.641  0.0191  0.0873  0.2738
  705POPS   C3B10749   8.189  15.126   6.901 -0.1233  0.2010  0.0645
  705POPS   C4B10750   7.800  14.892   6.893 -0.1275 -0.2749 -0.0948
  706POPS   CNO10751   5.738   0.205   5.248  0.1826 -0.0508  0.0503
  706POPS   PO410752   5.769  -0.116   5.587 -0.0149  0.0206 -0.1301
  706POPS   GL110753   6.004  -0.181   5.900 -0.1043 -0.0853  0.0080
  706POPS   GL210754   5.999   0.065   6.155 -0.3403  0.0340  0.2130
  706POPS   C1A10755   5.978  -0.419   6.287  0.1864 -0.2025  0.3163
  706POPS   D2A10756   5.894  -0.731   6.431  0.1488  0.0268  0.2121
  706POPS   C3A10757   5.733  -0.621   6.888 -0.1784  0.0825  0.1317
  706POPS   C4A10758   5.816  -0.526   7.321  0.2465 -0.2319  0.1911
  706POPS   C1B10759   6.238   0.001   6.464  0.0916 -0.0398 -0.1546
  706POPS   C2B10760   6.411   0.241   6.958 -0.1229 -0.1775  0.1517
  706POPS   C3B10761   6.369   0.222   7.359  0.1353  0.3408  0.1225
  706POPS   C4B10762   6.550   0.375   7.686 -0.1567 -0.3870 -0.1780
  707POPS   CNO10763   5.342  13.864   4.934 -0.1144  0.2855 -0.0429
  707POPS   PO410764   5.172  13.707   5.258  0.2192  0.2092 -0.1340
  707POPS   GL110765   5.223  13.671   5.730 -0.0310 -0.0359  0.1042
  707POPS   GL210766   5.168  14.062   5.783  0.4159  0.0980 -0.1825
  707POPS   C1A10767   5.063  13.556   6.096 -0.0295  0.0743  0.2298
  707POPS   D2A10768   5.153  13.256   6.427 -0.2000 -0.2842 -0.0184
  707POPS   C3A10769   5.488  13.169   6.733 -0.2551  0.0489 -0.4424
  707POPS   C4A10770   5.869  13.375   6.794  0.1208  0.4153  0.2897
  707POPS   C1B10771   4.989  14.043   6.177 -0.4121 -0.2255 -0.0849
  707POPS   C2B10772   4.920  13.737   6.556  0.0671 -0.1058  0.2008
  707POPS   C3B10773   4.955  13.345   6.880 -0.2347 -0.1954 -0.3625
  707POPS   C4B10774   5.186  13.034   7.129  0.1894 -0.1948 -0.0451
  708POPS   CNO10775  13.198  13.892   5.535  0.2270  0.0423  0.1053
  708POPS   PO410776  13.562  14.186   5.305  0.2854 -0.0681  0.1477
  708POPS   GL110777  13.431  14.207   5.821 -0.1779  0.0105  0.0495
  708POPS   GL210778  13.490  14.456   5.949  0.1073 -0.0538  0.3501
  708POPS   C1A10779  13.261  14.181   6.316 -0.1493  0.0423 -0.0721
  708POPS   D2A10780  13.214  13.812   6.663 -0.1992 -0.1450  0.0597
  708POPS   C3A10781  13.403  13.822   7.076  0.2102  0.0712 -0.3601
  708POPS   C4A10782  13.274  13.694   7.464 -0.1033 -0.0597  0.2264
  708POPS   C1B10783  13.757  14.613   6.286 -0.1986 -0.2566  0.1144
  708POPS   C2B10784  13.746  14.586   6.715  0.1221  0.1871  0.2296
  708POPS   C3B10785  13.810  14.617   7.096 -0.1086  0.2220  0.3360
  708POPS   C4B10786  14.125  14.328   7.426  0.1117 -0.2544  0.3558
  709POPS   CNO10787   5.698   4.488   5.533  0.2703 -0.1894 -0.5257
  709POPS   PO410788   5.929   4.507   5.977 -0.0679 -0.0152  0.1069
  709POPS   GL110789   6.041   4.448   6.445  0.0891 -0.1419 -0.4994
  709POPS   GL210790   5.796   4.263   6.716  0.0909  0.4297  0.2310
  709POPS   C1A10791   6.333   4.277   6.726 -0.1166  0.2426  0.0172
  709POPS   D2A10792   6.464   4.355   7.063  0.2389 -0.0532 -0.0925
  709POPS   C3A10793   6.336   4.344   7.430 -0.1297 -0.0424 -0.1666
  709POPS   C4A10794   6.182   4.463   7.885  0.3670  0.0698  0.1095
  709POPS   C1B10795   6.087   4.069   7.111 -0.3315  0.2032 -0.2145
  709POPS   C2B10796   6.082   3.865   7.476  0.5626 -0.1005  0.1177
  709POPS   C3B10797   6.268   3.745   7.857 -0.0401 -0.2729  0.0348
  709POPS   C4B10798   6.115   3.547   8.174  0.2538  0.0104 -0.2147
  710POPS   CNO10799   5.480   8.043   5.374  0.0465 -0.1715  0.1653
  710POPS   PO410800   5.699   8.129   5.731 -0.1776 -0.3247 -0.1089
  710POPS   GL110801   5.684   8.140   6.190 -0.1412 -0.3740  0.0874
  710POPS   GL210802   5.486   7.927   6.386 -0.0985 -0.1045  0.1693
  710POPS   C1A10803   5.707   8.334   6.609  0.0216 -0.1003  0.0101
  710POPS   D2A10804   5.498   8.236   6.942 -0.3230 -0.0814 -0.1504
  710POPS   C3A10805   5.776   8.234   7.203 -0.2327  0.5331 -0.2909
  710POPS   C4A10806   5.780   8.233   7.673 -0.3041  0.0202  0.0652
  710POPS   C1B10807   5.135   8.143   6.635  0.1275 -0.0341  0.0022
  710POPS   C2B10808   5.039   8.302   7.001  0.3148  0.0609  0.1592
  710POPS   C3B10809   4.847   8.501   7.328 -0.1025 -0.1279 -0.0780
  710POPS   C4B10810   4.591   8.630   7.686  0.1059 -0.1520 -0.0649
  711POPS   CNO10811  15.691  16.991   6.068  0.0347  0.2675  0.3969
  711POPS   PO410812  15.900  16.641   6.143 -0.0559  0.2034 -0.1039
  711POPS   GL110813  15.840  16.360   6.389  0.1769  0.1540  0.3243
  711POPS   GL210814  15.963  16.087   6.308  0.0923  0.1060 -0.3360
  711POPS   C1A10815  15.977  16.298   6.783 -0.1059 -0.1163 -0.0299
  711POPS   D2A10816  16.019  16.114   7.069 -0.1355  0.1383  0.0487
  711POPS   C3A10817  15.615  16.082   7.160  0.0910  0.1880 -0.0443
  711POPS   C4A10818  15.228  15.979   6.831  0.1738  0.0556 -0.0302
  711POPS   C1B10819  15.757  15.859   6.644 -0.1042  0.0362 -0.0769
  711POPS   C2B10820  15.529  15.531   6.944 -0.0448  0.2178 -0.0147
  711POPS   C3B10821  15.746  15.243   7.209  0.2838 -0.0404  0.0687
  711POPS   C4B10822  15.670  15.302   7.624  0.0369  0.1436  0.0740
  712POPS   CNO10823  16.839  18.568   6.024 -0.1725 -0.0387 -0.2216
  712POPS   PO410824  16.695  18.103   5.878 -0.0006 -0.2865 -0.0607
  712POPS   GL110825  16.776  18.112   6.224 -0.1224  0.0532 -0.2834
  712POPS   GL210826  17.106  17.839   6.179  0.0882 -0.0439  0.0215
  712POPS   C1A10827  16.868  18.066   6.688  0.1015  0.0085  0.0554
  712POPS   D2A10828  16.978  17.867   6.973  0.1930  0.0199  0.1948
  712POPS   C3A10829  16.946  18.089   7.373  0.1275  0.1254  0.0569
  712POPS   C4A10830  17.148  17.913   7.792  0.0033  0.1971  0.0342
  712POPS   C1B10831  16.910  17.567   6.590  0.1965  0.0483  0.1535
  712POPS   C2B10832  16.869  17.296   7.010  0.0669 -0.2847 -0.0082
  712POPS   C3B10833  16.789  16.797   7.054 -0.4393 -0.0790  0.1607
  712POPS   C4B10834  16.878  16.591   7.340 -0.0259 -0.0889 -0.4800
  713POPS   CNO10835  10.919   0.731   5.942 -0.2235  0.3957  0.5105
  713POPS   PO410836  11.139   0.382   5.899  0.1897  0.3596 -0.2711
  713POPS   GL110837  11.195   0.633   6.359  0.1996  0.1812 -0.1136
  713POPS   GL210838  10.938   0.889   6.441  0.0854  0.2693 -0.0878
  713POPS   C1A10839  11.332   0.404   6.814 -0.0628  0.0906  0.0465
  713POPS   D2A10840  11.131   0.495   7.188 -0.1917  0.2501  0.2236
  713POPS   C3A10841  10.939   0.171   7.072  0.2315 -0.0138  0.3588
  713POPS   C4A10842  11.111  -0.315   7.152  0.3266  0.1444 -0.0109
  713POPS   C1B10843  11.018   0.995   6.889 -0.0319 -0.0629 -0.3488
  713POPS   C2B10844  11.218   0.999   7.326 -0.1435 -0.0431 -0.1216
  713POPS   C3B10845  11.505   0.813   7.674  0.2174 -0.1527  0.2722
  713POPS   C4B10846  11.738   0.912   8.017  0.3349 -0.1248 -0.1674
  714POPS   CNO10847  13.330   4.280   6.045  0.1715 -0.1989 -0.3436
  714POPS   PO410848  13.554   4.507   6.328 -0.2371 -0.2177 -0.1478
  714POPS   GL110849  13.735   4.502   6.646  0.4222  0.2689  0.2736
  714POPS   GL210850  13.508   4.325   6.785  0.0230  0.0333 -0.0510
  714POPS   C1A10851  13.854   4.935   6.890  0.0156 -0.1624 -0.0984
  714POPS   D2A10852  13.612   5.034   7.202 -0.1318 -0.3908  0.1943
  714POPS   C3A10853  13.776   5.005   7.630 -0.1943  0.1145  0.1492
  714POPS   C4A10854  13.651   5.238   7.995  0.1486  0.0530  0.0218
  714POPS   C1B10855  13.636   4.523   7.193  0.1110 -0.1009  0.1167
  714POPS   C2B10856  13.789   4.413   7.650 -0.0643 -0.3488 -0.2992
  714POPS   C3B10857  13.897   4.240   7.977 -0.0569  0.0443  0.4235
  714POPS   C4B10858  14.084   4.165   8.331  0.3912 -0.0695  0.1077
  715POPS   CNO10859  11.296   8.689   6.079 -0.1895  0.3570  0.0239
  715POPS   PO410860  11.029   8.972   5.862 -0.3641  0.2073 -0.0459
  715POPS   GL110861  10.676   8.829   6.143 -0.0009  0.0177  0.0810
  715POPS   GL210862  10.808   8.498   6.230  0.2837  0.0736 -0.4443
  715POPS   C1A10863  10.563   8.998   6.525 -0.0152 -0.0764 -0.0903
  715POPS   D2A10864  10.531   9.240   6.993  0.1074  0.0914  0.3547
  715POPS   C3A10865  10.848   9.251   7.227 -0.0189  0.0209 -0.1097
  715POPS   C4A10866  10.953   9.482   7.509 -0.0997 -0.1386  0.1174
  715POPS   C1B10867  11.008   8.662   6.599 -0.4866 -0.1238 -0.1464
  715POPS   C2B10868  11.107   8.817   7.025 -0.0555  0.0036 -0.0678
  715POPS   C3B10869  10.926   8.873   7.514 -0.0519 -0.0487 -0.0954
  715POPS   C4B10870  10.652   8.800   7.838 -0.2508 -0.1328  0.0770
  716POPS   CNO10871  15.932   2.799   5.856  0.0636  0.0954  0.0937
  716POPS   PO410872  15.814   2.505   6.130 -0.1252 -0.2173 -0.1706
  716POPS   GL110873  15.974   2.826   6.392  0.1432 -0.0423  0.2667
  716POPS   GL210874  16.228   3.034   6.211  0.1473 -0.2324 -0.0403
  716POPS   C1A10875  16.006   2.918   6.879  0.0273  0.0586  0.4952
  716POPS   D2A10876  15.882   3.441   7.024 -0.0273 -0.0611  0.0291
  716POPS   C3A10877  16.209   3.517   7.399  0.0453 -0.1339 -0.2334
  716POPS   C4A10878  16.487   3.428   7.751 -0.3459  0.1942 -0.0623
  716POPS   C1B10879  16.467   2.785   6.549  0.2902 -0.1973 -0.0529
  716POPS   C2B10880  16.440   2.720   7.032  0.0569  0.0722 -0.0702
  716POPS   C3B10881  16.450   2.633   7.557  0.0993  0.1261 -0.0645
  716POPS   C4B10882  16.518   2.888   7.849  0.0889  0.4083  0.1101
  717POPS   CNO10883  10.866   6.092   6.359 -0.3902 -0.2774 -0.2847
  717POPS   PO410884  10.956   5.703   6.504 -0.0878  0.1430  0.1099
  717POPS   GL110885  10.705   5.498   6.802 -0.0458 -0.2888 -0.0021
  717POPS   GL210886  10.335   5.552   6.757  0.1897  0.1270 -0.0181
  717POPS   C1A10887  10.457   5.104   6.838 -0.1483  0.3323 -0.3010
  717POPS   D2A10888  10.115   4.846   6.868  0.1838 -0.0276 -0.0768
  717POPS   C3A10889  10.202   4.641   7.325  0.0339 -0.0944 -0.0588
  717POPS   C4A10890   9.877   4.552   7.664  0.1979 -0.1746 -0.0744
  717POPS   C1B10891  10.226   5.498   7.215  0.1672 -0.4230 -0.1555
  717POPS   C2B10892  10.383   5.703   7.596 -0.0110  0.1133  0.0924
  717POPS   C3B10893  10.316   5.926   7.995  0.0096 -0.0571  0.0725
  717POPS   C4B10894  10.439   6.291   8.106  0.0864  0.0096 -0.3046
  718POPS   CNO10895  13.440  14.628   5.443  0.1865  0.0488  0.0550
  718POPS   PO410896  13.119  14.750   5.736 -0.2116  0.1322 -0.2159
  718POPS   GL110897  13.217  14.862   6.078 -0.2618 -0.2550 -0.0814
  718POPS   GL210898  12.925  14.731   6.205 -0.0869 -0.0238  0.0527
  718POPS   C1A10899  13.298  14.625   6.552 -0.1586  0.0821 -0.2331
  718POPS   D2A10900  13.367  14.306   6.795  0.1099 -0.3373  0.2311
  718POPS   C3A10901  13.366  14.535   7.226 -0.0235  0.0582 -0.0262
  718POPS   C4A10902  13.492  14.539   7.556  0.1128 -0.1046 -0.0546
  718POPS   C1B10903  12.903  14.860   6.624  0.2699 -0.0977 -0.1270
  718POPS   C2B10904  12.545  14.730   6.934  0.2764  0.2452  0.0603
  718POPS   C3B10905  12.421  14.766   7.309 -0.0070 -0.1741 -0.2028
  718POPS   C4B10906  12.477  14.415   7.436  0.0010 -0.3016  0.0243
  719POPS   CNO10907  12.829  10.807   4.821  0.2446  0.0030  0.0896
  719POPS   PO410908  12.885  10.988   5.276  0.0313 -0.1483 -0.1697
  719POPS   GL110909  12.997  11.049   5.719 -0.0725  0.2194 -0.2550
  719POPS   GL210910  13.225  11.267   5.795  0.2156  0.0773  0.0631
  719POPS   C1A10911  12.870  10.883   6.055  0.0908 -0.2643  0.1065
  719POPS   D2A10912  12.544  10.616   6.104  0.0425  0.2077  0.0665
  719POPS   C3A10913  12.636  10.305   6.380 -0.0732  0.1427 -0.1246
  719POPS   C4A10914  12.658  10.016   6.800  0.0748  0.1633  0.2824
  719POPS   C1B10915  13.504  11.113   6.218  0.0518  0.1718  0.1501
  719POPS   C2B10916  13.652  11.027   6.597 -0.1024  0.2070  0.0873
  719POPS   C3B10917  13.864  11.100   6.955 -0.3746  0.2089 -0.0849
  719POPS   C4B10918  14.171  11.315   7.070  0.0400 -0.1562  0.0722
  720POPS   CNO10919   5.587   2.044   5.832 -0.1802  0.1733 -0.0882
  720POPS   PO410920   5.699   2.498   5.722 -0.1196  0.4453  0.1568
  720POPS   GL110921   5.291   2.484   5.968  0.1304 -0.1305 -0.3235
  720POPS   GL210922   5.519   2.654   6.226  0.2075  0.1512  0.0413
  720POPS   C1A10923   4.977   2.454   6.355  0.0818  0.2009  0.1539
  720POPS   D2A10924   4.827   2.433   6.811 -0.0633 -0.0899 -0.2292
  720POPS   C3A10925   4.473   2.371   6.988  0.2240 -0.5427  0.2040
  720POPS   C4A10926   4.086   2.440   6.878 -0.0020 -0.0859  0.1738
  720POPS   C1B10927   5.378   2.536   6.599  0.3706 -0.1893  0.2680
  720POPS   C2B10928   5.609   2.553   6.973 -0.0927 -0.0365  0.2924
  720POPS   C3B10929   5.617   2.296   7.291 -0.2932 -0.1896  0.3426
  720POPS   C4B10930   5.641   2.193   7.725 -0.1266 -0.2271  0.3990
  721POPS   CNO10931   3.278  16.756   5.001 -0.1921 -0.1480 -0.1127
  721POPS   PO410932   3.119  16.425   5.362 -0.0309  0.0018 -0.0119
  721POPS   GL110933   3.134  16.486   5.789 -0.0205 -0.3722 -0.0055
  721POPS   GL210934   3.256  16.742   5.943 -0.0571  0.1594 -0.2832
  721POPS   C1A10935   2.976  16.392   6.234  0.2442  0.2978 -0.0863
  721POPS   D2A10936   2.869  16.518   6.697 -0.1719  0.1728 -0.1209
  721POPS   C3A10937   3.026  16.195   7.022 -0.1743 -0.0819  0.0022
  721POPS   C4A10938   3.131  15.696   7.023 -0.2816  0.1295  0.2164
  721POPS   C1B10939   3.317  16.719   6.342  0.2447  0.2159 -0.0291
  721POPS   C2B10940   3.403  16.567   6.775 -0.0508  0.0701  0.0823
  721POPS   C3B10941   3.526  16.619   7.238 -0.3391  0.1297  0.0391
  721POPS   C4B10942   3.438  16.704   7.628  0.0851 -0.3704 -0.2414
  722POPS   CNO10943   1.139   9.504   5.390 -0.3294  0.4504 -0.2188
  722POPS   PO410944   0.880   9.155   5.593 -0.0742  0.1480  0.0457
  722POPS   GL110945   0.917   9.263   5.988 -0.0938 -0.1050 -0.2615
  722POPS   GL210946   1.263   9.243   6.039  0.1765  0.1386  0.0349
  722POPS   C1A10947   0.955   9.385   6.464 -0.1314  0.1567  0.2409
  722POPS   D2A10948   1.180   9.635   6.807  0.0235 -0.1788  0.0701
  722POPS   C3A10949   0.980  10.007   7.005 -0.1412  0.1052  0.0623
  722POPS   C4A10950   0.750  10.242   7.249 -0.3032 -0.1593  0.0305
  722POPS   C1B10951   1.484   9.234   6.402  0.0783 -0.0123 -0.0262
  722POPS   C2B10952   1.644   9.309   6.739 -0.0440  0.2005 -0.0971
  722POPS   C3B10953   1.948   9.576   7.100 -0.0730  0.0763 -0.0136
  722POPS   C4B10954   2.184   9.556   7.458  0.0669 -0.1273  0.0427
  723POPS   CNO10955  14.398   0.030   6.370  0.0430  0.1331  0.0003
  723POPS   PO410956  14.734  -0.249   6.251 -0.0923 -0.0634  0.1217
  723POPS   GL110957  14.584  -0.303   6.719  0.1532  0.1791 -0.0122
  723POPS   GL210958  14.518  -0.637   6.755  0.1372 -0.0235  0.2927
  723POPS   C1A10959  14.560  -0.425   7.168  0.3054  0.1478 -0.0587
  723POPS   D2A10960  14.837  -0.663   7.416 -0.0830 -0.0602  0.0245
  723POPS   C3A10961  14.816  -1.150   7.305  0.0304  0.1633 -0.0225
  723POPS   C4A10962  15.072  -1.528   7.356 -0.3160 -0.2149  0.2662
  723POPS   C1B10963  14.373  -0.886   7.050  0.0356  0.2507  0.0772
  723POPS   C2B10964  14.410  -0.841   7.491 -0.1999  0.1000 -0.2328
  723POPS   C3B10965  14.480  -0.753   7.919  0.0798 -0.0566  0.0959
  723POPS   C4B10966  14.783  -0.861   8.204 -0.3087 -0.0777 -0.1806
  724POPS   CNO10967   8.733  10.906   5.336 -0.0101 -0.1259 -0.1095
  724POPS   PO410968   9.133  10.675   5.201 -0.2447 -0.1063  0.1977
  724POPS   GL110969   9.250  10.987   5.512  0.0334  0.2862  0.2886
  724POPS   GL210970   9.247  10.704   5.732  0.0564  0.2689 -0.0115
  724POPS   C1A10971   9.566  11.095   5.872 -0.1090  0.0239  0.1567
  724POPS   D2A10972   9.885  11.038   6.172  0.3646  0.0060  0.0112
  724POPS   C3A10973   9.918  11.268   6.559  0.0856 -0.1382 -0.1835
  724POPS   C4A10974   9.958  11.575   6.776 -0.0613  0.0888 -0.1586
  724POPS   C1B10975   9.142  10.874   6.039  0.2482 -0.3697 -0.2255
  724POPS   C2B10976   9.184  11.054   6.451  0.0229  0.0489 -0.1498
  724POPS   C3B10977   9.210  10.903   6.863 -0.1888 -0.0427 -0.3495
  724POPS   C4B10978   9.258  10.779   7.293 -0.0591  0.0875 -0.0698
  725POPS   CNO10979   0.293   5.884   4.875  0.3723  0.0518  0.2547
  725POPS   PO410980   0.159   5.654   5.301 -0.2315  0.2116  0.1096
  725POPS   GL110981   0.429   5.399   5.637 -0.2316 -0.1840  0.0280
  725POPS   GL210982   0.698   5.529   5.547  0.1543 -0.1228  0.3343
  725POPS   C1A10983   0.456   5.345   6.084 -0.2510  0.0740  0.1836
  725POPS   D2A10984   0.375   5.518   6.487 -0.3510  0.0892  0.0273
  725POPS   C3A10985   0.439   5.733   6.941  0.0886  0.1679  0.0066
  725POPS   C4A10986   0.236   6.004   7.330  0.2524 -0.1405  0.1372
  725POPS   C1B10987   0.826   5.642   6.015  0.0302  0.3962 -0.0071
  725POPS   C2B10988   0.851   5.687   6.480 -0.2617  0.2070  0.0250
  725POPS   C3B10989   0.871   5.500   6.881 -0.1140  0.0784  0.0221
  725POPS   C4B10990   0.972   5.674   7.320 -0.1450 -0.4458  0.0113
  726POPS   CNO10991   0.402   6.342   4.460 -0.1349  0.0567 -0.0273
  726POPS   PO410992   0.280   6.514   4.944 -0.0780 -0.4644  0.0856
  726POPS   GL110993   0.416   6.286   5.304 -0.1247 -0.1842 -0.3133
  726POPS   GL210994   0.402   6.017   5.475  0.3305  0.0551  0.1190
  726POPS   C1A10995   0.590   6.308   5.810  0.0842  0.1625  0.2220
  726POPS   D2A10996   0.612   6.024   6.232 -0.1140 -0.0916 -0.0711
  726POPS   C3A10997   0.691   6.066   6.662 -0.1666  0.2280 -0.0439
  726POPS   C4A10998   0.747   6.129   7.108 -0.2534 -0.3045  0.0949
  726POPS   C1B10999   0.339   5.814   5.896 -0.2262 -0.0370  0.0610
  726POPS   C2B11000   0.078   5.837   6.238  0.3720  0.1098  0.0961
  726POPS   C3B11001   0.186   5.987   6.605 -0.0464 -0.1854 -0.1704
  726POPS   C4B11002   0.271   6.256   6.863 -0.0658 -0.0013  0.0689
  727POPS   CNO11003   9.604   9.756   5.556  0.4351  0.1900 -0.0144
  727POPS   PO411004   9.780  10.030   5.219  0.0904  0.0792  0.1186
  727POPS   GL111005   9.849  10.181   5.653 -0.0685 -0.2169  0.0587
  727POPS   GL211006   9.552  10.313   5.789 -0.1406 -0.1640 -0.0998
  727POPS   C1A11007   9.881  10.186   6.085 -0.1583  0.3936  0.0671
  727POPS   D2A11008  10.024  10.478   6.407 -0.2740 -0.0418 -0.1384
  727POPS   C3A11009   9.959  10.332   6.877 -0.5038  0.0932 -0.2898
  727POPS   C4A11010   9.926  10.039   7.209 -0.2505  0.0729  0.2576
  727POPS   C1B11011   9.476  10.589   6.230  0.0125  0.1288  0.2743
  727POPS   C2B11012   9.619  10.835   6.543  0.0449  0.0207 -0.0340
  727POPS   C3B11013   9.942  10.823   6.802 -0.1677  0.2434 -0.0334
  727POPS   C4B11014  10.138  11.129   7.015 -0.3573 -0.0141  0.0801
  728POPS   CNO11015   4.494  13.793   5.004  0.1568  0.1582 -0.1807
  728POPS   PO411016   4.226  13.512   5.072 -0.0762  0.1005  0.0189
  728POPS   GL111017   4.325  13.413   5.524 -0.0223  0.0242 -0.2852
  728POPS   GL211018   4.063  13.445   5.748  0.0379 -0.2487  0.0180
  728POPS   C1A11019   4.613  13.428   5.848  0.1548  0.2777  0.0062
  728POPS   D2A11020   4.468  13.334   6.275  0.0632 -0.2057  0.0104
  728POPS   C3A11021   4.713  13.150   6.543  0.0516 -0.0348  0.1431
  728POPS   C4A11022   4.963  12.808   6.641  0.0410 -0.0107  0.4112
  728POPS   C1B11023   4.275  13.786   6.021 -0.0977  0.2990  0.0870
  728POPS   C2B11024   4.494  13.981   6.313 -0.1574  0.1308 -0.0200
  728POPS   C3B11025   4.390  14.113   6.746  0.0797  0.2290  0.1441
  728POPS   C4B11026   4.516  14.050   7.097  0.0864 -0.1351 -0.0611
  729POPS   CNO11027  10.146   3.481   6.190 -0.2373 -0.1009  0.2054
  729POPS   PO411028  10.068   3.747   5.948 -0.3167  0.1875 -0.1810
  729POPS   GL111029   9.814   3.833   6.381  0.1737  0.2992 -0.1198
  729POPS   GL211030   9.419   3.914   6.486 -0.4086 -0.1805  0.3114
  729POPS   C1A11031   9.807   3.826   6.805  0.0839 -0.2519  0.0049
  729POPS   D2A11032   9.548   3.648   7.203 -0.3463  0.0211 -0.1500
  729POPS   C3A11033   9.501   3.529   7.675 -0.2766 -0.0768 -0.3393
  729POPS   C4A11034   9.346   3.755   8.038  0.1535  0.2690  0.2405
  729POPS   C1B11035   9.378   4.158   6.939  0.0676  0.0453  0.3139
  729POPS   C2B11036   9.091   4.334   7.182 -0.1267  0.2359 -0.1814
  729POPS   C3B11037   8.993   4.441   7.617 -0.1874 -0.4449 -0.2714
  729POPS   C4B11038   9.050   4.500   8.118  0.1323 -0.0739 -0.3715
  730POPS   CNO11039  15.142   7.152   5.009  0.0208  0.0725  0.0000
  730POPS   PO411040  15.356   7.250   5.347  0.1651 -0.0761 -0.2999
  730POPS   GL111041  15.400   7.244   5.714 -0.2417  0.1239 -0.0018
  730POPS   GL211042  15.513   7.481   5.829  0.0541  0.0622  0.3890
  730POPS   C1A11043  15.135   7.398   6.127 -0.1205 -0.0084  0.3314
  730POPS   D2A11044  15.128   7.109   6.474 -0.0214  0.0790 -0.0981
  730POPS   C3A11045  15.288   7.140   6.785  0.2123  0.0294 -0.1292
  730POPS   C4A11046  15.620   7.289   7.091  0.1226 -0.0730  0.1837
  730POPS   C1B11047  15.658   7.214   6.176  0.0478 -0.0375  0.2037
  730POPS   C2B11048  15.891   7.223   6.608  0.1339 -0.3369  0.1276
  730POPS   C3B11049  16.260   7.486   6.853  0.0013 -0.2879  0.1329
  730POPS   C4B11050  16.589   7.601   7.160  0.1609 -0.0574  0.3727
  731POPS   CNO11051   5.573  14.935   6.093 -0.2669 -0.1115 -0.1551
  731POPS   PO411052   5.664  15.121   5.808 -0.0207 -0.2538  0.3880
  731POPS   GL111053   5.467  15.436   6.021  0.0718  0.1189 -0.3416
  731POPS   GL211054   5.443  15.802   6.030 -0.0685  0.1434  0.1940
  731POPS   C1A11055   5.021  15.459   6.220  0.2898 -0.2131 -0.0563
  731POPS   D2A11056   4.813  15.365   6.484  0.1666  0.1687 -0.2742
  731POPS   C3A11057   4.846  15.187   6.966  0.0865  0.0215  0.1681
  731POPS   C4A11058   4.763  15.415   7.317 -0.1146 -0.2651  0.1976
  731POPS   C1B11059   5.472  15.652   6.480 -0.4015  0.0952 -0.1878
  731POPS   C2B11060   5.576  15.755   6.881  0.0493  0.0436 -0.3168
  731POPS   C3B11061   5.185  15.839   7.076  0.0954  0.1504 -0.1341
  731POPS   C4B11062   4.964  15.931   7.472 -0.2609 -0.3449 -0.1560
  732POPS   CNO11063  17.034  11.029   5.611  0.1192 -0.1418  0.0836
  732POPS   PO411064  16.697  11.288   5.838 -0.0201  0.0839  0.1545
  732POPS   GL111065  16.571  11.569   6.263  0.1461  0.1986  0.1782
  732POPS   GL211066  16.223  11.452   6.270  0.3184  0.1222  0.0671
  732POPS   C1A11067  16.599  11.726   6.660  0.0558 -0.1858  0.0013
  732POPS   D2A11068  16.857  11.678   6.993  0.0511  0.0313  0.1509
  732POPS   C3A11069  16.965  11.960   7.219  0.0162 -0.0796 -0.0253
  732POPS   C4A11070  17.124  11.828   7.631 -0.0398  0.0355  0.0469
  732POPS   C1B11071  16.215  11.427   6.659  0.0081 -0.1119 -0.0123
  732POPS   C2B11072  16.237  11.206   7.021 -0.5061  0.2419 -0.2560
  732POPS   C3B11073  16.233  11.277   7.372 -0.2224 -0.2857 -0.1171
  732POPS   C4B11074  16.254  11.020   7.819  0.3497  0.0980 -0.0856
  733POPS   CNO11075   7.158  11.642   4.741  0.2639 -0.4731 -0.2125
  733POPS   PO411076   7.225  12.048   4.927 -0.1408 -0.3076  0.1790
  733POPS   GL111077   6.958  12.245   5.208  0.0147 -0.1835 -0.1201
  733POPS   GL211078   6.811  12.083   5.421 -0.0834  0.2621 -0.0971
  733POPS   C1A11079   6.621  12.555   5.426 -0.3415 -0.2212 -0.0187
  733POPS   D2A11080   6.638  13.081   5.538 -0.0063 -0.0077 -0.0592
  733POPS   C3A11081   6.708  13.027   5.997  0.2508  0.0844 -0.2840
  733POPS   C4A11082   7.027  13.317   6.241  0.2938  0.0115 -0.0700
  733POPS   C1B11083   6.768  12.163   5.905  0.2549  0.0773  0.2155
  733POPS   C2B11084   6.951  12.328   6.288 -0.1829  0.0621  0.2191
  733POPS   C3B11085   6.828  12.247   6.724 -0.3414 -0.0120  0.3371
  733POPS   C4B11086   6.796  12.178   7.091 -0.1288  0.0058 -0.1791
  734POPS   CNO11087   0.532   7.339   4.555 -0.1506  0.4963  0.2237
  734POPS   PO411088   0.141   7.518   4.832 -0.0311  0.2074  0.1197
  734POPS   GL111089   0.127   7.462   5.316 -0.0590 -0.0666  0.0309
  734POPS   GL211090   0.406   7.438   5.546 -0.2097 -0.0856  0.1419
  734POPS   C1A11091  -0.163   7.450   5.566 -0.2431 -0.1337  0.0033
  734POPS   D2A11092  -0.168   7.574   5.918  0.0645  0.0049 -0.0481
  734POPS   C3A11093   0.089   7.627   6.370 -0.0341 -0.2219 -0.2160
  734POPS   C4A11094   0.367   7.464   6.821 -0.0026 -0.0955  0.2545
  734POPS   C1B11095   0.595   7.476   5.950  0.0704 -0.0942 -0.1711
  734POPS   C2B11096   0.564   7.357   6.292 -0.0009 -0.5049  0.0542
  734POPS   C3B11097   0.569   7.103   6.632  0.3674 -0.0277 -0.1689
  734POPS   C4B11098   0.648   6.755   6.879  0.0828 -0.0890 -0.0852
  735POPS   CNO11099   1.228   5.663   5.751  0.2302 -0.1178 -0.1496
  735POPS   PO411100   1.422   5.405   5.953 -0.0035 -0.1521  0.0004
  735POPS   GL111101   1.635   5.429   6.381 -0.2041 -0.3057 -0.0807
  735POPS   GL211102   1.963   5.347   6.503  0.1449 -0.3395  0.0402
  735POPS   C1A11103   1.324   5.598   6.628 -0.3806 -0.1791  0.1623
  735POPS   D2A11104   1.153   5.941   6.878 -0.1281 -0.0750 -0.1814
  735POPS   C3A11105   1.338   6.224   7.203 -0.2876  0.0007  0.0459
  735POPS   C4A11106   1.599   6.352   7.538 -0.0381  0.0460  0.3504
  735POPS   C1B11107   1.759   5.366   6.892  0.3290 -0.1551  0.2889
  735POPS   C2B11108   1.472   5.572   7.092 -0.1733  0.0098  0.1313
  735POPS   C3B11109   1.541   5.838   7.468  0.0478  0.0217 -0.1075
  735POPS   C4B11110   1.210   6.014   7.631  0.0736  0.1848  0.0213
  736POPS   CNO11111  14.978   2.549   5.761 -0.1229  0.0684 -0.1955
  736POPS   PO411112  15.261   2.423   6.146 -0.3311  0.0322  0.3824
  736POPS   GL111113  15.120   2.342   6.606  0.2489  0.2034 -0.2548
  736POPS   GL211114  15.153   2.061   6.762 -0.0592 -0.2794 -0.1855
  736POPS   C1A11115  15.250   2.538   7.031 -0.0033  0.3260 -0.3494
  736POPS   D2A11116  15.383   2.352   7.416  0.1099  0.1002  0.1913
  736POPS   C3A11117  15.673   2.450   7.672  0.1931  0.1652  0.3869
  736POPS   C4A11118  16.010   2.451   7.805 -0.3570 -0.1468 -0.3582
  736POPS   C1B11119  15.197   2.024   7.106 -0.0550  0.2025  0.0184
  736POPS   C2B11120  15.159   1.901   7.488 -0.0245  0.3340 -0.0807
  736POPS   C3B11121  15.297   1.954   7.862  0.3321 -0.1475 -0.1171
  736POPS   C4B11122  15.710   1.915   8.096  0.0976 -0.0049  0.0338
  737POPS   CNO11123   5.743   8.602   5.469 -0.2121 -0.0342  0.0411
  737POPS   PO411124   5.295   8.464   5.536 -0.2447  0.0933  0.1805
  737POPS   GL111125   5.339   8.534   5.901  0.2967  0.1614  0.2177
  737POPS   GL211126   5.202   8.322   6.166  0.2685 -0.0776 -0.0446
  737POPS   C1A11127   5.576   8.770   6.281  0.1438  0.1785  0.1433
  737POPS   D2A11128   5.473   8.896   6.649 -0.2363  0.4056 -0.3358
  737POPS   C3A11129   5.426   8.708   7.023  0.2071 -0.4396  0.2288
  737POPS   C4A11130   5.492   8.904   7.468  0.4319 -0.3348  0.1738
  737POPS   C1B11131   5.082   8.632   6.505 -0.1710 -0.2836 -0.2991
  737POPS   C2B11132   4.881   8.822   6.815 -0.1054  0.1694 -0.1129
  737POPS   C3B11133   5.092   9.025   7.108 -0.2172  0.0478  0.1728
  737POPS   C4B11134   5.469   9.212   7.021  0.0400  0.2349  0.1457
  738POPS   CNO11135   7.373  10.797   5.125 -0.2386 -0.1446 -0.3315
  738POPS   PO411136   7.191  11.198   5.292 -0.1640 -0.0234 -0.1607
  738POPS   GL111137   7.280  11.337   5.663 -0.0480 -0.0414  0.0451
  738POPS   GL211138   7.383  11.636   5.739 -0.0825 -0.1756  0.0474
  738POPS   C1A11139   7.488  11.276   6.067  0.4245  0.0122 -0.0415
  738POPS   D2A11140   7.274  11.139   6.438  0.3973 -0.0691 -0.0969
  738POPS   C3A11141   7.368  10.842   6.710  0.2499  0.0237  0.0968
  738POPS   C4A11142   7.277  10.884   7.129  0.2454 -0.1131  0.0902
  738POPS   C1B11143   7.206  12.024   5.767  0.1063  0.0865 -0.0104
  738POPS   C2B11144   7.300  12.324   5.872 -0.0958 -0.3205  0.2657
  738POPS   C3B11145   7.496  12.339   6.169 -0.0630  0.0710  0.1810
  738POPS   C4B11146   7.483  12.527   6.480 -0.1606  0.0284 -0.1377
  739POPS   CNO11147  14.511  17.584   6.514  0.0436 -0.0728 -0.0100
  739POPS   PO411148  14.850  17.546   6.308 -0.1250 -0.2224 -0.5172
  739POPS   GL111149  15.065  17.614   6.690 -0.0662  0.0065  0.2118
  739POPS   GL211150  15.275  17.441   6.574  0.0333 -0.1813 -0.0635
  739POPS   C1A11151  15.244  17.571   7.091 -0.0182 -0.2102 -0.2231
  739POPS   D2A11152  15.233  17.565   7.547  0.0310  0.1003 -0.0679
  739POPS   C3A11153  14.876  17.510   7.787 -0.1268  0.0380  0.1601
  739POPS   C4A11154  14.688  17.309   8.155  0.2433 -0.3942  0.2972
  739POPS   C1B11155  15.143  17.138   6.864 -0.0296  0.3577 -0.0663
  739POPS   C2B11156  15.148  16.746   7.096 -0.1556  0.0252  0.1713
  739POPS   C3B11157  15.185  16.279   7.206 -0.2537  0.1158 -0.0309
  739POPS   C4B11158  15.321  16.224   7.589 -0.1128  0.0813 -0.1739
  740POPS   CNO11159   8.692   2.879   6.480 -0.0566 -0.2347 -0.1269
  740POPS   PO411160   8.801   2.402   6.409  0.0755 -0.2220 -0.0323
  740POPS   GL111161   8.860   2.576   6.889  0.1444 -0.0728  0.1083
  740POPS   GL211162   8.604   2.381   7.097  0.1727 -0.0712  0.1096
  740POPS   C1A11163   8.840   2.748   7.333  0.0130 -0.2318  0.1174
  740POPS   D2A11164   8.795   2.901   7.713 -0.1820  0.1634 -0.0672
  740POPS   C3A11165   8.306   2.659   7.892  0.3598  0.0058 -0.0708
  740POPS   C4A11166   7.901   2.470   7.687  0.2119 -0.3070 -0.0971
  740POPS   C1B11167   8.566   2.382   7.567 -0.1381  0.0492  0.1096
  740POPS   C2B11168   8.282   2.157   7.796 -0.0139  0.2706  0.0000
  740POPS   C3B11169   8.026   2.266   8.155 -0.1630 -0.0001  0.3291
  740POPS   C4B11170   7.745   2.616   8.191  0.4474 -0.0600  0.1055
  741POPS   CNO11171  15.510  10.230   5.270  0.3374  0.1734  0.4265
  741POPS   PO411172  15.467  10.293   5.679  0.0526 -0.0394  0.0218
  741POPS   GL111173  15.599  10.044   5.962  0.3604  0.0602 -0.1459
  741POPS   GL211174  15.795  10.139   6.111 -0.0909 -0.0477 -0.0249
  741POPS   C1A11175  15.539   9.734   6.344  0.0993  0.2107  0.0864
  741POPS   D2A11176  15.329   9.714   6.779 -0.0866 -0.1119 -0.2936
  741POPS   C3A11177  15.375   9.479   7.213 -0.1043  0.3193  0.1713
  741POPS   C4A11178  15.246   9.102   7.562  0.1025 -0.0251  0.1316
  741POPS   C1B11179  15.950  10.066   6.535  0.4315 -0.0630 -0.0875
  741POPS   C2B11180  15.746   9.914   6.904 -0.1208  0.1972 -0.1129
  741POPS   C3B11181  15.837   9.837   7.322  0.2958 -0.1060  0.2066
  741POPS   C4B11182  16.151   9.606   7.665 -0.1482 -0.0304 -0.1511
  742POPS   CNO11183   2.920   5.821   5.764 -0.2097 -0.1194 -0.2484
  742POPS   PO411184   3.267   6.063   5.671 -0.2600  0.1172  0.0589
  742POPS   GL111185   3.210   6.145   6.106  0.0257  0.0435  0.3130
  742POPS   GL211186   3.364   6.432   6.209  0.0950 -0.1221  0.0987
  742POPS   C1A11187   3.299   5.995   6.585 -0.1789 -0.0176  0.2673
  742POPS   D2A11188   3.346   6.224   6.948 -0.2550 -0.0483 -0.2488
  742POPS   C3A11189   3.124   6.273   7.349  0.0476  0.1966  0.4088
  742POPS   C4A11190   3.313   6.080   7.731  0.0730 -0.0255 -0.0273
  742POPS   C1B11191   3.148   6.530   6.576 -0.4022  0.1047 -0.2290
  742POPS   C2B11192   3.039   6.989   6.772  0.0961 -0.1294  0.0820
  742POPS   C3B11193   2.664   7.029   6.984  0.0373 -0.1466  0.0226
  742POPS   C4B11194   2.379   6.932   7.241  0.1327 -0.3238 -0.0118
  743POPS   CNO11195  12.421   3.719   6.122 -0.0738 -0.2538 -0.2318
  743POPS   PO411196  11.989   3.794   6.052 -0.0319  0.0736 -0.0841
  743POPS   GL111197  12.061   3.767   6.538 -0.1424 -0.1635 -0.1162
  743POPS   GL211198  12.316   4.002   6.774 -0.1208  0.0961  0.1720
  743POPS   C1A11199  12.181   3.520   6.977 -0.1721 -0.2488 -0.0089
  743POPS   D2A11200  12.122   3.484   7.416 -0.0262  0.0458  0.0108
  743POPS   C3A11201  12.308   3.764   7.806 -0.0301  0.1842 -0.1642
  743POPS   C4A11202  12.698   3.853   8.023 -0.2201  0.1720 -0.0822
  743POPS   C1B11203  12.208   4.192   6.993 -0.2084  0.0695  0.0576
  743POPS   C2B11204  12.234   4.422   7.193 -0.1138  0.2418 -0.5064
  743POPS   C3B11205  12.266   4.404   7.606  0.0977  0.0236  0.2117
  743POPS   C4B11206  12.361   4.237   8.035  0.1651 -0.0199  0.1270
  744POPS   CNO11207  11.952   6.374   5.808 -0.0666 -0.0406 -0.0867
  744POPS   PO411208  11.988   6.624   5.952 -0.1137 -0.0317  0.2135
  744POPS   GL111209  11.962   6.704   6.273  0.1229 -0.0102 -0.0962
  744POPS   GL211210  12.158   6.924   6.321  0.1185  0.0129 -0.0569
  744POPS   C1A11211  12.143   6.510   6.685  0.0224  0.0722  0.0777
  744POPS   D2A11212  12.343   6.617   7.113  0.1450  0.1004  0.1117
  744POPS   C3A11213  12.222   6.451   7.559 -0.1583  0.2822  0.3348
  744POPS   C4A11214  12.235   6.174   7.859 -0.0025  0.2070 -0.4297
  744POPS   C1B11215  12.375   7.005   6.706  0.1992 -0.1027 -0.0301
  744POPS   C2B11216  12.493   7.216   6.981 -0.0270 -0.2219 -0.2302
  744POPS   C3B11217  12.338   7.136   7.303 -0.2994 -0.2155  0.0908
  744POPS   C4B11218  12.243   6.966   7.703 -0.0481 -0.1239  0.3890
  745POPS   CNO11219   7.405   9.979   5.593 -0.1664  0.1138  0.0822
  745POPS   PO411220   7.353   9.527   5.608 -0.0699  0.0279 -0.0569
  745POPS   GL111221   7.394   9.535   6.076  0.1425 -0.0024  0.1557
  745POPS   GL211222   7.275   9.765   6.080  0.0393 -0.1127 -0.0116
  745POPS   C1A11223   7.472   9.339   6.428  0.2049  0.1991  0.0029
  745POPS   D2A11224   7.381   9.581   6.786  0.0297 -0.0180 -0.2612
  745POPS   C3A11225   7.587   9.831   7.181 -0.0533 -0.0215  0.0111
  745POPS   C4A11226   8.008   9.895   7.236  0.0163  0.1247  0.0624
  745POPS   C1B11227   7.216   9.952   6.487  0.1859  0.0634 -0.0299
  745POPS   C2B11228   6.953  10.320   6.551  0.1676  0.1494 -0.0637
  745POPS   C3B11229   7.020  10.697   6.306 -0.0215 -0.1160 -0.0300
  745POPS   C4B11230   6.792  11.090   6.464  0.0145  0.0736 -0.4395
  746POPS   CNO11231  15.466   0.310   5.926  0.0573 -0.0850 -0.1920
  746POPS   PO411232  15.127   0.415   6.050  0.1113 -0.1303  0.0954
  746POPS   GL111233  15.066   0.397   6.486  0.0159 -0.0176 -0.2104
  746POPS   GL211234  14.827   0.152   6.648  0.3431  0.1609 -0.1061
  746POPS   C1A11235  15.106   0.447   6.960  0.0085 -0.0744 -0.1287
  746POPS   D2A11236  15.026   0.326   7.377 -0.0036  0.3663 -0.6514
  746POPS   C3A11237  15.183   0.558   7.662  0.1045  0.1636 -0.2517
  746POPS   C4A11238  15.468   0.886   7.862 -0.0475  0.0146  0.0541
  746POPS   C1B11239  14.848  -0.029   7.084 -0.2617  0.1089 -0.0734
  746POPS   C2B11240  15.128  -0.144   7.446 -0.1599  0.0375 -0.1004
  746POPS   C3B11241  15.492  -0.108   7.647 -0.1426  0.1342  0.2009
  746POPS   C4B11242  15.891  -0.091   7.680 -0.0238  0.0829  0.1765
  747POPS   CNO11243   2.237   3.330   6.253  0.4062 -0.1615 -0.0421
  747POPS   PO411244   2.572   3.291   6.153  0.1231 -0.0942 -0.2136
  747POPS   GL111245   2.545   3.075   6.561  0.0391 -0.0193  0.2151
  747POPS   GL211246   2.795   2.871   6.668 -0.2615  0.0976 -0.0610
  747POPS   C1A11247   2.440   2.973   7.043  0.0285 -0.0337 -0.2888
  747POPS   D2A11248   2.778   2.806   7.383  0.1783  0.3997 -0.0971
  747POPS   C3A11249   3.041   2.942   7.737  0.5259  0.1044 -0.0413
  747POPS   C4A11250   3.402   2.916   8.106 -0.1571 -0.1915 -0.3547
  747POPS   C1B11251   2.966   3.055   6.904 -0.1006 -0.2082 -0.1502
  747POPS   C2B11252   3.258   3.167   7.248 -0.3606 -0.0360 -0.0979
  747POPS   C3B11253   3.542   2.827   7.490 -0.1330 -0.2941  0.0161
  747POPS   C4B11254   3.694   2.539   7.595  0.1968 -0.1354 -0.1065
  748POPS   CNO11255  14.531  15.798   6.157 -0.0151  0.1710  0.0023
  748POPS   PO411256  14.906  16.135   6.206  0.0819  0.1457 -0.4882
  748POPS   GL111257  14.779  16.002   6.609  0.2387 -0.0424 -0.3290
  748POPS   GL211258  14.537  16.183   6.594 -0.1666 -0.0568  0.1349
  748POPS   C1A11259  14.658  15.912   7.052 -0.0489 -0.1371  0.3524
  748POPS   D2A11260  14.601  15.968   7.539 -0.0486  0.1635 -0.5592
  748POPS   C3A11261  14.889  15.928   7.784 -0.1112 -0.0708  0.4348
  748POPS   C4A11262  15.087  15.690   8.013  0.0730  0.1645  0.0234
  748POPS   C1B11263  14.258  15.985   6.840  0.1107  0.0991 -0.1024
  748POPS   C2B11264  13.806  15.859   7.017 -0.0284  0.0140  0.0787
  748POPS   C3B11265  13.351  15.627   7.139  0.0822 -0.0379  0.0038
  748POPS   C4B11266  12.877  15.578   7.211  0.0745 -0.1460  0.0109
  749POPS   CNO11267   6.080   2.598   6.085  0.1460 -0.0939  0.1674
  749POPS   PO411268   6.478   2.408   5.822 -0.3323  0.1560 -0.1816
  749POPS   GL111269   6.523   2.192   6.195 -0.0520  0.1323  0.2125
  749POPS   GL211270   6.311   2.156   6.366 -0.2820  0.1819  0.0232
  749POPS   C1A11271   6.832   1.918   6.397  0.2264  0.0958 -0.1880
  749POPS   D2A11272   7.052   1.801   6.749 -0.4353  0.3329 -0.1953
  749POPS   C3A11273   6.933   1.853   7.196  0.0352  0.5584  0.0157
  749POPS   C4A11274   7.198   1.736   7.459 -0.0158 -0.0641 -0.0754
  749POPS   C1B11275   6.568   2.169   6.794  0.0246  0.1857  0.0942
  749POPS   C2B11276   6.542   2.136   7.186 -0.1643 -0.0089  0.1052
  749POPS   C3B11277   6.643   2.292   7.524  0.0172 -0.1983  0.0910
  749POPS   C4B11278   6.917   2.043   7.749  0.1417 -0.2232 -0.1348
  750POPS   CNO11279   2.779   0.437   5.940  0.0048 -0.0265  0.2589
  750POPS   PO411280   3.057   0.904   5.947 -0.1949  0.2124  0.1440
  750POPS   GL111281   3.334   0.885   6.269 -0.0708 -0.0985 -0.2781
  750POPS   GL211282   3.156   1.035   6.518 -0.0176  0.2114 -0.1806
  750POPS   C1A11283   3.841   0.567   6.396  0.0548 -0.0326 -0.2337
  750POPS   D2A11284   4.164   0.210   6.507 -0.2182  0.1273 -0.3578
  750POPS   C3A11285   4.176  -0.232   6.447 -0.0782 -0.2657  0.1992
  750POPS   C4A11286   4.120  -0.665   6.616  0.1145  0.2480 -0.0738
  750POPS   C1B11287   3.209   1.025   6.920  0.0492 -0.2887 -0.2871
  750POPS   C2B11288   3.264   1.243   7.312 -0.0450  0.0186  0.1063
  750POPS   C3B11289   3.373   1.369   7.643  0.1639  0.3512 -0.1114
  750POPS   C4B11290   3.693   1.521   7.964 -0.0212  0.1002  0.0499
  751POPS   CNO11291  16.852   1.422   6.159 -0.2316  0.0661 -0.3793
  751POPS   PO411292  16.510   1.203   6.164 -0.0713 -0.2106  0.0527
  751POPS   GL111293  16.614   1.213   6.542  0.2949  0.4915  0.0635
  751POPS   GL211294  16.364   1.354   6.666  0.3998  0.3823 -0.1767
  751POPS   C1A11295  16.923   1.295   6.840 -0.1069  0.1485  0.0143
  751POPS   D2A11296  16.827   1.538   7.125 -0.0314 -0.0855 -0.2592
  751POPS   C3A11297  16.952   1.838   7.474  0.4082  0.0481  0.2548
  751POPS   C4A11298  16.955   2.084   7.727 -0.0404  0.1841 -0.1912
  751POPS   C1B11299  16.357   1.549   6.998 -0.1471  0.0788 -0.1771
  751POPS   C2B11300  16.243   2.048   7.029 -0.0994 -0.1394 -0.1327
  751POPS   C3B11301  16.128   2.324   7.321 -0.0782 -0.3261 -0.1522
  751POPS   C4B11302  15.773   2.632   7.219  0.2782 -0.0280 -0.1911
  752YOPS   CNO11303  15.653   9.760   5.520  0.1515  0.1721 -0.1819
  752YOPS   PO411304  15.344   9.343   5.463 -0.0198  0.0678  0.2121
  752YOPS   GL111305  15.417   9.477   5.858  0.2555 -0.0007 -0.0893
  752YOPS   GL211306  15.165   9.735   5.995  0.0249 -0.0379 -0.0738
  752YOPS   C1A11307  15.315   9.300   6.249  0.1063  0.0459  0.1420
  752YOPS   D2A11308  15.304   9.119   6.681  0.1876  0.1131  0.1106
  752YOPS   C3A11309  15.079   9.041   7.066 -0.1820  0.1514  0.1365
  752YOPS   C4A11310  14.858   8.645   7.090  0.2061  0.2222  0.2532
  752YOPS   C1B11311  14.960   9.679   6.420 -0.1288  0.2379 -0.1501
  752YOPS   C2B11312  14.850   9.327   6.677  0.0393  0.0347 -0.2603
  752YOPS   D3B11313  14.741   9.378   7.105 -0.3564 -0.0315  0.2800
  752YOPS   C4B11314  14.773   9.124   7.468 -0.2416  0.2418  0.1034
  753YOPS   CNO11315  14.226   2.287   6.253 -0.0744  0.2533 -0.2318
  753YOPS   PO411316  14.403   1.824   6.296  0.2096 -0.2902 -0.2753
  753YOPS   GL111317  14.147   1.884   6.626  0.0092 -0.1801  0.2794
  753YOPS   GL211318  14.115   2.233   6.790 -0.1927  0.1292  0.0689
  753YOPS   C1A11319  14.268   1.839   7.035  0.2387 -0.2155 -0.2568
  753YOPS   D2A11320  14.206   1.581   7.417  0.1515  0.3550  0.4146
  753YOPS   C3A11321  14.250   1.707   7.798 -0.0228  0.0062  0.2168
  753YOPS   C4A11322  14.556   1.496   7.943  0.1043 -0.2741  0.0545
  753YOPS   C1B11323  14.222   2.216   7.276 -0.1646 -0.2123  0.0411
  753YOPS   C2B11324  14.300   2.190   7.670 -0.1040  0.1185  0.1580
  753YOPS   D3B11325  14.372   2.025   8.171  0.2806  0.3046  0.1372
  753YOPS   C4B11326  14.054   1.860   8.330 -0.0756  0.0614  0.2459
  754YOPS   CNO11327  15.810  14.343   5.075  0.2377  0.1261  0.1262
  754YOPS   PO411328  15.555  14.571   5.496 -0.4224 -0.0483 -0.2799
  754YOPS   GL111329  15.643  14.522   5.986  0.0469 -0.0214  0.0708
  754YOPS   GL211330  15.450  14.702   6.120 -0.1772  0.2190  0.0174
  754YOPS   C1A11331  15.492  14.307   6.374 -0.0410  0.2121  0.0330
  754YOPS   D2A11332  15.351  14.299   6.784  0.2637  0.1561  0.1229
  754YOPS   C3A11333  15.396  14.209   7.209 -0.1048  0.0352 -0.2826
  754YOPS   C4A11334  15.384  14.299   7.658  0.0948  0.4196  0.0275
  754YOPS   C1B11335  15.253  14.706   6.462  0.0407  0.2605 -0.0501
  754YOPS   C2B11336  15.117  14.695   6.931 -0.0704 -0.1275  0.1337
  754YOPS   D3B11337  15.084  14.611   7.403 -0.1512  0.1681 -0.0725
  754YOPS   C4B11338  14.633  14.418   7.581  0.0321 -0.1944 -0.3630
  755YOPS   CNO11339  13.160   0.484   6.154 -0.1709  0.0633 -0.2324
  755YOPS   PO411340  13.365   0.251   6.451 -0.1079 -0.1217  0.2404
  755YOPS   GL111341  13.510   0.138   6.919 -0.1519  0.0559  0.0869
  755YOPS   GL211342  13.643  -0.115   6.966  0.1310 -0.1246  0.0422
  755YOPS   C1A11343  13.408   0.084   7.357  0.1379 -0.0974 -0.0367
  755YOPS   D2A11344  13.332   0.178   7.749  0.0534  0.2787  0.1185
  755YOPS   C3A11345  13.521   0.076   8.207  0.2497  0.0186 -0.1030
  755YOPS   C4A11346  13.953   0.157   8.309 -0.0482 -0.0492  0.1124
  755YOPS   C1B11347  13.877   0.037   7.340  0.1903 -0.2355  0.1501
  755YOPS   C2B11348  13.826   0.052   7.800  0.1284  0.1729 -0.0520
  755YOPS   D3B11349  13.737   0.456   7.902  0.1197 -0.2223  0.0159
  755YOPS   C4B11350  13.998   0.749   8.288 -0.0407 -0.0859 -0.0682
  756YOPS   CNO11351   2.882   5.338   6.101 -0.2425  0.0120  0.3043
  756YOPS   PO411352   2.746   4.865   5.948  0.3291  0.2250 -0.2539
  756YOPS   GL111353   2.671   4.963   6.418  0.3365 -0.1204  0.1671
  756YOPS   GL211354   2.780   5.105   6.681  0.0040  0.1066 -0.0646
  756YOPS   C1A11355   2.545   4.698   6.687  0.0264  0.0518 -0.0354
  756YOPS   D2A11356   2.543   4.478   7.149  0.0739  0.2379  0.2458
  756YOPS   C3A11357   2.484   4.302   7.476  0.1276  0.3948  0.0666
  756YOPS   C4A11358   2.800   4.429   7.768 -0.0977  0.0712 -0.3203
  756YOPS   C1B11359   2.728   4.959   7.108  0.1488  0.4626  0.3093
  756YOPS   C2B11360   2.731   4.866   7.470  0.2834  0.0067  0.2703
  756YOPS   D3B11361   2.400   4.760   7.754 -0.1137  0.0108  0.0746
  756YOPS   C4B11362   2.308   4.356   7.990 -0.0692  0.2287 -0.0005
  757YOPS   CNO11363   0.365  13.772   5.714  0.1792 -0.2411  0.0738
  757YOPS   PO411364   0.354  14.159   5.668  0.0031  0.2688 -0.1012
  757YOPS   GL111365   0.321  14.123   6.085  0.2108 -0.1519 -0.0044
  757YOPS   GL211366   0.080  14.007   6.129  0.1755  0.0375 -0.0008
  757YOPS   C1A11367   0.358  14.391   6.381 -0.0029  0.1560 -0.5529
  757YOPS   D2A11368   0.237  14.528   6.906 -0.2489  0.1931 -0.1556
  757YOPS   C3A11369   0.369  14.536   7.247 -0.2729 -0.1336  0.1441
  757YOPS   C4A11370   0.840  14.688   7.369 -0.1717  0.1998 -0.1198
  757YOPS   C1B11371  -0.101  14.232   6.553 -0.1488  0.1902 -0.0317
  757YOPS   C2B11372  -0.236  14.338   6.891  0.1890 -0.1613 -0.3570
  757YOPS   D3B11373  -0.262  14.334   7.359 -0.1665 -0.0289  0.0119
  757YOPS   C4B11374   0.123  14.095   7.446  0.1509  0.0282  0.3704
  758YOPS   CNO11375   5.709  17.055   4.986 -0.0948  0.0289  0.2595
  758YOPS   PO411376   5.934  16.877   5.356 -0.0052  0.2954 -0.1218
  758YOPS   GL111377   6.053  16.700   5.674  0.2262 -0.2783 -0.0205
  758YOPS   GL211378   6.025  16.485   5.850  0.5388  0.0523  0.3185
  758YOPS   C1A11379   6.272  16.937   6.013 -0.1680  0.0472 -0.2779
  758YOPS   D2A11380   6.294  16.983   6.452 -0.2481 -0.1426 -0.0273
  758YOPS   C3A11381   6.245  16.904   6.895 -0.0409 -0.1828  0.1183
  758YOPS   C4A11382   6.285  16.756   7.294  0.2941 -0.1602 -0.0190
  758YOPS   C1B11383   5.789  16.209   6.103  0.3156 -0.1267  0.1306
  758YOPS   C2B11384   5.776  16.126   6.553  0.1498  0.0920 -0.0511
  758YOPS   D3B11385   5.935  16.258   6.905  0.2259  0.1960  0.1233
  758YOPS   C4B11386   5.744  16.147   7.140  0.1679 -0.1903  0.2970
  759YOPS   CNO11387   2.811  11.000   4.485  0.0052 -0.1020 -0.2430
  759YOPS   PO411388   2.531  10.951   5.017  0.3593 -0.2892 -0.1941
  759YOPS   GL111389   2.535  10.690   5.352 -0.0129  0.3406  0.4118
  759YOPS   GL211390   2.302  10.475   5.301  0.0098 -0.1968  0.0959
  759YOPS   C1A11391   2.632  10.650   5.771  0.0384  0.1641  0.2037
  759YOPS   D2A11392   2.750  10.759   6.135 -0.4798  0.2975  0.1017
  759YOPS   C3A11393   2.995  10.786   6.377 -0.2303  0.0667  0.0370
  759YOPS   C4A11394   2.992  11.137   6.612 -0.0204  0.0367  0.1478
  759YOPS   C1B11395   2.131  10.488   5.685  0.0623 -0.0062 -0.4628
  759YOPS   C2B11396   1.891  10.507   6.146 -0.3744  0.0517  0.0185
  759YOPS   D3B11397   1.625  10.825   6.376 -0.0471  0.0346  0.1067
  759YOPS   C4B11398   1.727  10.826   6.834  0.2102  0.1055 -0.0207
  760YOPS   CNO11399  13.256   1.378   5.769  0.1357  0.1761 -0.0343
  760YOPS   PO411400  13.064   1.426   6.074 -0.0408  0.0940  0.2487
  760YOPS   GL111401  13.043   1.693   6.396 -0.0800  0.0914  0.1788
  760YOPS   GL211402  12.897   1.536   6.534 -0.1550  0.0588 -0.0108
  760YOPS   C1A11403  13.222   1.633   6.900  0.0625  0.0833 -0.3171
  760YOPS   D2A11404  13.235   1.704   7.355  0.1870  0.2768  0.1692
  760YOPS   C3A11405  13.396   1.798   7.704  0.0751  0.0893  0.0818
  760YOPS   C4A11406  13.231   1.782   8.006 -0.3359 -0.2533  0.3126
  760YOPS   C1B11407  12.706   1.733   6.929  0.2269  0.1360 -0.1001
  760YOPS   C2B11408  12.704   1.776   7.343 -0.2082  0.0783 -0.3066
  760YOPS   D3B11409  12.613   2.008   7.684 -0.1673  0.0744  0.1635
  760YOPS   C4B11410  12.705   1.769   8.122 -0.1431 -0.0001  0.4227
  761YOPS   CNO11411   3.741  18.093   5.551 -0.0752  0.1968  0.0647
  761YOPS   PO411412   3.361  18.135   5.632 -0.0625 -0.3238 -0.0213
  761YOPS   GL111413   3.379  18.234   6.018  0.1142  0.3356  0.1779
  761YOPS   GL211414   3.146  18.190   6.249  0.0194  0.1644 -0.0470
  761YOPS   C1A11415   3.732  18.216   6.426  0.0899 -0.2110 -0.1457
  761YOPS   D2A11416   3.910  18.372   6.853 -0.0602 -0.2335  0.2246
  761YOPS   C3A11417   4.003  18.477   7.352 -0.4616 -0.0211  0.5163
  761YOPS   C4A11418   4.343  18.853   7.413 -0.0106  0.0719 -0.0839
  761YOPS   C1B11419   3.104  18.310   6.723  0.0087  0.2824 -0.2208
  761YOPS   C2B11420   3.055  18.115   7.170  0.0465 -0.3395  0.0041
  761YOPS   D3B11421   3.002  18.280   7.611 -0.2370 -0.2131  0.0498
  761YOPS   C4B11422   3.282  18.055   7.920  0.0921  0.1002  0.0698
  762YOPS   CNO11423  11.043  11.967   4.849  0.2955 -0.0593  0.2947
  762YOPS   PO411424  11.222  11.871   5.225  0.0409 -0.0855  0.0389
  762YOPS   GL111425  11.542  11.908   5.585 -0.0131  0.0541  0.3380
  762YOPS   GL211426  11.634  11.556   5.704  0.2792  0.1078 -0.0164
  762YOPS   C1A11427  11.778  11.870   6.080  0.0847  0.2243  0.3094
  762YOPS   D2A11428  12.215  11.597   6.329 -0.0459  0.1653 -0.1805
  762YOPS   C3A11429  12.580  11.611   6.192  0.1192 -0.0488  0.0258
  762YOPS   C4A11430  12.728  12.099   6.271 -0.0575  0.0488 -0.2255
  762YOPS   C1B11431  11.294  11.783   5.960  0.0108 -0.1522  0.1957
  762YOPS   C2B11432  11.412  11.885   6.437 -0.1538  0.3623  0.0548
  762YOPS   D3B11433  11.122  12.057   6.686 -0.1204  0.0127  0.1398
  762YOPS   C4B11434  11.192  12.197   7.104 -0.1098 -0.0912  0.0147
  763YOPS   CNO11435   6.691   6.543   6.108 -0.1480  0.0458 -0.0496
  763YOPS   PO411436   6.738   7.034   6.293 -0.2063 -0.0934  0.0664
  763YOPS   GL111437   6.794   6.715   6.646 -0.1384  0.1434  0.1156
  763YOPS   GL211438   6.979   6.393   6.520  0.1893 -0.0289 -0.2655
  763YOPS   C1A11439   6.649   6.643   7.019 -0.1531 -0.0075  0.0628
  763YOPS   D2A11440   6.481   6.601   7.447 -0.2582  0.5887  0.1353
  763YOPS   C3A11441   6.305   6.176   7.637 -0.1919 -0.1056  0.1243
  763YOPS   C4A11442   6.257   5.963   8.058 -0.3653 -0.0514  0.5401
  763YOPS   C1B11443   6.720   6.184   6.886  0.3399 -0.4120  0.1924
  763YOPS   C2B11444   6.832   6.208   7.228  0.0309 -0.1111 -0.2578
  763YOPS   D3B11445   6.847   6.271   7.646  0.0372  0.2742 -0.1591
  763YOPS   C4B11446   7.113   6.078   7.825  0.4937  0.0838  0.1871
  764YOPS   CNO11447  10.651  11.270   5.005  0.0147 -0.0029 -0.1670
  764YOPS   PO411448  10.506  11.190   5.419 -0.2706  0.0747  0.1306
  764YOPS   GL111449  10.360  11.216   5.777  0.1874  0.1432 -0.0267
  764YOPS   GL211450  10.404  10.872   5.984  0.0546  0.2407 -0.5331
  764YOPS   C1A11451  10.462  11.336   6.230  0.1231  0.0280 -0.1156
  764YOPS   D2A11452  10.453  11.381   6.695 -0.2015  0.0653  0.1141
  764YOPS   C3A11453  10.701  11.320   7.071 -0.0168 -0.3718  0.1291
  764YOPS   C4A11454  11.207  11.308   7.281 -0.0593 -0.2020 -0.3285
  764YOPS   C1B11455  10.309  10.892   6.427 -0.2066  0.1077 -0.0092
  764YOPS   C2B11456  10.433  10.704   6.839  0.1146 -0.1960  0.2002
  764YOPS   D3B11457  10.484  10.797   7.217 -0.1323  0.0214  0.3193
  764YOPS   C4B11458  10.649  10.633   7.586  0.1986  0.3564 -0.2950
  765YOPS   CNO11459   8.841  16.540   5.603  0.2231  0.1690  0.2354
  765YOPS   PO411460   8.680  16.845   5.613 -0.2542 -0.3730 -0.2975
  765YOPS   GL111461   8.714  16.734   6.111 -0.3251  0.3046  0.2674
  765YOPS   GL211462   9.065  16.713   6.028  0.2405 -0.0319 -0.0541
  765YOPS   C1A11463   8.851  16.720   6.635  0.3265 -0.1923  0.4193
  765YOPS   D2A11464   8.850  16.831   7.003 -0.2777  0.0161  0.1170
  765YOPS   C3A11465   9.157  17.134   7.213  0.3171 -0.0923  0.2774
  765YOPS   C4A11466   8.895  17.362   7.506 -0.0394  0.1832 -0.1191
  765YOPS   C1B11467   9.195  16.434   6.422 -0.0076  0.1531 -0.1957
  765YOPS   C2B11468   9.139  16.382   6.840  0.2099  0.1956 -0.1268
  765YOPS   D3B11469   8.986  16.360   7.189  0.2830  0.0493  0.2720
  765YOPS   C4B11470   8.599  16.409   7.529 -0.0101 -0.1480  0.2715
  766YOPS   CNO11471   0.574  16.574   5.130  0.0091  0.1786 -0.2256
  766YOPS   PO411472   0.988  16.589   5.351 -0.2188  0.0475 -0.1348
  766YOPS   GL111473   0.892  17.010   5.720  0.1376  0.1970 -0.0541
  766YOPS   GL211474   0.618  17.151   5.812  0.3389  0.2179 -0.0370
  766YOPS   C1A11475   0.770  16.828   6.100  0.0099 -0.4517 -0.2997
  766YOPS   D2A11476   0.763  16.874   6.539 -0.0678  0.2448 -0.0047
  766YOPS   C3A11477   0.480  17.036   6.760 -0.0377 -0.0512  0.3873
  766YOPS   C4A11478  -0.011  17.133   6.872  0.1947 -0.1157  0.4309
  766YOPS   C1B11479   0.355  17.090   6.257 -0.0284 -0.1706 -0.1450
  766YOPS   C2B11480  -0.067  17.160   6.336  0.0671 -0.0878  0.1902
  766YOPS   D3B11481  -0.519  16.963   6.414 -0.1782 -0.3704  0.3709
  766YOPS   C4B11482  -0.896  17.196   6.533  0.2489 -0.3457 -0.0218
  767YOPS   CNO11483  10.852   4.396   5.459 -0.0976  0.1463  0.4076
  767YOPS   PO411484  10.801   4.414   5.892 -0.2950 -0.2512  0.2543
  767YOPS   GL111485  10.805   4.325   6.341 -0.0211  0.0281 -0.0551
  767YOPS   GL211486  11.156   4.305   6.504  0.0939 -0.0241 -0.1893
  767YOPS   C1A11487  10.605   4.590   6.647  0.1969  0.1425  0.2167
  767YOPS   D2A11488  10.617   4.673   7.002  0.1761  0.4377 -0.1090
  767YOPS   C3A11489  10.483   5.024   7.363 -0.3384  0.1934  0.1157
  767YOPS   C4A11490  10.678   5.423   7.275 -0.0247  0.0318  0.0709
  767YOPS   C1B11491  11.311   4.210   6.885  0.1370 -0.0534 -0.0394
  767YOPS   C2B11492  11.449   3.997   7.263  0.3463  0.3554 -0.0704
  767YOPS   D3B11493  11.336   4.097   7.572 -0.0258 -0.0466  0.1112
  767YOPS   C4B11494  11.410   3.838   7.969 -0.1624 -0.0748  0.6027
  768YOPS   CNO11495  11.596  18.376   6.264 -0.2644 -0.0131 -0.2535
  768YOPS   PO411496  12.073  18.445   6.119  0.3351  0.0216  0.0946
  768YOPS   GL111497  12.088  18.285   6.514 -0.2596  0.4374 -0.1118
  768YOPS   GL211498  12.308  18.123   6.467  0.0361 -0.0254 -0.3502
  768YOPS   C1A11499  11.804  18.412   6.914  0.0496  0.4034  0.0593
  768YOPS   D2A11500  11.578  18.283   7.284 -0.1448 -0.2909 -0.0754
  768YOPS   C3A11501  11.330  18.502   7.657  0.1681 -0.1844 -0.1986
  768YOPS   C4A11502  11.504  18.577   7.943  0.1278  0.0651  0.3885
  768YOPS   C1B11503  12.335  17.905   6.778  0.1905  0.0630 -0.0089
  768YOPS   C2B11504  12.307  17.815   7.241  0.0906  0.0364  0.3421
  768YOPS   D3B11505  12.534  18.052   7.651 -0.2039  0.1783  0.2234
  768YOPS   C4B11506  12.828  17.870   7.925  0.0364  0.2256 -0.0737
  769YOPS   CNO11507   6.252   5.594   6.450  0.1452 -0.1190  0.1572
  769YOPS   PO411508   5.824   5.422   6.370  0.0569 -0.1910 -0.0446
  769YOPS   GL111509   5.598   5.286   6.738 -0.0683 -0.1741  0.2498
  769YOPS   GL211510   5.685   4.998   6.845  0.2073  0.2304 -0.1465
  769YOPS   C1A11511   5.193   5.335   7.204  0.4074 -0.1246  0.0204
  769YOPS   D2A11512   4.993   5.571   7.490 -0.3403 -0.1265  0.2359
  769YOPS   C3A11513   4.623   5.833   7.713 -0.1958 -0.1616  0.0605
  769YOPS   C4A11514   4.335   6.054   8.092 -0.1924  0.0219 -0.1748
  769YOPS   C1B11515   5.684   4.905   7.257  0.1949 -0.0435 -0.0308
  769YOPS   C2B11516   5.698   4.791   7.731  0.0777 -0.0896  0.0398
  769YOPS   D3B11517   5.511   4.977   8.120  0.0633 -0.0579  0.0270
  769YOPS   C4B11518   5.355   5.065   8.420  0.1453  0.3353 -0.1888
  770YOPS   CNO11519  17.438  14.559   5.272 -0.0456 -0.3126 -0.1267
  770YOPS   PO411520  17.735  14.484   5.525  0.0912 -0.1822  0.0912
  770YOPS   GL111521  17.851  14.206   5.897  0.0247  0.0501  0.1056
  770YOPS   GL211522  18.160  14.003   5.931  0.0187  0.1895 -0.0227
  770YOPS   C1A11523  17.552  14.289   6.212 -0.0592 -0.1744  0.0166
  770YOPS   D2A11524  17.520  14.327   6.725 -0.1204 -0.0231  0.0812
  770YOPS   C3A11525  17.501  14.119   7.150 -0.2570  0.4665 -0.1378
  770YOPS   C4A11526  17.584  14.376   7.532  0.0285  0.0962  0.1642
  770YOPS   C1B11527  18.224  14.235   6.210  0.0431  0.0950 -0.1353
  770YOPS   C2B11528  18.050  14.490   6.495 -0.1786  0.1544  0.0360
  770YOPS   D3B11529  17.692  14.747   6.537 -0.1569 -0.1824 -0.1058
  770YOPS   C4B11530  17.750  15.016   6.936 -0.4402 -0.0918 -0.0035
  771YOPS   CNO11531  12.105   7.076   5.575 -0.1256  0.2354  0.1816
  771YOPS   PO411532  12.441   7.319   5.688 -0.0855 -0.0742  0.2340
  771YOPS   GL111533  12.272   7.389   6.090 -0.0900 -0.0369  0.1569
  771YOPS   GL211534  12.151   7.712   6.199 -0.0826  0.3372 -0.2812
  771YOPS   C1A11535  12.536   7.519   6.525 -0.2759  0.3030  0.1504
  771YOPS   D2A11536  12.915   7.392   6.799  0.4920 -0.0415 -0.0707
  771YOPS   C3A11537  13.043   7.571   7.208  0.1910  0.2376  0.0371
  771YOPS   C4A11538  13.286   7.372   7.464  0.0152 -0.3012  0.0160
  771YOPS   C1B11539  12.492   7.978   6.325 -0.1170  0.0470  0.0006
  771YOPS   C2B11540  12.816   8.168   6.478  0.1834  0.0883  0.0535
  771YOPS   D3B11541  13.190   8.294   6.362  0.0024  0.1551 -0.0643
  771YOPS   C4B11542  13.363   8.321   6.777  0.0128 -0.2204 -0.3208
  772YOPS   CNO11543  10.173  14.124   5.193 -0.0387 -0.3581 -0.0819
  772YOPS   PO411544  10.185  13.736   5.281  0.4451  0.2500 -0.1141
  772YOPS   GL111545  10.263  13.411   5.640 -0.2084  0.3577 -0.0480
  772YOPS   GL211546  10.232  13.081   5.612  0.1609 -0.2711  0.3549
  772YOPS   C1A11547  10.225  13.201   6.076  0.0402  0.1609 -0.2050
  772YOPS   D2A11548  10.424  13.120   6.447  0.1134  0.0016 -0.3510
  772YOPS   C3A11549  10.662  13.108   6.740 -0.0703 -0.0590  0.0293
  772YOPS   C4A11550  10.962  13.053   7.085  0.0671 -0.0684 -0.1291
  772YOPS   C1B11551  10.125  12.758   5.848  0.3319  0.0770 -0.1890
  772YOPS   C2B11552  10.451  12.675   6.103 -0.1135  0.1277 -0.0902
  772YOPS   D3B11553  10.854  12.474   6.060  0.1745  0.1405  0.0745
  772YOPS   C4B11554  10.944  12.125   6.255  0.2683 -0.0138  0.1720
  773YOPS   CNO11555   0.325   8.440   5.097 -0.1993 -0.0784 -0.0509
  773YOPS   PO411556   0.585   8.366   5.497  0.0929  0.1747 -0.0076
  773YOPS   GL111557   0.560   8.473   5.888 -0.0058 -0.0784 -0.0963
  773YOPS   GL211558   0.566   8.829   5.861 -0.3208  0.1057 -0.1246
  773YOPS   C1A11559   0.626   8.474   6.315 -0.2230  0.4722  0.0676
  773YOPS   D2A11560   0.843   8.608   6.686  0.1692  0.0903  0.0125
  773YOPS   C3A11561   0.750   8.843   7.071  0.0805  0.0120 -0.0626
  773YOPS   C4A11562   0.424   8.804   7.172  0.1483 -0.0360 -0.0664
  773YOPS   C1B11563   0.529   8.953   6.234  0.1021  0.0551 -0.1065
  773YOPS   C2B11564   0.561   9.073   6.669  0.1795 -0.1788 -0.2202
  773YOPS   D3B11565   0.513   9.242   7.033 -0.0379 -0.1204  0.1025
  773YOPS   C4B11566   0.680   9.623   7.212  0.0963 -0.2103  0.3608
  774YOPS   CNO11567   5.708   6.589   5.848 -0.0942 -0.3719 -0.2490
  774YOPS   PO411568   5.634   6.274   5.890 -0.0254  0.1903 -0.0889
  774YOPS   GL111569   5.595   6.341   6.348  0.0556 -0.3676 -0.1897
  774YOPS   GL211570   5.591   6.644   6.432  0.0344 -0.2603  0.2125
  774YOPS   C1A11571   5.721   6.241   6.769 -0.0759 -0.2754  0.0714
  774YOPS   D2A11572   5.500   6.259   7.145 -0.0190  0.0636 -0.0063
  774YOPS   C3A11573   5.299   6.317   7.567 -0.3529  0.3676 -0.0341
  774YOPS   C4A11574   5.084   6.248   7.962  0.0048 -0.0008 -0.0411
  774YOPS   C1B11575   5.262   6.577   6.818 -0.4335 -0.0595  0.0109
  774YOPS   C2B11576   5.160   6.650   7.124  0.1886 -0.1442  0.0470
  774YOPS   D3B11577   5.199   6.927   7.451  0.0592  0.0232  0.1216
  774YOPS   C4B11578   5.130   7.344   7.578 -0.1739  0.0070  0.0307
  775YOPS   CNO11579  11.254  16.598   5.940 -0.2592 -0.2328  0.1458
  775YOPS   PO411580  10.873  16.531   5.696 -0.2250  0.1004 -0.0027
  775YOPS   GL111581  10.802  16.414   6.143 -0.1052  0.0380 -0.1313
  775YOPS   GL211582  10.690  16.183   6.333 -0.0761  0.1973  0.2271
  775YOPS   C1A11583  10.636  16.812   6.447 -0.0602  0.1227  0.0352
  775YOPS   D2A11584  10.351  16.892   6.796 -0.0416 -0.1502 -0.2943
  775YOPS   C3A11585  10.077  17.085   7.135 -0.3779 -0.4018  0.2504
  775YOPS   C4A11586   9.995  17.497   7.286  0.0297  0.1761  0.1768
  775YOPS   C1B11587  10.596  16.108   6.714  0.1232  0.1948  0.0255
  775YOPS   C2B11588  10.245  16.335   7.033  0.0855 -0.0224  0.0154
  775YOPS   D3B11589   9.909  16.705   6.866  0.0404  0.2923  0.0870
  775YOPS   C4B11590   9.424  16.770   6.763  0.0801 -0.1352 -0.4127
  776YOPS   CNO11591   3.778  11.851   5.354 -0.0875  0.1134 -0.1873
  776YOPS   PO411592   4.025  12.222   5.126 -0.1071  0.0325 -0.0103
  776YOPS   GL111593   4.143  12.218   5.490  0.1724 -0.1786 -0.2651
  776YOPS   GL211594   4.244  12.028   5.617  0.0914  0.1276 -0.0103
  776YOPS   C1A11595   4.417  12.466   5.756  0.1492  0.1382  0.0288
  776YOPS   D2A11596   4.565  12.582   6.199 -0.0371  0.4161  0.1981
  776YOPS   C3A11597   4.353  12.734   6.564  0.1074  0.2199 -0.0496
  776YOPS   C4A11598   4.514  12.996   6.969  0.0888 -0.0968 -0.2495
  776YOPS   C1B11599   4.222  11.972   6.007 -0.1348  0.1262 -0.0151
  776YOPS   C2B11600   4.193  11.706   6.419  0.0416 -0.0210  0.2024
  776YOPS   D3B11601   4.014  11.792   6.765  0.2765  0.0206  0.3197
  776YOPS   C4B11602   3.959  12.191   6.892 -0.1412 -0.2683  0.2276
  777YOPS   CNO11603  15.231   4.771   5.868  0.0025  0.1881 -0.0729
  777YOPS   PO411604  14.832   4.947   6.047 -0.0048  0.1118  0.1164
  777YOPS   GL111605  14.773   4.952   6.451 -0.0756  0.1025 -0.0069
  777YOPS   GL211606  14.767   4.622   6.522 -0.4404 -0.1885 -0.0690
  777YOPS   C1A11607  14.912   5.181   6.796 -0.2320 -0.0186 -0.0483
  777YOPS   D2A11608  14.715   5.137   7.203 -0.0933  0.0077  0.0489
  777YOPS   C3A11609  14.767   5.178   7.646  0.0143  0.2263 -0.3128
  777YOPS   C4A11610  15.195   5.366   7.744  0.1715 -0.1974  0.1453
  777YOPS   C1B11611  14.666   4.778   6.884 -0.1884 -0.1353 -0.0202
  777YOPS   C2B11612  14.601   4.691   7.403  0.0522  0.3846  0.0389
  777YOPS   D3B11613  14.633   4.720   7.855  0.1631 -0.0670 -0.1326
  777YOPS   C4B11614  14.838   4.981   8.085 -0.2888  0.3716 -0.3313
  778YOPS   CNO11615  10.355   2.034   5.579  0.0736 -0.2204  0.1932
  778YOPS   PO411616  10.260   2.131   6.003  0.0878 -0.0791  0.3161
  778YOPS   GL111617  10.141   2.160   6.397  0.0699 -0.0775 -0.1186
  778YOPS   GL211618  10.297   2.381   6.596 -0.0070 -0.0673  0.2713
  778YOPS   C1A11619  10.049   1.987   6.770  0.3101  0.0478 -0.0536
  778YOPS   D2A11620   9.866   1.987   7.203 -0.0234  0.2428  0.1365
  778YOPS   C3A11621   9.597   1.641   7.443 -0.0513 -0.4245 -0.2368
  778YOPS   C4A11622   9.703   1.642   7.985 -0.0972 -0.2699 -0.2542
  778YOPS   C1B11623  10.241   2.319   7.059 -0.0781  0.0051 -0.0902
  778YOPS   C2B11624  10.108   2.500   7.362  0.0536 -0.2150  0.1201
  778YOPS   D3B11625  10.070   2.788   7.639  0.1094 -0.0528 -0.1648
  778YOPS   C4B11626  10.078   2.527   8.049  0.2502  0.2914 -0.5449
  779YOPS   CNO11627  10.492  15.603   5.951  0.0698  0.0953  0.1577
  779YOPS   PO411628  10.031  15.467   5.654 -0.0945 -0.0354 -0.5440
  779YOPS   GL111629   9.908  15.190   6.035 -0.0955  0.0673  0.0686
  779YOPS   GL211630  10.187  15.309   6.203 -0.0733 -0.0847  0.0822
  779YOPS   C1A11631   9.625  15.181   6.429  0.0971 -0.0969  0.0265
  779YOPS   D2A11632   9.405  15.395   6.625 -0.1588  0.0133 -0.3278
  779YOPS   C3A11633   9.393  15.442   7.138  0.2459 -0.1628  0.0063
  779YOPS   C4A11634   9.303  15.900   7.312  0.1390 -0.3398 -0.2902
  779YOPS   C1B11635  10.332  15.518   6.647  0.0426 -0.1344 -0.3170
  779YOPS   C2B11636  10.268  15.713   7.016  0.2863 -0.1146  0.0214
  779YOPS   D3B11637  10.197  16.018   7.419  0.3105  0.0386  0.4168
  779YOPS   C4B11638   9.943  16.034   7.826  0.1573  0.0985  0.0872
  780YOPS   CNO11639   0.881   1.407   5.657 -0.2667  0.1446  0.2254
  780YOPS   PO411640   1.113   1.074   5.738 -0.0795 -0.1748 -0.0666
  780YOPS   GL111641   1.239   1.037   6.183  0.1131 -0.0001  0.1576
  780YOPS   GL211642   0.994   0.922   6.455  0.0752  0.4035  0.1575
  780YOPS   C1A11643   1.392   0.902   6.672 -0.0424  0.0811 -0.1930
  780YOPS   D2A11644   1.458   0.533   6.872 -0.3580  0.1046 -0.0227
  780YOPS   C3A11645   1.613   0.067   7.026 -0.1477  0.1420 -0.3649
  780YOPS   C4A11646   1.958  -0.183   6.897 -0.0242  0.1775 -0.0356
  780YOPS   C1B11647   0.998   0.647   6.732  0.1346  0.0319  0.2331
  780YOPS   C2B11648   1.043   0.366   7.150 -0.0806 -0.2173  0.0220
  780YOPS   D3B11649   1.220   0.045   7.470 -0.1952 -0.1528  0.0444
  780YOPS   C4B11650   1.208   0.047   7.926 -0.0016 -0.2481 -0.2199
  781YOPS   CNO11651   6.441   0.881   5.273  0.1879  0.2496 -0.2346
  781YOPS   PO411652   6.212   0.801   5.621  0.0119  0.0169 -0.3260
  781YOPS   GL111653   6.249   0.770   6.051 -0.0128  0.0911  0.0068
  781YOPS   GL211654   6.162   1.035   6.309 -0.2155 -0.0145 -0.2334
  781YOPS   C1A11655   6.015   0.520   6.358 -0.1272 -0.3125 -0.0659
  781YOPS   D2A11656   5.949   0.304   6.708 -0.0247  0.2065 -0.1792
  781YOPS   C3A11657   5.954   0.480   7.029  0.1564  0.2931 -0.0523
  781YOPS   C4A11658   5.881   0.859   6.976 -0.1472 -0.1358 -0.1845
  781YOPS   C1B11659   6.145   1.199   6.787  0.1898  0.2104  0.2182
  781YOPS   C2B11660   5.812   1.333   7.104  0.2905 -0.1249  0.3886
  781YOPS   D3B11661   5.351   1.236   7.276  0.0633 -0.2014 -0.0494
  781YOPS   C4B11662   5.006   1.525   7.471  0.1250  0.0274 -0.0870
  782POPE   NH311663   6.944   2.624   5.928 -0.1515  0.1769 -0.0061
  782POPE   PO411664   6.957   2.988   6.187  0.2457  0.1857 -0.0806
  782POPE   GL111665   6.958   3.214   6.532 -0.2464  0.0894  0.1302
  782POPE   GL211666   7.182   3.075   6.654 -0.3213  0.2207 -0.2394
  782POPE   C1A11667   7.077   3.625   6.805 -0.0962 -0.0827 -0.1202
  782POPE   D2A11668   7.268   4.045   6.894 -0.1654  0.0116 -0.2380
  782POPE   C3A11669   7.283   4.068   7.286  0.0815 -0.0504  0.1926
  782POPE   C4A11670   7.089   4.012   7.649 -0.1794 -0.1820  0.2334
  782POPE   C1B11671   7.202   2.901   7.126  0.1698 -0.0706  0.1046
  782POPE   C2B11672   7.466   2.820   7.487  0.1305  0.1174 -0.1967
  782POPE   C3B11673   7.325   3.000   7.905  0.3997  0.1060  0.0414
  782POPE   C4B11674   6.944   3.054   8.099 -0.0763  0.1370 -0.1575
  783POPE   NH311675   8.801   9.097   5.849  0.1570  0.0205 -0.1566
  783POPE   PO411676   8.629   9.454   5.715  0.0550 -0.1977 -0.1180
  783POPE   GL111677   8.529   9.483   6.167  0.0051 -0.1698  0.0057
  783POPE   GL211678   8.317   9.699   6.137  0.1635 -0.0867 -0.0594
  783POPE   C1A11679   8.773   9.366   6.556  0.2426  0.1467  0.1944
  783POPE   D2A11680   8.918   9.537   6.915 -0.1153  0.2466  0.4643
  783POPE   C3A11681   9.098   9.884   6.875 -0.1610 -0.0571  0.1673
  783POPE   C4A11682   9.458   9.993   6.932 -0.0906 -0.0222  0.1117
  783POPE   C1B11683   8.169   9.996   6.321  0.2240 -0.2044 -0.1599
  783POPE   C2B11684   8.226  10.475   6.463  0.2427  0.1555  0.0797
  783POPE   C3B11685   8.085  10.815   6.373 -0.3671 -0.3139 -0.2872
  783POPE   C4B11686   7.711  10.894   6.299  0.2325 -0.4106 -0.2074
  784POPE   NH311687  14.636  16.495   5.970 -0.1541 -0.3073  0.2329
  784POPE   PO411688  14.963  16.708   6.260  0.0254  0.2926 -0.4330
  784POPE   GL111689  15.070  16.522   6.590 -0.1184 -0.0985  0.1673
  784POPE   GL211690  15.371  16.471   6.684  0.3162 -0.0793  0.0954
  784POPE   C1A11691  14.785  16.421   6.971 -0.0223 -0.1032  0.2207
  784POPE   D2A11692  14.649  16.425   7.329 -0.1194 -0.2803  0.2170
  784POPE   C3A11693  14.417  16.481   7.634 -0.0885  0.3420 -0.0826
  784POPE   C4A11694  14.594  16.307   7.971 -0.2414 -0.1462  0.0453
  784POPE   C1B11695  15.562  16.570   7.014 -0.3022 -0.2227 -0.0418
  784POPE   C2B11696  15.677  16.575   7.384 -0.1509 -0.0100  0.0628
  784POPE   C3B11697  15.873  16.300   7.715  0.0520 -0.2166 -0.2474
  784POPE   C4B11698  15.566  16.066   8.077 -0.0518 -0.3425  0.2093
  785POPE   NH311699   7.373   8.846   5.914  0.0790 -0.0523 -0.3038
  785POPE   PO411700   7.443   8.288   6.037 -0.1396  0.0374  0.0973
  785POPE   GL111701   7.158   8.272   6.400 -0.1037  0.1800  0.1858
  785POPE   GL211702   7.188   7.913   6.417 -0.3577  0.2141 -0.1416
  785POPE   C1A11703   6.972   8.203   6.757 -0.0416 -0.1906 -0.1026
  785POPE   D2A11704   7.002   8.251   7.111 -0.2743  0.0054  0.0231
  785POPE   C3A11705   6.748   8.042   7.451  0.0138 -0.2009 -0.2027
  785POPE   C4A11706   6.546   7.769   7.820 -0.1085 -0.1478  0.3838
  785POPE   C1B11707   7.406   7.923   6.756 -0.0677 -0.2326  0.1580
  785POPE   C2B11708   7.479   8.125   7.031 -0.1805 -0.0845 -0.2339
  785POPE   C3B11709   7.523   8.244   7.362 -0.0354 -0.1777 -0.1734
  785POPE   C4B11710   7.165   8.215   7.699  0.1309 -0.0103 -0.0504
  786POPE   NH311711  11.277  17.991   6.146 -0.1485 -0.3407  0.0820
  786POPE   PO411712  10.894  18.202   6.008 -0.1542  0.2683  0.0167
  786POPE   GL111713  11.010  18.398   6.319 -0.0147 -0.0957  0.0004
  786POPE   GL211714  11.214  18.708   6.420 -0.2725  0.1510 -0.2190
  786POPE   C1A11715  10.900  18.450   6.743  0.0329 -0.0738  0.0256
  786POPE   D2A11716  10.554  18.489   6.950  0.0865  0.0920  0.1494
  786POPE   C3A11717  10.180  18.274   6.920 -0.3440 -0.1641  0.0187
  786POPE   C4A11718   9.858  18.235   6.690  0.0101 -0.2322 -0.0225
  786POPE   C1B11719  11.380  18.585   6.816 -0.1002  0.1782 -0.0591
  786POPE   C2B11720  11.451  18.759   7.267 -0.3238 -0.0132 -0.0613
  786POPE   C3B11721  11.420  18.976   7.542  0.0991 -0.1140 -0.0860
  786POPE   C4B11722  11.617  19.027   7.994 -0.1125 -0.2414 -0.2304
  787POPE   NH311723   1.882   9.248   5.298  0.1755  0.2115 -0.2049
  787POPE   PO411724   2.253   9.368   5.550 -0.3873  0.2110 -0.2101
  787POPE   GL111725   2.721   9.435   5.731  0.2183  0.0807  0.1909
  787POPE   GL211726   2.964   9.271   5.812  0.0083  0.0573 -0.0843
  787POPE   C1A11727   2.990   9.788   5.867 -0.0049 -0.1962  0.0085
  787POPE   D2A11728   3.000  10.278   5.954 -0.0461  0.0242  0.1928
  787POPE   C3A11729   3.317  10.478   6.166  0.0206  0.2693  0.0087
  787POPE   C4A11730   3.514  10.782   6.438 -0.1168  0.3664 -0.0706
  787POPE   C1B11731   3.049   9.041   6.092  0.5600  0.0345 -0.0751
  787POPE   C2B11732   3.123   8.975   6.476 -0.1983 -0.0024  0.3104
  787POPE   C3B11733   3.105   8.924   6.855 -0.4437  0.1419  0.0966
  787POPE   C4B11734   2.954   9.236   7.152  0.5512 -0.2194  0.1313
  788POPE   NH311735   3.492  17.723   5.373  0.1953  0.5288 -0.1503
  788POPE   PO411736   3.345  17.237   5.217  0.1225 -0.3362  0.1160
  788POPE   GL111737   3.392  17.172   5.712 -0.0335 -0.1715  0.1069
  788POPE   GL211738   3.121  17.256   5.979  0.1218  0.1868  0.1708
  788POPE   C1A11739   3.702  17.061   6.064  0.2888  0.0221 -0.0132
  788POPE   D2A11740   3.797  17.040   6.528 -0.1441 -0.0739  0.1523
  788POPE   C3A11741   3.866  16.691   6.784  0.1212  0.1705 -0.3207
  788POPE   C4A11742   3.906  16.267   6.953 -0.3655  0.0807 -0.0520
  788POPE   C1B11743   3.333  17.217   6.403  0.0279  0.0967  0.2079
  788POPE   C2B11744   3.217  17.410   6.723  0.1997 -0.2823 -0.1914
  788POPE   C3B11745   3.124  17.513   7.184 -0.0132 -0.1509  0.2731
  788POPE   C4B11746   3.249  17.219   7.431  0.0935 -0.0476  0.0359
  789POPE   NH311747   6.230  13.248   5.238  0.1777  0.1199 -0.1229
  789POPE   PO411748   6.092  13.010   4.839  0.1293  0.1410 -0.0432
  789POPE   GL111749   6.150  12.733   5.312  0.2107  0.0469 -0.0901
  789POPE   GL211750   6.190  12.929   5.603 -0.2171  0.1042  0.1589
  789POPE   C1A11751   5.915  12.467   5.718 -0.2574 -0.0820 -0.0251
  789POPE   D2A11752   6.107  12.270   6.074  0.1069 -0.0456 -0.1671
  789POPE   C3A11753   5.998  11.893   6.125 -0.2087 -0.1883 -0.5126
  789POPE   C4A11754   6.037  11.548   6.206 -0.2517  0.0448  0.0518
  789POPE   C1B11755   6.352  13.394   5.889 -0.0735 -0.0557  0.1583
  789POPE   C2B11756   6.794  13.494   5.880 -0.0715  0.1117  0.0901
  789POPE   C3B11757   7.184  13.747   6.027  0.0593 -0.0820 -0.0567
  789POPE   C4B11758   7.521  13.935   5.970 -0.3456  0.3652 -0.2981
  790POPE   NH311759   3.050  18.423   5.354 -0.2544  0.0244 -0.4284
  790POPE   PO411760   3.044  18.820   5.520 -0.0708  0.0036 -0.1302
  790POPE   GL111761   3.033  18.696   5.966  0.1609  0.0202  0.0496
  790POPE   GL211762   2.800  18.605   6.289 -0.1047  0.0171 -0.1581
  790POPE   C1A11763   3.384  18.709   6.214 -0.1331 -0.0129 -0.2541
  790POPE   D2A11764   3.714  18.719   6.512  0.3579 -0.3694  0.2000
  790POPE   C3A11765   3.548  18.692   6.983 -0.0581  0.2305 -0.1827
  790POPE   C4A11766   3.505  18.353   7.362 -0.0650 -0.0898  0.0457
  790POPE   C1B11767   2.828  18.744   6.704 -0.0071 -0.1397  0.0051
  790POPE   C2B11768   2.957  18.731   7.127 -0.2696  0.0295 -0.0505
  790POPE   C3B11769   2.818  18.810   7.569 -0.2250 -0.1493 -0.0208
  790POPE   C4B11770   2.963  19.115   7.750 -0.3437 -0.1424  0.0194
  791POPE   NH311771  16.572   0.724   6.347 -0.1854  0.2256 -0.0574
  791POPE   PO411772  16.494   0.299   5.965 -0.0851 -0.1525  0.0925
  791POPE   GL111773  16.510   0.184   6.314 -0.3784 -0.1315 -0.1984
  791POPE   GL211774  16.677  -0.082   6.547 -0.2783  0.3125 -0.0687
  791POPE   C1A11775  16.125   0.040   6.640  0.1907 -0.0832  0.0525
  791POPE   D2A11776  15.978   0.157   7.120 -0.2307 -0.2386 -0.0800
  791POPE   C3A11777  16.098  -0.190   7.221  0.1789  0.0087 -0.2418
  791POPE   C4A11778  16.085  -0.605   7.015 -0.3416 -0.3110 -0.0751
  791POPE   C1B11779  16.567  -0.278   6.942 -0.4376 -0.1667 -0.0157
  791POPE   C2B11780  16.485  -0.513   7.309  0.1039  0.1901 -0.3764
  791POPE   C3B11781  16.664  -0.510   7.764 -0.1715  0.2235  0.0556
  791POPE   C4B11782  16.840  -0.449   8.144  0.0582  0.0544  0.0105
  792POPE   NH311783   5.648  17.342   5.385  0.2412  0.3856  0.1235
  792POPE   PO411784   5.725  17.699   5.248 -0.4711 -0.0174  0.1480
  792POPE   GL111785   5.797  17.699   5.701 -0.0567  0.2985 -0.1936
  792POPE   GL211786   5.842  17.988   5.887 -0.3567 -0.1259  0.0370
  792POPE   C1A11787   5.962  17.527   6.094 -0.3095  0.0284 -0.2477
  792POPE   D2A11788   5.837  17.216   6.440  0.1756  0.1182 -0.1958
  792POPE   C3A11789   5.896  17.268   6.867 -0.0666 -0.0433 -0.0031
  792POPE   C4A11790   6.123  17.304   7.197 -0.4791 -0.0079 -0.1479
  792POPE   C1B11791   5.459  18.092   6.280  0.2780  0.1612  0.0968
  792POPE   C2B11792   5.341  18.265   6.750 -0.2131 -0.3226 -0.1810
  792POPE   C3B11793   5.097  18.489   6.951 -0.1119  0.0614 -0.1597
  792POPE   C4B11794   4.702  18.451   7.238  0.2639 -0.1429 -0.3284
  793POPE   NH311795   8.125  14.817   5.416 -0.2314 -0.3307  0.0588
  793POPE   PO411796   7.708  14.616   5.272  0.1032 -0.0918  0.1215
  793POPE   GL111797   7.743  14.653   5.703 -0.1202  0.0174 -0.0243
  793POPE   GL211798   7.548  14.427   5.732 -0.0015 -0.1854  0.3804
  793POPE   C1A11799   7.514  14.894   5.977  0.0723  0.2061  0.1954
  793POPE   D2A11800   7.342  15.165   6.232  0.4173 -0.1172 -0.0460
  793POPE   C3A11801   7.412  15.216   6.671 -0.0836 -0.4584  0.3244
  793POPE   C4A11802   7.518  15.345   7.064  0.3260 -0.0963  0.3382
  793POPE   C1B11803   7.760  14.464   6.120 -0.4144 -0.0218  0.3253
  793POPE   C2B11804   7.836  14.400   6.691 -0.2517 -0.2628 -0.0264
  793POPE   C3B11805   8.090  14.404   7.009  0.2130 -0.0724  0.0841
  793POPE   C4B11806   8.180  14.526   7.441  0.1899  0.3470  0.0528
  794POPE   NH311807  13.595  18.448   6.475  0.0545 -0.1649  0.0489
  794POPE   PO411808  13.859  18.756   6.417 -0.1156  0.0594 -0.2589
  794POPE   GL111809  14.086  18.545   6.733  0.1549  0.1347 -0.1629
  794POPE   GL211810  14.009  18.297   6.749  0.0148  0.0145  0.0286
  794POPE   C1A11811  14.324  18.676   7.088  0.3161  0.0607 -0.2008
  794POPE   D2A11812  14.446  18.750   7.514 -0.0168  0.3883  0.2259
  794POPE   C3A11813  14.846  18.978   7.878 -0.0857 -0.2744  0.0834
  794POPE   C4A11814  15.123  19.312   8.165 -0.3744 -0.0190  0.1162
  794POPE   C1B11815  14.043  18.224   7.166  0.0341  0.1718  0.0830
  794POPE   C2B11816  14.146  18.326   7.633  0.5008 -0.1377 -0.0086
  794POPE   C3B11817  14.130  18.372   8.024  0.0333  0.0207 -0.1337
  794POPE   C4B11818  14.092  18.376   8.417  0.1830 -0.1989 -0.1886
  795POPE   NH311819  17.994  12.612   5.642  0.3103  0.0047  0.1924
  795POPE   PO411820  17.914  12.145   5.685  0.2800 -0.1873  0.1342
  795POPE   GL111821  17.860  11.775   5.997  0.4030  0.1547  0.0091
  795POPE   GL211822  17.702  11.543   5.953  0.2048 -0.0772  0.0166
  795POPE   C1A11823  17.985  11.585   6.395 -0.1400  0.0693  0.0054
  795POPE   D2A11824  18.263  11.291   6.528 -0.2432 -0.0535 -0.2603
  795POPE   C3A11825  18.333  11.371   7.001  0.1204  0.3554 -0.0391
  795POPE   C4A11826  18.464  11.475   7.384 -0.3525  0.0844  0.0165
  795POPE   C1B11827  17.473  11.648   6.464 -0.2211 -0.1887  0.1915
  795POPE   C2B11828  17.455  11.579   6.955 -0.1870 -0.0537 -0.3919
  795POPE   C3B11829  17.620  11.989   7.152  0.2623  0.2652  0.1891
  795POPE   C4B11830  17.721  12.138   7.520  0.2089 -0.2733  0.1820
  796POPE   NH311831  15.268   8.529   5.596  0.2482  0.0300 -0.1849
  796POPE   PO411832  15.430   8.920   5.712 -0.0805  0.2744  0.1591
  796POPE   GL111833  15.115   8.894   6.063 -0.0796  0.1786  0.0340
  796POPE   GL211834  15.080   8.521   6.125 -0.0125 -0.4755  0.0858
  796POPE   C1A11835  14.945   8.837   6.493 -0.0298 -0.1536  0.1475
  796POPE   D2A11836  14.548   8.902   6.735 -0.3781 -0.0497  0.2182
  796POPE   C3A11837  14.419   8.964   7.143 -0.1544  0.0332  0.0256
  796POPE   C4A11838  14.366   8.752   7.486 -0.2782 -0.0398 -0.0621
  796POPE   C1B11839  15.227   8.279   6.462 -0.0480  0.3646 -0.1208
  796POPE   C2B11840  15.479   8.151   6.856  0.0578 -0.1302 -0.4035
  796POPE   C3B11841  15.397   8.004   7.289 -0.0670 -0.0618  0.0848
  796POPE   C4B11842  15.707   7.939   7.604 -0.1994  0.0127  0.1047
  797POPE   NH311843  10.463  16.222   5.844  0.1617 -0.2564 -0.0978
  797POPE   PO411844  10.030  16.188   5.647 -0.1448 -0.0483  0.0837
  797POPE   GL111845   9.977  16.279   6.157 -0.1128  0.0581  0.0201
  797POPE   GL211846  10.130  15.902   6.125 -0.1855 -0.2007 -0.0093
  797POPE   C1A11847   9.691  16.402   6.523  0.1002 -0.0711  0.4202
  797POPE   D2A11848   9.613  16.302   6.917 -0.2642 -0.1178 -0.3304
  797POPE   C3A11849   9.825  15.913   7.080  0.1716 -0.1550  0.2555
  797POPE   C4A11850   9.806  15.686   7.443 -0.2418 -0.2367  0.0702
  797POPE   C1B11851   9.883  15.686   6.372  0.0914 -0.1873  0.2018
  797POPE   C2B11852   9.817  15.570   6.728 -0.1369  0.1752 -0.0892
  797POPE   C3B11853   9.944  15.374   7.131  0.1726  0.1283  0.0298
  797POPE   C4B11854   9.671  15.214   7.485 -0.0547 -0.0637 -0.2900
  798POPE   NH311855  18.371   3.829   5.737  0.0209 -0.0591  0.0641
  798POPE   PO411856  18.754   3.614   5.815  0.0660  0.0592  0.1709
  798POPE   GL111857  18.440   3.638   6.204  0.4220  0.0641  0.1890
  798POPE   GL211858  18.433   3.358   6.251 -0.0496  0.0322 -0.1745
  798POPE   C1A11859  18.377   3.563   6.703  0.0023 -0.1079 -0.1243
  798POPE   D2A11860  18.324   3.523   7.180  0.0132  0.2499 -0.0017
  798POPE   C3A11861  18.055   3.766   7.462 -0.0659  0.1195 -0.0498
  798POPE   C4A11862  17.788   3.901   7.572 -0.2108 -0.3252 -0.1282
  798POPE   C1B11863  18.890   3.303   6.450  0.3001  0.0602  0.0959
  798POPE   C2B11864  19.185   3.444   6.687 -0.3142  0.0416 -0.2991
  798POPE   C3B11865  19.157   3.458   7.111  0.0720 -0.0798  0.0083
  798POPE   C4B11866  19.247   3.637   7.566 -0.1343 -0.0106 -0.0126
  799POPE   NH311867  15.317  17.741   6.178  0.2352 -0.0256  0.3906
  799POPE   PO411868  15.067  18.013   6.141 -0.0375 -0.1039 -0.1386
  799POPE   GL111869  15.073  18.166   6.589  0.1247  0.0690  0.0840
  799POPE   GL211870  15.173  18.474   6.587 -0.1303  0.3741 -0.0510
  799POPE   C1A11871  15.195  18.035   6.928  0.2013 -0.0081  0.1088
  799POPE   D2A11872  15.307  18.047   7.417  0.0600 -0.1932 -0.0046
  799POPE   C3A11873  15.159  18.012   7.824 -0.0468  0.1730  0.1986
  799POPE   C4A11874  15.227  17.918   8.277 -0.0931 -0.0792 -0.1129
  799POPE   C1B11875  15.319  18.614   6.978  0.1535  0.0772  0.4303
  799POPE   C2B11876  15.537  18.830   7.240  0.0640 -0.2114 -0.2794
  799POPE   C3B11877  15.687  19.067   7.499 -0.0708  0.1955  0.1029
  799POPE   C4B11878  15.844  19.415   7.573  0.0494  0.2880 -0.1817
  800POPE   NH311879  16.044  10.935   5.532  0.1984 -0.3450 -0.1091
  800POPE   PO411880  16.277  10.837   5.696 -0.2226 -0.1553 -0.1853
  800POPE   GL111881  16.384  10.669   6.160  0.0314 -0.4295  0.0176
  800POPE   GL211882  16.444  11.029   6.208  0.1513 -0.0901 -0.2665
  800POPE   C1A11883  16.692  10.493   6.434  0.2260  0.0301  0.1438
  800POPE   D2A11884  16.587  10.410   6.955  0.2771  0.0985  0.1887
  800POPE   C3A11885  16.248  10.091   6.975 -0.1182  0.0333 -0.1093
  800POPE   C4A11886  16.269   9.660   7.162  0.0420 -0.0277  0.1318
  800POPE   C1B11887  16.441  10.894   6.651  0.0743 -0.0001  0.1599
  800POPE   C2B11888  16.206  10.725   6.883 -0.2466 -0.1085  0.0575
  800POPE   C3B11889  15.944  10.869   7.187  0.0057 -0.0255  0.1119
  800POPE   C4B11890  15.756  11.213   7.596 -0.1280  0.2980  0.1125
  801POPE   NH311891   5.420   8.985   5.543 -0.0480 -0.0053  0.0385
  801POPE   PO411892   5.385   9.463   5.573  0.0027  0.1350  0.2183
  801POPE   GL111893   4.976   9.609   5.766 -0.0079 -0.0414  0.2235
  801POPE   GL211894   4.963   9.445   6.130 -0.1981 -0.0830 -0.0482
  801POPE   C1A11895   4.530   9.505   5.853  0.2113 -0.0305  0.2233
  801POPE   D2A11896   4.264   9.244   6.046 -0.0144  0.0092 -0.1140
  801POPE   C3A11897   4.306   9.237   6.470  0.0415  0.1863 -0.0816
  801POPE   C4A11898   4.250   8.947   6.748 -0.0011  0.0156  0.4007
  801POPE   C1B11899   4.673   9.586   6.485 -0.4332 -0.1378 -0.0654
  801POPE   C2B11900   4.619   9.367   6.884  0.1523 -0.1959  0.0211
  801POPE   C3B11901   4.656   9.007   7.303  0.0781  0.1477 -0.0644
  801POPE   C4B11902   5.031   8.922   7.568 -0.0518  0.0187  0.0053
  802POPE   NH311903  12.757  18.140   6.257  0.0188 -0.0129 -0.2189
  802POPE   PO411904  13.186  18.173   6.144  0.1491 -0.0335  0.0934
  802POPE   GL111905  13.100  18.212   6.606  0.0215  0.1101 -0.2759
  802POPE   GL211906  12.765  18.177   6.795  0.0278 -0.2168  0.1492
  802POPE   C1A11907  13.252  18.233   7.028  0.0384 -0.0236 -0.2384
  802POPE   D2A11908  13.559  18.254   7.377  0.2286 -0.2358 -0.0984
  802POPE   C3A11909  13.656  18.196   7.770  0.1440 -0.1053  0.0583
  802POPE   C4A11910  13.917  17.966   8.102 -0.1600 -0.1560 -0.3313
  802POPE   C1B11911  12.778  18.082   7.186  0.2506  0.1364 -0.0819
  802POPE   C2B11912  12.829  17.699   7.454  0.0257 -0.0545  0.2368
  802POPE   C3B11913  12.840  17.214   7.581  0.4052  0.0574  0.3456
  802POPE   C4B11914  12.995  16.858   7.654  0.0566  0.3079  0.3359
  803POPE   NH311915   7.782   0.604   5.441  0.2918  0.0683  0.1587
  803POPE   PO411916   7.850   1.062   5.606  0.1546  0.0857 -0.1559
  803POPE   GL111917   7.911   1.152   6.088  0.1436 -0.1600 -0.1555
  803POPE   GL211918   7.816   0.798   6.281 -0.4278  0.0238 -0.5088
  803POPE   C1A11919   7.990   1.273   6.467  0.0044 -0.0465  0.2251
  803POPE   D2A11920   8.179   1.572   6.681  0.1583  0.1038  0.3688
  803POPE   C3A11921   8.267   1.636   7.085 -0.0652  0.2421 -0.1119
  803POPE   C4A11922   8.182   1.647   7.576  0.0675  0.3269  0.0716
  803POPE   C1B11923   7.317   0.821   6.444 -0.1719 -0.0394  0.1226
  803POPE   C2B11924   7.076   0.672   6.729 -0.0779 -0.0318  0.0023
  803POPE   C3B11925   6.910   0.304   6.874  0.4093  0.0635 -0.2308
  803POPE   C4B11926   6.901   0.244   7.329  0.1708  0.1620  0.4163
  804POPE   NH311927   9.880   4.193   5.827 -0.2463 -0.0152 -0.1047
  804POPE   PO411928   9.563   4.457   5.893  0.1453 -0.1794 -0.0278
  804POPE   GL111929   9.518   4.420   6.343  0.1629  0.0917  0.0229
  804POPE   GL211930   9.257   4.456   6.578 -0.3179 -0.0490 -0.1643
  804POPE   C1A11931   9.846   4.359   6.654  0.1199 -0.3541  0.4671
  804POPE   D2A11932   9.851   4.236   7.176 -0.1157  0.0636 -0.0237
  804POPE   C3A11933   9.503   4.182   7.496 -0.0751  0.3263  0.1128
  804POPE   C4A11934   9.492   4.287   7.963 -0.0965  0.0712  0.2440
  804POPE   C1B11935   9.004   4.730   6.778 -0.3631 -0.0063  0.0741
  804POPE   C2B11936   8.837   4.811   7.175  0.1311  0.0550  0.0623
  804POPE   C3B11937   8.619   4.837   7.607 -0.2192  0.2936 -0.0807
  804POPE   C4B11938   8.637   4.811   8.039  0.3137 -0.2066  0.2789
  805POPE   NH311939   5.238   3.670   5.875  0.0023 -0.1520  0.0414
  805POPE   PO411940   5.007   3.853   6.106  0.2935 -0.2042 -0.2411
  805POPE   GL111941   4.725   3.708   6.421  0.1665 -0.1067 -0.2563
  805POPE   GL211942   4.581   3.457   6.360 -0.0961  0.0173 -0.1468
  805POPE   C1A11943   4.698   3.873   6.753 -0.1764  0.0854 -0.1070
  805POPE   D2A11944   4.726   3.661   7.227  0.0771 -0.0485 -0.2547
  805POPE   C3A11945   4.664   4.004   7.604  0.2875  0.0458 -0.0591
  805POPE   C4A11946   4.336   4.297   7.732  0.0876  0.2318 -0.2186
  805POPE   C1B11947   4.706   3.353   6.776  0.0848 -0.0650 -0.1845
  805POPE   C2B11948   4.821   3.162   7.201 -0.1158  0.1816  0.1231
  805POPE   C3B11949   4.976   3.017   7.555  0.1938  0.0536  0.1001
  805POPE   C4B11950   5.080   2.859   7.946  0.1010  0.3283  0.2959
  806POPE   NH311951  11.271  10.170   5.861  0.0027  0.0885 -0.1257
  806POPE   PO411952  10.861  10.054   5.821 -0.0596 -0.0613  0.0348
  806POPE   GL111953  10.948  10.151   6.237 -0.3535 -0.0331 -0.0464
  806POPE   GL211954  10.646  10.171   6.337  0.1355 -0.1502  0.3096
  806POPE   C1A11955  11.055  10.296   6.569  0.0157  0.0504 -0.1540
  806POPE   D2A11956  10.783  10.368   6.883 -0.1509 -0.1511  0.0148
  806POPE   C3A11957  10.894  10.301   7.216 -0.2188 -0.1851 -0.2636
  806POPE   C4A11958  11.171  10.384   7.561  0.3366  0.0196 -0.2770
  806POPE   C1B11959  10.414  10.239   6.645 -0.1300  0.0307  0.0450
  806POPE   C2B11960  10.348  10.340   7.136  0.1791  0.2871  0.0126
  806POPE   C3B11961  10.318  10.241   7.594  0.0501  0.0259 -0.0131
  806POPE   C4B11962  10.301   9.978   8.050 -0.3660 -0.2061 -0.2845
  807POPE   NH311963   2.060  17.183   5.489  0.3549  0.1876  0.0109
  807POPE   PO411964   2.086  16.748   5.420 -0.2010  0.0501  0.2870
  807POPE   GL111965   2.050  16.370   5.631 -0.2361 -0.3740 -0.0955
  807POPE   GL211966   2.281  16.093   5.592  0.1308  0.3313  0.1046
  807POPE   C1A11967   2.122  16.384   6.001  0.2904 -0.3638 -0.2214
  807POPE   D2A11968   1.973  16.382   6.502  0.0309  0.2184 -0.1220
  807POPE   C3A11969   1.964  16.340   6.979 -0.1925  0.1356  0.0139
  807POPE   C4A11970   1.991  16.578   7.333  0.1808 -0.0191  0.0104
  807POPE   C1B11971   2.041  15.915   5.944  0.0199 -0.2031  0.0363
  807POPE   C2B11972   2.039  15.853   6.346  0.1920  0.0398  0.1124
  807POPE   C3B11973   2.148  15.673   6.654 -0.1877 -0.0617 -0.4977
  807POPE   C4B11974   2.129  15.543   7.089  0.2436  0.4197 -0.0191
  808POPE   NH311975   2.205   0.075   5.748 -0.4096 -0.0933  0.0721
  808POPE   PO411976   2.510   0.014   5.938  0.0616 -0.0627 -0.1431
  808POPE   GL111977   2.436   0.350   6.316 -0.0071  0.0225 -0.1147
  808POPE   GL211978   2.603   0.741   6.269  0.1016  0.3049  0.1795
  808POPE   C1A11979   2.062   0.448   6.569 -0.1892 -0.0603 -0.3544
  808POPE   D2A11980   2.030   0.338   6.921 -0.0564 -0.1794  0.3790
  808POPE   C3A11981   1.923   0.523   7.336 -0.0412 -0.2874 -0.1827
  808POPE   C4A11982   1.644   0.259   7.625 -0.5404  0.2452  0.0073
  808POPE   C1B11983   2.824   0.718   6.631 -0.2544 -0.3582 -0.1500
  808POPE   C2B11984   2.870   0.529   6.950  0.2689 -0.0179  0.0991
  808POPE   C3B11985   3.096   0.689   7.313 -0.0932 -0.1019 -0.0613
  808POPE   C4B11986   3.291   0.880   7.692  0.0732  0.0089 -0.1560
  809POPE   NH311987   9.355   7.064   6.042 -0.3862 -0.0037  0.0637
  809POPE   PO411988   9.194   6.633   6.042 -0.0264  0.0210 -0.1371
  809POPE   GL111989   9.117   6.720   6.464 -0.2980  0.3119  0.0339
  809POPE   GL211990   8.940   6.436   6.522 -0.2095  0.1340  0.1298
  809POPE   C1A11991   8.908   6.885   6.793 -0.1232 -0.0350  0.0883
  809POPE   D2A11992   8.709   6.777   7.224  0.0381 -0.1270  0.0494
  809POPE   C3A11993   8.889   6.869   7.598  0.1802  0.2277 -0.0994
  809POPE   C4A11994   9.029   7.232   7.723  0.0312  0.0381 -0.0822
  809POPE   C1B11995   9.118   6.420   6.965 -0.0447  0.1578  0.2559
  809POPE   C2B11996   9.130   6.325   7.463  0.1243 -0.3424 -0.1256
  809POPE   C3B11997   8.823   6.116   7.646  0.0865  0.0710 -0.1287
  809POPE   C4B11998   8.872   5.864   7.960 -0.0350 -0.2846 -0.0603
  810POPE   NH311999  16.567  16.176   5.202 -0.1676  0.3406 -0.3842
  810POPE   PO412000  16.495  16.041   5.613 -0.1326  0.3632  0.0296
  810POPE   GL112001  16.596  15.876   6.014 -0.1115 -0.2418  0.4790
  810POPE   GL212002  16.423  15.985   6.325  0.0442 -0.1464 -0.0699
  810POPE   C1A12003  16.868  15.598   6.262 -0.0131 -0.3040  0.0623
  810POPE   D2A12004  17.159  15.603   6.622 -0.0484  0.0313 -0.1282
  810POPE   C3A12005  16.993  15.846   6.943 -0.1541  0.3866 -0.4480
  810POPE   C4A12006  16.817  16.112   7.233 -0.0042 -0.0392 -0.0424
  810POPE   C1B12007  16.815  16.044   6.463  0.1113  0.0121  0.0325
  810POPE   C2B12008  17.332  16.228   6.573 -0.1018 -0.5488  0.0067
  810POPE   C3B12009  17.451  16.604   6.766  0.1150 -0.1396  0.3562
  810POPE   C4B12010  17.887  16.857   6.899  0.0153  0.4234  0.1385
  811POPE   NH312011  16.304   6.246   5.508 -0.2678 -0.1368  0.1622
  811POPE   PO412012  16.590   6.582   5.461 -0.1614 -0.0046  0.0228
  811POPE   GL112013  16.708   6.549   5.812  0.1775 -0.2140  0.2566
  811POPE   GL212014  16.599   6.291   5.909 -0.1561 -0.1381  0.0695
  811POPE   C1A12015  16.473   6.699   6.136 -0.0414 -0.0940  0.0615
  811POPE   D2A12016  16.161   6.669   6.324  0.0568  0.1430 -0.4027
  811POPE   C3A12017  16.189   6.869   6.765  0.1038 -0.0094  0.0012
  811POPE   C4A12018  16.181   6.773   7.209 -0.0976 -0.1725  0.0065
  811POPE   C1B12019  16.412   6.247   6.351  0.0336  0.3533  0.2622
  811POPE   C2B12020  16.398   6.372   6.742 -0.1373 -0.0705  0.2627
  811POPE   C3B12021  16.475   6.376   7.128 -0.3814  0.1108 -0.1752
  811POPE   C4B12022  16.797   6.189   7.431 -0.0130 -0.0760 -0.1316
  812YOPE   NH312023  11.753   1.782   5.954 -0.2584 -0.0787  0.1517
  812YOPE   PO412024  12.134   1.727   6.116  0.2582  0.1811  0.1985
  812YOPE   GL112025  12.398   1.640   6.497 -0.1815  0.1249 -0.3401
  812YOPE   GL212026  12.203   1.768   6.832 -0.0676 -0.0379 -0.1657
  812YOPE   C1A12027  12.431   1.308   6.665 -0.1153 -0.0147 -0.1881
  812YOPE   D2A12028  12.298   1.059   7.031  0.3945 -0.1753 -0.3385
  812YOPE   C3A12029  12.327   1.075   7.477 -0.1461  0.0181 -0.0276
  812YOPE   C4A12030  12.254   0.796   7.914 -0.1355  0.1572  0.1601
  812YOPE   C1B12031  12.236   1.554   7.132  0.0508 -0.0470  0.0278
  812YOPE   C2B12032  12.310   1.532   7.639  0.0370 -0.3425  0.1517
  812YOPE   D3B12033  12.349   1.324   8.051  0.0439 -0.0635  0.0322
  812YOPE   C4B12034  12.563   1.306   8.475  0.0936 -0.0994 -0.0732
  813YOPE   NH312035   6.165   8.177   5.994 -0.0441 -0.2159 -0.0382
  813YOPE   PO412036   5.932   7.747   6.052  0.1971  0.0764  0.0103
  813YOPE   GL112037   6.126   7.932   6.448 -0.0139  0.0211 -0.0569
  813YOPE   GL212038   6.130   7.712   6.648  0.0231 -0.1922  0.0969
  813YOPE   C1A12039   6.155   8.126   6.828  0.2376  0.2753  0.2248
  813YOPE   D2A12040   6.398   8.306   7.201 -0.1481 -0.0905 -0.2135
  813YOPE   C3A12041   6.274   8.141   7.589  0.0923  0.1668 -0.0435
  813YOPE   C4A12042   6.025   7.848   7.860  0.2554  0.0831  0.1011
  813YOPE   C1B12043   5.759   7.761   6.834  0.3657  0.1755  0.1480
  813YOPE   C2B12044   5.681   7.735   7.219 -0.0355 -0.2498 -0.1752
  813YOPE   D3B12045   5.505   7.745   7.646 -0.0463 -0.0444 -0.3249
  813YOPE   C4B12046   5.526   7.540   8.000  0.3939 -0.0825 -0.1675
  814YOPE   NH312047  12.424   9.100   5.593 -0.1337  0.0202  0.3052
  814YOPE   PO412048  11.980   9.244   5.545 -0.2315  0.1044  0.2266
  814YOPE   GL112049  12.000   9.146   5.954 -0.1393 -0.2033  0.0100
  814YOPE   GL212050  11.897   9.395   5.992  0.2823 -0.0573 -0.1280
  814YOPE   C1A12051  11.748   8.830   6.224 -0.1929 -0.6116 -0.2747
  814YOPE   D2A12052  11.443   8.860   6.633  0.0623  0.0537 -0.1171
  814YOPE   C3A12053  11.545   8.989   7.122  0.0247  0.0059  0.1557
  814YOPE   C4A12054  11.356   9.170   7.448  0.2631  0.2905 -0.1196
  814YOPE   C1B12055  11.792   9.775   6.211  0.0244 -0.1605 -0.0106
  814YOPE   C2B12056  12.044  10.082   6.489  0.1096 -0.2105  0.1347
  814YOPE   D3B12057  12.217  10.266   6.786 -0.1733 -0.1599 -0.1027
  814YOPE   C4B12058  12.341  10.086   7.208 -0.2607  0.1680 -0.2404
  815YOPE   NH312059   1.629   8.096   5.583  0.1414  0.1962 -0.1612
  815YOPE   PO412060   1.349   7.726   5.363 -0.0248  0.3352 -0.1106
  815YOPE   GL112061   1.367   7.742   5.800  0.1526  0.2572  0.0598
  815YOPE   GL212062   1.061   7.649   5.954  0.1815  0.2833  0.0249
  815YOPE   C1A12063   1.505   7.868   6.282  0.0939  0.2503  0.1090
  815YOPE   D2A12064   1.590   7.683   6.630  0.0309 -0.2186 -0.1759
  815YOPE   C3A12065   1.355   7.645   7.125 -0.2733  0.2008  0.3618
  815YOPE   C4A12066   1.315   7.679   7.615  0.0082 -0.1107 -0.2004
  815YOPE   C1B12067   1.005   7.619   6.405 -0.0096 -0.2079 -0.1365
  815YOPE   C2B12068   0.948   7.679   6.852  0.2753  0.2896 -0.3113
  815YOPE   D3B12069   0.594   7.799   7.162 -0.1410  0.1763  0.5092
  815YOPE   C4B12070   0.379   8.090   7.410 -0.0230  0.0579 -0.1933
  816YOPE   NH312071   7.014   0.133   5.765  0.1029  0.0115  0.2655
  816YOPE   PO412072   7.092   0.548   5.659  0.0279  0.1914  0.1333
  816YOPE   GL112073   7.036   0.697   6.009 -0.1455 -0.2436  0.1358
  816YOPE   GL212074   7.136   0.387   6.169  0.1193  0.1972 -0.1479
  816YOPE   C1A12075   6.768   0.873   6.241  0.1423  0.3343  0.1748
  816YOPE   D2A12076   6.618   1.121   6.535  0.0981  0.0312  0.0331
  816YOPE   C3A12077   6.741   0.940   6.858  0.2583  0.0318 -0.2147
  816YOPE   C4A12078   6.864   0.764   7.290  0.4487  0.0658  0.0241
  816YOPE   C1B12079   6.877   0.086   6.444 -0.0545 -0.1979 -0.0246
  816YOPE   C2B12080   6.644  -0.144   6.695 -0.0870 -0.2715 -0.0508
  816YOPE   D3B12081   6.555  -0.271   7.134 -0.4583  0.0563  0.0479
  816YOPE   C4B12082   6.338  -0.317   7.520 -0.1042  0.1867 -0.3276
  817YOPE   NH312083  17.692   5.297   5.726  0.3990 -0.3564  0.1697
  817YOPE   PO412084  17.302   5.015   5.743 -0.2922 -0.4000  0.1369
  817YOPE   GL112085  17.270   5.259   6.159  0.1369  0.3333  0.0926
  817YOPE   GL212086  17.391   5.567   6.004  0.0867 -0.2389 -0.1530
  817YOPE   C1A12087  17.244   5.343   6.475  0.1063  0.1685 -0.2426
  817YOPE   D2A12088  17.312   5.457   6.797 -0.1524 -0.1177 -0.1170
  817YOPE   C3A12089  17.504   5.850   6.867 -0.1242 -0.0428 -0.0636
  817YOPE   C4A12090  17.578   6.300   7.011 -0.0446  0.1115  0.2035
  817YOPE   C1B12091  17.343   5.959   6.137 -0.3171  0.1493 -0.3183
  817YOPE   C2B12092  17.491   6.200   6.454  0.1723 -0.0794  0.1278
  817YOPE   D3B12093  17.526   6.684   6.515  0.2528 -0.1602  0.1123
  817YOPE   C4B12094  17.525   7.117   6.705 -0.0117  0.0300 -0.0764
  818YOPE   NH312095   9.599   5.748   6.369  0.0448 -0.1213  0.0933
  818YOPE   PO412096   9.967   5.596   6.447  0.0726  0.0933  0.3528
  818YOPE   GL112097   9.872   5.783   6.859 -0.1953  0.3627 -0.0879
  818YOPE   GL212098  10.027   6.008   6.702 -0.0929 -0.1049  0.0288
  818YOPE   C1A12099   9.803   5.819   7.226  0.0482 -0.1537 -0.1643
  818YOPE   D2A12100   9.891   5.617   7.676 -0.0441  0.1809  0.0167
  818YOPE   C3A12101  10.119   5.449   7.928 -0.0329 -0.1431  0.0362
  818YOPE   C4A12102  10.116   5.354   8.421  0.1760  0.0296 -0.3261
  818YOPE   C1B12103  10.204   6.071   7.155 -0.1022  0.1668  0.1704
  818YOPE   C2B12104  10.063   6.226   7.594  0.2706  0.3177  0.1756
  818YOPE   D3B12105  10.037   6.612   7.807 -0.2212 -0.3257  0.1708
  818YOPE   C4B12106  10.043   7.064   7.840 -0.0525 -0.1170  0.2050
  819YOPE   NH312107   2.534  11.900   5.150  0.3357 -0.0104  0.1265
  819YOPE   PO412108   2.498  12.385   5.348 -0.0476 -0.1156 -0.3727
  819YOPE   GL112109   2.819  12.277   5.683  0.0718  0.1020 -0.0018
  819YOPE   GL212110   3.121  12.506   5.708 -0.3586 -0.1891 -0.0024
  819YOPE   C1A12111   2.954  12.168   6.102  0.0461  0.0016  0.0280
  819YOPE   D2A12112   3.046  12.225   6.469 -0.0571 -0.0529 -0.0155
  819YOPE   C3A12113   2.851  12.125   6.830  0.3894  0.1666 -0.0293
  819YOPE   C4A12114   2.492  12.336   7.035  0.0317 -0.0421 -0.0423
  819YOPE   C1B12115   3.274  12.783   6.017  0.2043  0.2268  0.0678
  819YOPE   C2B12116   3.147  12.736   6.499 -0.2935 -0.0028 -0.1100
  819YOPE   D3B12117   3.216  12.502   6.921 -0.2309 -0.1155 -0.1666
  819YOPE   C4B12118   3.156  12.491   7.409  0.0742 -0.0606 -0.3510
  820YOPE   NH312119  15.865   9.280   5.627  0.0744  0.1218  0.2287
  820YOPE   PO412120  15.918   8.930   5.795  0.1067  0.0991 -0.3913
  820YOPE   GL112121  16.175   8.697   6.038 -0.0857 -0.1743 -0.0481
  820YOPE   GL212122  16.005   8.796   6.269 -0.3313 -0.0441 -0.1652
  820YOPE   C1A12123  16.470   8.531   6.402  0.1509  0.1022 -0.0857
  820YOPE   D2A12124  16.523   8.365   6.756  0.0353  0.2736  0.2808
  820YOPE   C3A12125  16.310   8.029   7.017  0.0155 -0.0666  0.0295
  820YOPE   C4A12126  16.222   7.899   7.447 -0.1150  0.1246 -0.2428
  820YOPE   C1B12127  16.318   9.035   6.426  0.2551  0.1369 -0.0175
  820YOPE   C2B12128  16.371   9.230   6.752 -0.0005 -0.0201 -0.1213
  820YOPE   D3B12129  16.575   9.084   7.176 -0.0572  0.1587  0.2045
  820YOPE   C4B12130  17.015   9.203   7.398 -0.0205  0.0588 -0.0365
  821YOPE   NH312131  18.160   2.300   5.947 -0.1043 -0.2046  0.0014
  821YOPE   PO412132  18.406   1.978   5.997  0.1518  0.2120  0.0962
  821YOPE   GL112133  18.606   2.245   6.287  0.1537  0.0175 -0.5845
  821YOPE   GL212134  18.883   1.958   6.417  0.0984 -0.0952 -0.0847
  821YOPE   C1A12135  18.580   2.468   6.719  0.1180  0.1581 -0.0429
  821YOPE   D2A12136  18.651   2.669   7.029  0.2284 -0.0841 -0.2669
  821YOPE   C3A12137  18.311   2.929   7.300 -0.2191 -0.0403  0.4283
  821YOPE   C4A12138  18.241   3.338   7.669 -0.1811 -0.0194 -0.5154
  821YOPE   C1B12139  18.711   1.974   6.810  0.1460  0.2161  0.0487
  821YOPE   C2B12140  18.599   2.174   7.220 -0.2770  0.0109 -0.1270
  821YOPE   D3B12141  18.425   2.478   7.549 -0.2717  0.0025  0.1004
  821YOPE   C4B12142  18.297   2.836   7.796 -0.0654  0.3102 -0.0450
  822YOPE   NH312143   0.310  16.241   5.439  0.2536 -0.0789 -0.1587
  822YOPE   PO412144  -0.078  16.444   5.547  0.1463  0.0274  0.1017
  822YOPE   GL112145  -0.347  16.273   5.837 -0.0933 -0.2171  0.0708
  822YOPE   GL212146  -0.638  16.193   5.662 -0.1507  0.1479 -0.0218
  822YOPE   C1A12147  -0.456  16.199   6.302  0.1251  0.3812  0.3074
  822YOPE   D2A12148  -0.571  15.825   6.407  0.1854 -0.2474 -0.0797
  822YOPE   C3A12149  -0.443  15.712   6.691  0.1604 -0.2511 -0.1506
  822YOPE   C4A12150  -0.306  15.338   6.867  0.2653  0.0510  0.0329
  822YOPE   C1B12151  -0.772  15.958   5.963  0.4206  0.0649  0.0572
  822YOPE   C2B12152  -0.699  15.503   6.061 -0.1248  0.1176  0.1151
  822YOPE   D3B12153  -0.880  15.111   6.115 -0.0498  0.1343 -0.2196
  822YOPE   C4B12154  -0.737  14.741   6.022  0.0921 -0.3087 -0.0271
  823YOPE   NH312155  16.841   4.183   5.816  0.2604 -0.1213 -0.3133
  823YOPE   PO412156  16.348   4.124   6.030  0.5048 -0.0224 -0.1727
  823YOPE   GL112157  16.149   4.054   6.437 -0.0711 -0.2388 -0.0764
  823YOPE   GL212158  15.895   4.149   6.247  0.0157 -0.0882 -0.3964
  823YOPE   C1A12159  16.061   3.922   6.828 -0.1392 -0.0736  0.0453
  823YOPE   D2A12160  16.059   4.010   7.214  0.2714  0.2189 -0.4430
  823YOPE   C3A12161  15.749   3.742   7.504 -0.0438  0.0655 -0.0121
  823YOPE   C4A12162  15.569   4.055   7.810 -0.0297  0.2786  0.1998
  823YOPE   C1B12163  15.733   4.408   6.613 -0.2577 -0.2437 -0.0572
  823YOPE   C2B12164  15.860   4.575   7.050 -0.0845 -0.1555  0.5284
  823YOPE   D3B12165  16.048   4.628   7.433  0.2999 -0.3368 -0.3261
  823YOPE   C4B12166  16.425   4.729   7.709 -0.0994 -0.1406  0.1542
  824YOPE   NH312167  12.818   2.507   6.399  0.1556 -0.1150 -0.1117
  824YOPE   PO412168  12.654   2.081   6.337 -0.2390 -0.2770 -0.1315
  824YOPE   GL112169  12.756   2.140   6.721  0.0413 -0.1573  0.0289
  824YOPE   GL212170  13.036   2.076   6.721  0.0160 -0.3037  0.0777
  824YOPE   C1A12171  12.797   2.301   7.143 -0.2287 -0.2089  0.2447
  824YOPE   D2A12172  12.802   2.490   7.539 -0.1301 -0.1360 -0.3147
  824YOPE   C3A12173  12.402   2.926   7.616 -0.0099  0.0740 -0.3324
  824YOPE   C4A12174  12.179   3.175   7.856 -0.2852  0.1307  0.0090
  824YOPE   C1B12175  13.275   2.146   7.116  0.0354  0.3734 -0.0385
  824YOPE   C2B12176  13.257   2.306   7.498  0.2656  0.1762 -0.1479
  824YOPE   D3B12177  13.026   2.320   7.954  0.0238 -0.0011  0.0660
  824YOPE   C4B12178  12.976   2.224   8.417 -0.0224  0.1615 -0.1814
  825YOPE   NH312179  18.120   2.689   5.598  0.0781 -0.0135 -0.2289
  825YOPE   PO412180  18.220   2.838   6.011 -0.1804  0.0095 -0.1507
  825YOPE   GL112181  18.394   2.779   6.321  0.3123 -0.0931 -0.1417
  825YOPE   GL212182  18.684   2.717   6.209  0.1914 -0.0004 -0.2246
  825YOPE   C1A12183  18.506   3.058   6.708  0.2693  0.0394  0.3971
  825YOPE   D2A12184  18.726   3.337   6.964 -0.0111 -0.0917  0.0076
  825YOPE   C3A12185  18.752   3.287   7.376  0.3301  0.0486 -0.1088
  825YOPE   C4A12186  18.735   3.575   7.600  0.0541  0.1974 -0.1781
  825YOPE   C1B12187  18.960   2.818   6.590 -0.1776 -0.0996 -0.1693
  825YOPE   C2B12188  19.089   2.972   6.871 -0.0242  0.0234 -0.0647
  825YOPE   D3B12189  19.045   2.947   7.226 -0.3841 -0.2215 -0.0200
  825YOPE   C4B12190  19.063   3.108   7.677  0.2384  0.0383  0.2116
  826YOPE   NH312191  15.474   2.869   6.154 -0.0337 -0.1869 -0.2824
  826YOPE   PO412192  15.691   3.285   6.103  0.1074 -0.2255 -0.0912
  826YOPE   GL112193  15.583   3.185   6.600  0.0860 -0.1923 -0.2393
  826YOPE   GL212194  15.158   3.083   6.657 -0.1304  0.0202  0.1106
  826YOPE   C1A12195  15.489   2.972   7.045  0.0750 -0.2731  0.1311
  826YOPE   D2A12196  15.355   2.856   7.464  0.0297  0.1125  0.1449
  826YOPE   C3A12197  15.728   2.908   7.841 -0.3665  0.2926 -0.2943
  826YOPE   C4A12198  16.104   3.103   7.953 -0.1357 -0.1549 -0.2239
  826YOPE   C1B12199  15.207   3.413   6.887  0.0226  0.0693 -0.1635
  826YOPE   C2B12200  15.426   3.510   7.218 -0.1414  0.3352  0.2608
  826YOPE   D3B12201  15.781   3.203   7.432  0.0639  0.1097 -0.1835
  826YOPE   C4B12202  16.193   3.012   7.379 -0.0580 -0.0613 -0.0596
  827YOPE   NH312203   8.974  12.854   5.135 -0.3141  0.1817  0.1210
  827YOPE   PO412204   8.870  12.425   5.170  0.1135  0.4960 -0.1628
  827YOPE   GL112205   8.688  12.474   5.573  0.2006 -0.2028 -0.0131
  827YOPE   GL212206   8.620  12.220   5.741 -0.0090  0.1037 -0.3674
  827YOPE   C1A12207   8.463  12.691   5.942 -0.2839  0.2303 -0.0075
  827YOPE   D2A12208   8.422  12.637   6.402  0.0539 -0.3184  0.0012
  827YOPE   C3A12209   8.628  12.541   6.735 -0.1268 -0.1235 -0.1001
  827YOPE   C4A12210   8.612  12.882   7.146 -0.2642 -0.3696 -0.0208
  827YOPE   C1B12211   8.446  12.156   6.132 -0.1273  0.2093 -0.0527
  827YOPE   C2B12212   8.374  12.164   6.537 -0.1213 -0.2796  0.1731
  827YOPE   D3B12213   8.139  12.073   6.881 -0.1498 -0.0299 -0.0694
  827YOPE   C4B12214   7.752  12.199   6.928  0.1817 -0.0029  0.0134
  828YOPE   NH312215   7.401   1.865   5.606  0.1187  0.1886 -0.1342
  828YOPE   PO412216   7.358   2.346   5.854  0.0745 -0.0274 -0.0331
  828YOPE   GL112217   7.412   2.259   6.257 -0.0399  0.1361 -0.1087
  828YOPE   GL212218   7.061   2.406   6.410  0.3690  0.1770 -0.3014
  828YOPE   C1A12219   7.424   2.110   6.595 -0.0844  0.0964 -0.4140
  828YOPE   D2A12220   7.418   1.958   7.063  0.1280  0.0601  0.2935
  828YOPE   C3A12221   7.741   1.697   7.352 -0.0303 -0.3799 -0.1962
  828YOPE   C4A12222   8.092   2.082   7.338  0.2358  0.0967 -0.1037
  828YOPE   C1B12223   7.024   2.329   6.843  0.1669 -0.1783  0.0645
  828YOPE   C2B12224   7.103   2.418   7.244  0.2899  0.0397  0.0282
  828YOPE   D3B12225   6.923   2.709   7.540  0.0600 -0.1113  0.1342
  828YOPE   C4B12226   6.832   3.105   7.612 -0.0937  0.5485 -0.0146
  829YOPE   NH312227  14.571   5.480   5.772  0.3514  0.2257 -0.2028
  829YOPE   PO412228  14.899   5.739   5.844  0.1553  0.2038  0.1903
  829YOPE   GL112229  14.668   6.146   5.814  0.0502  0.2186 -0.1995
  829YOPE   GL212230  14.595   6.127   6.189  0.1139  0.1491 -0.0689
  829YOPE   C1A12231  14.806   6.510   6.045  0.0838 -0.0392 -0.1184
  829YOPE   D2A12232  14.695   6.920   6.170 -0.0924 -0.1596 -0.2243
  829YOPE   C3A12233  14.611   7.038   6.551  0.2569 -0.1519 -0.0908
  829YOPE   C4A12234  14.804   7.159   6.964 -0.0701 -0.0151  0.0400
  829YOPE   C1B12235  14.866   6.045   6.549  0.0248  0.2791 -0.3614
  829YOPE   C2B12236  15.022   5.977   6.944 -0.1073  0.0009 -0.0131
  829YOPE   D3B12237  15.064   5.591   7.124  0.0026  0.2266 -0.0056
  829YOPE   C4B12238  15.213   5.192   7.264  0.0749 -0.0104  0.2394
  830YOPE   NH312239   4.258   5.603   6.030  0.3928  0.1248 -0.3327
  830YOPE   PO412240   3.832   5.639   6.308  0.4071  0.0250 -0.1331
  830YOPE   GL112241   3.651   5.695   6.618 -0.0016 -0.1209 -0.1941
  830YOPE   GL212242   3.797   5.985   6.795 -0.0910  0.0828 -0.0618
  830YOPE   C1A12243   3.419   5.722   6.980 -0.0237  0.0761 -0.2980
  830YOPE   D2A12244   3.268   5.761   7.297  0.0863 -0.0514  0.1154
  830YOPE   C3A12245   3.223   5.561   7.767 -0.2339  0.0537 -0.0181
  830YOPE   C4A12246   3.337   5.520   8.209 -0.2063 -0.1869 -0.0868
  830YOPE   C1B12247   3.804   6.124   7.204 -0.0076 -0.2239  0.1556
  830YOPE   C2B12248   3.644   6.442   7.555 -0.4458 -0.2489 -0.0952
  830YOPE   D3B12249   3.591   6.484   7.940  0.0404  0.3650  0.4359
  830YOPE   C4B12250   3.465   6.831   8.021 -0.0958  0.1241 -0.1855
  831YOPE   NH312251  14.917   9.143   5.639 -0.1417 -0.0872  0.1490
  831YOPE   PO412252  14.650   9.189   5.264  0.1096 -0.3488 -0.4378
  831YOPE   GL112253  14.469   9.081   5.755  0.0768  0.2298 -0.0142
  831YOPE   GL212254  14.237   9.308   5.846 -0.1724 -0.1078  0.0268
  831YOPE   C1A12255  14.502   8.905   6.196 -0.2313 -0.2303 -0.1961
  831YOPE   D2A12256  14.635   8.444   6.241 -0.2015  0.1413  0.0967
  831YOPE   C3A12257  14.721   8.375   6.677 -0.0155 -0.0117  0.0225
  831YOPE   C4A12258  14.973   8.040   6.902  0.2908  0.0660  0.1690
  831YOPE   C1B12259  14.007   9.257   6.123 -0.0518 -0.1322  0.0541
  831YOPE   C2B12260  13.842   9.412   6.477 -0.0927  0.2525  0.0325
  831YOPE   D3B12261  13.605   9.519   6.789  0.0034 -0.1198 -0.1260
  831YOPE   C4B12262  13.750   9.482   7.180 -0.2185  0.0590 -0.0750
  832YOPE   NH312263   1.406  15.744   4.870 -0.0193  0.1778  0.1871
  832YOPE   PO412264   1.493  15.750   5.326 -0.2497 -0.1591 -0.0640
  832YOPE   GL112265   1.566  16.142   5.680  0.2420  0.0313 -0.0674
  832YOPE   GL212266   1.273  16.462   5.801 -0.0153  0.1585  0.0013
  832YOPE   C1A12267   1.602  16.323   6.079 -0.0840 -0.2214 -0.1867
  832YOPE   D2A12268   1.341  16.258   6.542  0.0665  0.0148 -0.0766
  832YOPE   C3A12269   1.438  16.363   6.976 -0.0293  0.0823  0.2956
  832YOPE   C4A12270   1.373  16.552   7.364 -0.1258 -0.0317 -0.1367
  832YOPE   C1B12271   1.238  16.755   6.205  0.2057  0.0705 -0.0367
  832YOPE   C2B12272   1.239  16.757   6.677 -0.0489  0.2216 -0.0599
  832YOPE   D3B12273   1.082  16.877   7.095  0.2465 -0.2482 -0.0273
  832YOPE   C4B12274   1.029  16.999   7.447 -0.1009 -0.1678 -0.0755
  833YOPE   NH312275   6.711   3.957   6.031 -0.0157 -0.0430 -0.0944
  833YOPE   PO412276   6.360   4.130   6.029  0.0020 -0.0389 -0.0272
  833YOPE   GL112277   6.409   3.853   6.428 -0.0446  0.1788  0.2053
  833YOPE   GL212278   6.156   3.830   6.669 -0.0373  0.1382 -0.0113
  833YOPE   C1A12279   6.586   3.538   6.572  0.2362  0.0480 -0.1907
  833YOPE   D2A12280   6.795   3.298   7.017 -0.2429 -0.0017 -0.2700
  833YOPE   C3A12281   7.016   3.501   7.294 -0.0749 -0.0151 -0.0511
  833YOPE   C4A12282   7.189   3.531   7.602 -0.2251 -0.0713 -0.1551
  833YOPE   C1B12283   6.247   3.431   6.923 -0.1882 -0.0158  0.0467
  833YOPE   C2B12284   6.367   3.321   7.390 -0.1637 -0.0854 -0.2181
  833YOPE   D3B12285   6.366   3.209   7.780  0.1192 -0.0168 -0.0377
  833YOPE   C4B12286   6.499   3.201   8.212 -0.0322  0.0715 -0.1278
  834YOPE   NH312287   8.492  13.638   5.682  0.1306 -0.0652  0.0732
  834YOPE   PO412288   8.500  14.089   5.473 -0.1187 -0.0507  0.1006
  834YOPE   GL112289   8.788  14.318   5.727  0.0410 -0.0352 -0.3108
  834YOPE   GL212290   8.914  14.101   5.918  0.0722  0.0442  0.1142
  834YOPE   C1A12291   8.822  14.635   6.070  0.3225  0.2696 -0.0325
  834YOPE   D2A12292   8.921  14.591   6.463  0.0334  0.0476 -0.0813
  834YOPE   C3A12293   8.795  14.358   6.741 -0.0988  0.2341  0.2537
  834YOPE   C4A12294   8.605  14.240   7.085 -0.0794 -0.1134 -0.1055
  834YOPE   C1B12295   8.803  14.147   6.304  0.3798  0.1623 -0.0265
  834YOPE   C2B12296   8.761  13.835   6.623  0.1269 -0.0299  0.0030
  834YOPE   D3B12297   8.517  13.454   6.606 -0.2605 -0.2925 -0.0247
  834YOPE   C4B12298   8.413  13.030   6.691  0.1726 -0.1701  0.3444
  835YOPE   NH312299   1.273  11.591   5.636  0.0559  0.1341 -0.1550
  835YOPE   PO412300   1.134  12.000   5.609 -0.1317  0.0889  0.3675
  835YOPE   GL112301   1.361  12.013   5.984 -0.1562 -0.1453 -0.1760
  835YOPE   GL212302   1.717  12.216   5.971  0.2909 -0.2138  0.2873
  835YOPE   C1A12303   1.476  11.923   6.359 -0.0608 -0.0891  0.1324
  835YOPE   D2A12304   1.702  11.879   6.631  0.0430  0.3180 -0.1179
  835YOPE   C3A12305   1.612  11.997   6.992 -0.2312 -0.0208  0.0685
  835YOPE   C4A12306   1.493  12.366   7.258  0.1782 -0.1048  0.2336
  835YOPE   C1B12307   1.448  12.430   6.304 -0.0570 -0.1592 -0.2488
  835YOPE   C2B12308   1.570  12.746   6.584 -0.3207 -0.1391  0.2374
  835YOPE   D3B12309   1.990  12.868   6.773 -0.4059 -0.2377  0.1726
  835YOPE   C4B12310   2.306  12.930   6.486  0.0189 -0.3106  0.0518
  836YOPE   NH312311   6.945   6.086   6.095  0.0919  0.3596  0.5750
  836YOPE   PO412312   7.339   6.300   6.155 -0.2312 -0.2194  0.0045
  836YOPE   GL112313   7.473   6.028   6.378 -0.0968 -0.0794  0.1099
  836YOPE   GL212314   7.599   5.772   6.211  0.1318 -0.1491  0.3209
  836YOPE   C1A12315   7.344   5.960   6.762  0.0334 -0.1602 -0.1052
  836YOPE   D2A12316   7.117   5.695   6.904  0.0635 -0.0709  0.0133
  836YOPE   C3A12317   6.917   5.596   7.214  0.1060 -0.3070  0.0368
  836YOPE   C4A12318   6.685   5.805   7.639 -0.0802 -0.1407  0.0360
  836YOPE   C1B12319   7.880   5.735   6.610  0.0924  0.2429 -0.0194
  836YOPE   C2B12320   7.722   5.569   6.996 -0.0011  0.2163  0.3178
  836YOPE   D3B12321   7.391   5.377   7.154  0.0463  0.0843  0.0164
  836YOPE   C4B12322   7.058   5.211   7.450 -0.1343  0.0523  0.1533
  837YOPE   NH312323   2.050  14.096   5.821 -0.0485 -0.3085 -0.2189
  837YOPE   PO412324   1.768  13.759   5.703 -0.3417  0.0164  0.1895
  837YOPE   GL112325   1.858  13.729   6.185  0.1112 -0.1694 -0.1112
  837YOPE   GL212326   1.819  14.099   6.350  0.1848 -0.2184  0.0720
  837YOPE   C1A12327   1.903  13.753   6.699  0.0540  0.0164  0.4530
  837YOPE   D2A12328   1.673  13.740   7.040 -0.0250 -0.4896 -0.0946
  837YOPE   C3A12329   1.827  13.758   7.572  0.1656  0.0548  0.2164
  837YOPE   C4A12330   2.122  13.416   7.779  0.0179 -0.1873 -0.1286
  837YOPE   C1B12331   1.721  14.283   6.801 -0.1052  0.0484 -0.1250
  837YOPE   C2B12332   1.884  14.551   7.178 -0.2255 -0.2509 -0.1683
  837YOPE   D3B12333   2.220  14.612   7.391 -0.1819 -0.0269  0.0045
  837YOPE   C4B12334   2.607  14.501   7.541  0.0547  0.0753  0.1453
  838YOPE   NH312335  10.997   8.062   5.767 -0.0030  0.1420  0.4380
  838YOPE   PO412336  11.359   8.103   5.628  0.0510 -0.1240  0.0249
  838YOPE   GL112337  11.660   8.052   5.953 -0.0912 -0.0588 -0.0140
  838YOPE   GL212338  11.667   7.818   6.142  0.0560 -0.0475 -0.1893
  838YOPE   C1A12339  11.695   8.307   6.230  0.0843 -0.2641 -0.0324
  838YOPE   D2A12340  11.955   8.359   6.357 -0.0000 -0.2527 -0.1328
  838YOPE   C3A12341  11.858   8.577   6.763 -0.2718 -0.0194  0.0600
  838YOPE   C4A12342  12.097   8.752   7.079 -0.0562  0.0160 -0.1948
  838YOPE   C1B12343  11.791   7.901   6.549 -0.3066 -0.1993 -0.0337
  838YOPE   C2B12344  11.878   8.141   6.877  0.0056 -0.2508  0.0603
  838YOPE   D3B12345  11.938   8.261   7.277  0.3336 -0.3347  0.1747
  838YOPE   C4B12346  11.789   8.557   7.663  0.2712  0.1176 -0.2214
  839YOPE   NH312347   6.405   8.603   6.010  0.1176  0.3480  0.0238
  839YOPE   PO412348   6.222   8.806   5.700  0.2289  0.0699  0.2570
  839YOPE   GL112349   6.201   9.028   6.133  0.2670  0.2335  0.1072
  839YOPE   GL212350   6.518   8.984   6.372  0.0776 -0.1396  0.1379
  839YOPE   C1A12351   5.942   9.075   6.455  0.2136  0.1726 -0.1871
  839YOPE   D2A12352   5.866   9.264   6.747 -0.0025 -0.0411  0.0314
  839YOPE   C3A12353   6.094   9.306   7.188  0.0077  0.4239 -0.1175
  839YOPE   C4A12354   6.189   9.592   7.535 -0.0969  0.4302  0.0347
  839YOPE   C1B12355   6.412   9.078   6.843 -0.1850  0.2053  0.1448
  839YOPE   C2B12356   6.575   9.181   7.254  0.0440 -0.2871  0.0490
  839YOPE   D3B12357   6.657   9.439   7.565 -0.1534 -0.0120  0.2348
  839YOPE   C4B12358   6.743   9.817   7.569 -0.2103 -0.2010  0.0555
  840YOPE   NH312359   9.901   2.482   6.044  0.1973 -0.0874  0.3284
  840YOPE   PO412360   9.670   2.899   6.200  0.0821 -0.0510  0.0247
  840YOPE   GL112361   9.923   2.878   6.488  0.1518  0.1525 -0.3162
  840YOPE   GL212362  10.277   3.039   6.429  0.0893 -0.0653  0.0250
  840YOPE   C1A12363  10.098   2.858   6.977 -0.2435  0.2912  0.0135
  840YOPE   D2A12364  10.328   3.102   7.177  0.2837 -0.1561 -0.3047
  840YOPE   C3A12365  10.289   3.258   7.545 -0.0123 -0.1867  0.3258
  840YOPE   C4A12366  10.042   3.417   7.814  0.0854  0.2058  0.1365
  840YOPE   C1B12367  10.585   3.266   6.702  0.1230  0.0217  0.0203
  840YOPE   C2B12368  10.689   3.463   7.095  0.1044  0.0181  0.2202
  840YOPE   D3B12369  10.608   3.675   7.455 -0.0358 -0.1806  0.1152
  840YOPE   C4B12370  10.417   3.771   7.845 -0.0465  0.1962  0.1693
  841YOPE   NH312371  11.315   2.554   6.191  0.0986  0.0887 -0.1269
  841YOPE   PO412372  11.541   2.977   6.172 -0.1825  0.0565 -0.0754
  841YOPE   GL112373  11.546   3.097   6.606 -0.1911  0.0086 -0.1320
  841YOPE   GL212374  11.653   3.457   6.669  0.3055 -0.1933 -0.1695
  841YOPE   C1A12375  11.365   3.139   6.950  0.0124  0.2380  0.0661
  841YOPE   D2A12376  11.284   3.234   7.315  0.2530  0.0324  0.0462
  841YOPE   C3A12377  11.235   2.989   7.627 -0.0551 -0.1346  0.0133
  841YOPE   C4A12378  11.055   2.885   8.042 -0.0463  0.3039 -0.0907
  841YOPE   C1B12379  11.673   3.519   7.167  0.0126 -0.1839 -0.0991
  841YOPE   C2B12380  11.678   3.402   7.596  0.3265 -0.2442  0.1492
  841YOPE   D3B12381  11.848   3.551   7.949  0.4323 -0.1346 -0.0577
  841YOPE   C4B12382  11.751   3.705   8.398 -0.0814 -0.0166  0.3895
  842YOPE   NH312383  17.379  13.440   5.607 -0.0946  0.0170  0.2932
  842YOPE   PO412384  17.779  13.615   5.663  0.2802 -0.0054 -0.0008
  842YOPE   GL112385  17.519  13.761   6.009  0.2790 -0.3023  0.1394
  842YOPE   GL212386  17.245  13.773   5.956  0.1135  0.2159  0.0972
  842YOPE   C1A12387  17.181  13.791   6.450  0.0028 -0.0668  0.2630
  842YOPE   D2A12388  17.212  13.981   6.742  0.2246  0.2675 -0.0718
  842YOPE   C3A12389  16.952  14.039   7.212  0.3153  0.0808  0.0566
  842YOPE   C4A12390  16.745  13.835   7.586  0.0766 -0.0356  0.1556
  842YOPE   C1B12391  16.825  13.722   6.041  0.2731 -0.2366 -0.2669
  842YOPE   C2B12392  16.696  13.627   6.460 -0.0083  0.2833 -0.0100
  842YOPE   D3B12393  16.808  13.635   6.873  0.1199 -0.1079 -0.1300
  842YOPE   C4B12394  16.709  13.429   7.296 -0.1114 -0.0569 -0.2381
  843YOPE   NH312395  13.710   3.003   6.210  0.1589 -0.0091 -0.1756
  843YOPE   PO412396  13.315   2.677   6.352 -0.0795 -0.1342  0.1479
  843YOPE   GL112397  13.401   2.438   6.678  0.4715 -0.2503 -0.1142
  843YOPE   GL212398  13.264   2.616   7.026  0.0069 -0.0175  0.0686
  843YOPE   C1A12399  13.758   2.532   7.032  0.1920  0.3289 -0.2721
  843YOPE   D2A12400  13.746   2.407   7.369  0.1235 -0.0490  0.2117
  843YOPE   C3A12401  13.702   2.497   7.778 -0.1003  0.0061 -0.3431
  843YOPE   C4A12402  13.550   2.559   8.139  0.0748  0.1071 -0.2635
  843YOPE   C1B12403  13.370   2.955   7.360 -0.1286  0.0424 -0.0880
  843YOPE   C2B12404  13.453   2.987   7.807 -0.0592  0.1207  0.2055
  843YOPE   D3B12405  13.893   2.897   7.981  0.1804 -0.1572  0.2166
  843YOPE   C4B12406  14.108   2.389   8.059  0.0682 -0.1394  0.2211
  844YOPE   NH312407   3.967  16.697   5.348  0.3482 -0.2552 -0.0976
  844YOPE   PO412408   4.448  16.692   5.353 -0.2056 -0.1394  0.0631
  844YOPE   GL112409   4.607  16.481   5.799 -0.0242  0.0025 -0.0972
  844YOPE   GL212410   4.741  16.255   5.802  0.3934  0.0864  0.1621
  844YOPE   C1A12411   4.771  16.400   6.268 -0.3801  0.1710  0.0850
  844YOPE   D2A12412   4.674  16.523   6.716 -0.3580 -0.1346 -0.3026
  844YOPE   C3A12413   4.391  16.204   6.889 -0.0142  0.1394  0.3030
  844YOPE   C4A12414   4.148  15.876   6.675  0.0904  0.0890 -0.0927
  844YOPE   C1B12415   4.992  16.004   6.017  0.1975 -0.0304  0.0816
  844YOPE   C2B12416   5.066  15.973   6.439  0.2315 -0.1757 -0.1443
  844YOPE   D3B12417   4.874  16.066   6.733 -0.1142  0.0935 -0.0188
  844YOPE   C4B12418   4.806  16.301   7.171  0.1181  0.1563 -0.0311
  845YOPE   NH312419   5.694   2.937   5.869 -0.1948  0.2857 -0.3110
  845YOPE   PO412420   5.320   3.080   5.922  0.1060 -0.0143 -0.2256
  845YOPE   GL112421   5.096   2.893   6.281  0.1916  0.2235  0.2190
  845YOPE   GL212422   4.704   2.965   6.290 -0.1781 -0.0189 -0.0627
  845YOPE   C1A12423   4.968   2.890   6.728  0.0950  0.0292 -0.0301
  845YOPE   D2A12424   5.004   2.651   7.175 -0.1680 -0.3130 -0.3080
  845YOPE   C3A12425   4.785   2.363   7.422  0.2261  0.0154  0.4253
  845YOPE   C4A12426   4.399   2.319   7.485  0.0238  0.0590 -0.1032
  845YOPE   C1B12427   4.504   2.878   6.723 -0.3686  0.0882  0.2509
  845YOPE   C2B12428   4.522   2.832   7.208  0.0110  0.1980 -0.3511
  845YOPE   D3B12429   4.530   2.777   7.647 -0.0348  0.2816 -0.1613
  845YOPE   C4B12430   4.657   2.506   8.042 -0.1455  0.0302 -0.1119
  846YOPE   NH312431  13.207   6.615   5.786 -0.1974  0.1248  0.0488
  846YOPE   PO412432  13.215   6.145   5.829  0.0389 -0.2141 -0.1300
  846YOPE   GL112433  13.098   5.935   6.111 -0.0426 -0.1063  0.2533
  846YOPE   GL212434  12.826   6.029   6.149  0.2716  0.1581  0.1139
  846YOPE   C1A12435  13.292   5.744   6.385  0.0108  0.0440 -0.0176
  846YOPE   D2A12436  13.333   5.456   6.636  0.1932  0.2703  0.1135
  846YOPE   C3A12437  13.601   5.532   6.941  0.0581  0.0161 -0.4118
  846YOPE   C4A12438  14.015   5.368   7.244 -0.0510  0.1239 -0.0420
  846YOPE   C1B12439  12.951   6.107   6.530  0.2048 -0.1292  0.1335
  846YOPE   C2B12440  12.995   5.991   6.901  0.1511 -0.1106  0.0489
  846YOPE   D3B12441  13.150   5.581   7.187  0.0822 -0.2887  0.2078
  846YOPE   C4B12442  13.110   5.194   7.032 -0.3768 -0.0238 -0.0352
  847YOPE   NH312443  11.337   5.153   5.972 -0.0752 -0.0622 -0.0367
  847YOPE   PO412444  11.651   5.122   6.118 -0.3664  0.2721 -0.2207
  847YOPE   GL112445  11.830   4.680   6.232  0.4112 -0.0820 -0.1835
  847YOPE   GL212446  11.686   4.407   6.469 -0.2798 -0.0776 -0.1571
  847YOPE   C1A12447  12.011   4.747   6.591 -0.1207  0.0334 -0.1976
  847YOPE   D2A12448  12.015   4.853   7.048 -0.1870 -0.0357 -0.1985
  847YOPE   C3A12449  12.030   5.270   7.118  0.1599  0.0785 -0.0221
  847YOPE   C4A12450  11.723   5.600   7.413  0.4815  0.1299  0.4573
  847YOPE   C1B12451  11.752   4.422   6.944 -0.0649 -0.1564 -0.0112
  847YOPE   C2B12452  11.770   4.428   7.300 -0.0992  0.2032  0.0512
  847YOPE   D3B12453  11.785   4.616   7.723 -0.0428 -0.0140  0.0042
  847YOPE   C4B12454  11.996   4.723   8.122 -0.0686 -0.1062  0.0222
  848YOPE   NH312455   8.496  18.548   5.605 -0.0831 -0.0995 -0.1419
  848YOPE   PO412456   8.297  18.273   5.792 -0.3769 -0.0118 -0.2613
  848YOPE   GL112457   8.224  18.283   6.169  0.1906 -0.0879  0.0446
  848YOPE   GL212458   8.012  18.047   6.227 -0.2310 -0.1977  0.0150
  848YOPE   C1A12459   8.225  18.204   6.639 -0.2129 -0.1320 -0.1163
  848YOPE   D2A12460   8.200  18.007   7.043 -0.1313  0.0357  0.4688
  848YOPE   C3A12461   8.065  18.104   7.466  0.0232  0.2220  0.0030
  848YOPE   C4A12462   7.767  17.903   7.881 -0.2647  0.0349 -0.0784
  848YOPE   C1B12463   8.078  17.735   6.615  0.4145 -0.1095 -0.1168
  848YOPE   C2B12464   7.933  17.574   7.065 -0.0958 -0.0075 -0.0497
  848YOPE   D3B12465   7.746  17.670   7.406  0.3707 -0.4912  0.1062
  848YOPE   C4B12466   7.506  18.016   7.417 -0.2558  0.2876  0.3783
  849YOPE   NH312467  17.489   0.667   6.413  0.0399  0.1595 -0.0639
  849YOPE   PO412468  17.002   0.419   6.224  0.4066 -0.2005 -0.2694
  849YOPE   GL112469  17.084   0.247   6.544 -0.1123 -0.2572 -0.0190
  849YOPE   GL212470  16.794   0.369   6.723  0.0559  0.1276  0.5772
  849YOPE   C1A12471  17.183   0.305   7.039 -0.0759  0.2047 -0.0823
  849YOPE   D2A12472  17.228   0.271   7.512  0.2308 -0.1660  0.0985
  849YOPE   C3A12473  17.204   0.280   7.897  0.0196 -0.0929 -0.0672
  849YOPE   C4A12474  16.987   0.488   8.207 -0.4208  0.1236  0.1272
  849YOPE   C1B12475  16.669   0.201   6.989  0.0682 -0.0684  0.1761
  849YOPE   C2B12476  16.632   0.131   7.371 -0.1778  0.3376  0.0603
  849YOPE   D3B12477  16.694   0.090   7.830 -0.1080 -0.1063  0.0843
  849YOPE   C4B12478  16.491  -0.067   8.274 -0.2913  0.1477  0.2445
  850YOPE   NH312479  15.937  12.343   5.806  0.2489  0.0246 -0.2921
  850YOPE   PO412480  16.328  12.103   5.676  0.0665  0.1757 -0.2076
  850YOPE   GL112481  16.191  11.927   6.089 -0.1423  0.2759 -0.1304
  850YOPE   GL212482  15.946  11.752   5.978 -0.1686 -0.2057 -0.2720
  850YOPE   C1A12483  16.135  11.973   6.525 -0.1557 -0.1133 -0.2320
  850YOPE   D2A12484  16.073  12.233   6.969  0.0726  0.0397  0.0005
  850YOPE   C3A12485  16.225  12.249   7.433 -0.4020  0.4566  0.1588
  850YOPE   C4A12486  16.061  12.445   7.778 -0.0750  0.0008  0.0913
  850YOPE   C1B12487  15.756  11.533   6.288 -0.0232 -0.0329 -0.0249
  850YOPE   C2B12488  15.744  11.542   6.595 -0.1150  0.1380 -0.2518
  850YOPE   D3B12489  15.808  11.847   6.953 -0.1087  0.0421  0.1468
  850YOPE   C4B12490  15.968  11.774   7.354  0.0494  0.0807  0.1125
  851YOPE   NH312491   0.999  12.638   5.215  0.0078 -0.3073  0.1362
  851YOPE   PO412492   0.966  12.508   5.522 -0.2532  0.1970 -0.1591
  851YOPE   GL112493   0.856  12.225   5.937 -0.1149 -0.2133  0.1138
  851YOPE   GL212494   0.761  12.255   6.274 -0.2440 -0.1771  0.1672
  851YOPE   C1A12495   0.491  11.857   6.061  0.0148 -0.0832  0.0852
  851YOPE   D2A12496   0.514  11.425   6.372  0.2851 -0.0532  0.2018
  851YOPE   C3A12497   0.451  11.645   6.735  0.0543 -0.3978  0.2187
  851YOPE   C4A12498   0.129  11.555   6.992 -0.0946 -0.0393  0.2446
  851YOPE   C1B12499   0.597  12.239   6.695 -0.2072  0.1660 -0.1870
  851YOPE   C2B12500   0.550  12.249   7.197  0.2566 -0.0702  0.1489
  851YOPE   D3B12501   0.791  12.022   7.523  0.0311 -0.0623 -0.1619
  851YOPE   C4B12502   0.691  11.902   7.953  0.1855 -0.0867  0.2893
  852YOPE   NH312503  17.357  10.115   5.448 -0.2692 -0.0833 -0.1530
  852YOPE   PO412504  17.570  10.163   5.843 -0.1879 -0.0779 -0.1040
  852YOPE   GL112505  17.801  10.211   6.246  0.0719  0.1659 -0.0651
  852YOPE   GL212506  17.764   9.846   6.193 -0.2305 -0.4850 -0.1226
  852YOPE   C1A12507  17.886  10.208   6.660 -0.0034 -0.0893  0.2267
  852YOPE   D2A12508  18.240  10.419   6.806 -0.0648  0.1069  0.0485
  852YOPE   C3A12509  18.546  10.337   7.168  0.1298 -0.0751 -0.2481
  852YOPE   C4A12510  18.405  10.055   7.535 -0.1429 -0.2263  0.2644
  852YOPE   C1B12511  17.807   9.746   6.560 -0.3870  0.1488  0.0254
  852YOPE   C2B12512  17.710   9.524   6.896  0.0916 -0.0618  0.0655
  852YOPE   D3B12513  17.510   9.225   7.163 -0.1639 -0.0113  0.1037
  852YOPE   C4B12514  17.767   8.812   7.225  0.1832  0.0927  0.1570
  853YOPE   NH312515  10.928   1.796   6.208 -0.0876 -0.0625  0.1385
  853YOPE   PO412516  10.821   2.286   6.000  0.1019  0.2429 -0.0946
  853YOPE   GL112517  10.643   2.175   6.327  0.0286  0.1047  0.2922
  853YOPE   GL212518  10.791   2.463   6.485 -0.1519 -0.2633  0.0207
  853YOPE   C1A12519  10.674   2.078   6.817 -0.2089  0.1373 -0.3338
  853YOPE   D2A12520  10.730   2.166   7.201 -0.2325  0.3512 -0.0754
  853YOPE   C3A12521  10.522   2.287   7.534 -0.0056 -0.3030  0.3647
  853YOPE   C4A12522  10.616   2.636   7.664  0.0896 -0.1603 -0.2688
  853YOPE   C1B12523  11.053   2.423   6.851 -0.1125  0.4618 -0.0664
  853YOPE   C2B12524  11.288   2.188   7.247 -0.2682 -0.1207  0.0525
  853YOPE   D3B12525  11.442   1.901   7.469 -0.0726  0.1460  0.2179
  853YOPE   C4B12526  11.464   1.874   7.862  0.1265  0.2641 -0.0261
  854YOPE   NH312527  18.097   0.154   6.140 -0.2413 -0.0868 -0.0452
  854YOPE   PO412528  17.784  -0.096   5.925  0.1893 -0.1478  0.1513
  854YOPE   GL112529  17.697  -0.061   6.378  0.1601 -0.2177  0.0958
  854YOPE   GL212530  17.621   0.194   6.493  0.0520  0.1692  0.2356
  854YOPE   C1A12531  17.869  -0.333   6.643 -0.1205 -0.3047  0.2289
  854YOPE   D2A12532  18.191  -0.434   6.928 -0.0799 -0.0962 -0.2470
  854YOPE   C3A12533  18.526  -0.148   7.077  0.0357  0.3155 -0.0578
  854YOPE   C4A12534  18.758   0.040   7.470  0.3474  0.2054  0.0058
  854YOPE   C1B12535  17.670   0.110   6.842 -0.0597  0.2367 -0.0346
  854YOPE   C2B12536  17.627   0.231   7.265  0.0833 -0.0842 -0.2258
  854YOPE   D3B12537  17.730   0.098   7.713  0.0473  0.1835 -0.0218
  854YOPE   C4B12538  17.962   0.056   7.975  0.1106  0.3785 -0.2626
  855YOPE   NH312539   2.837   6.338   5.751 -0.1478 -0.0505 -0.1638
  855YOPE   PO412540   2.458   6.651   5.455 -0.1864 -0.0705 -0.2130
  855YOPE   GL112541   2.244   6.775   5.792  0.0915  0.0615  0.0160
  855YOPE   GL212542   2.072   6.672   5.987 -0.2672 -0.1742 -0.1650
  855YOPE   C1A12543   2.433   7.082   6.159 -0.1060  0.1649  0.0222
  855YOPE   D2A12544   2.312   6.990   6.632  0.3973  0.0068  0.3563
  855YOPE   C3A12545   2.502   6.617   6.799 -0.0685  0.2911 -0.0087
  855YOPE   C4A12546   2.835   6.391   6.983  0.1851  0.0369 -0.1081
  855YOPE   C1B12547   2.071   6.568   6.404 -0.0265 -0.3799 -0.1054
  855YOPE   C2B12548   1.969   6.599   6.870  0.3001  0.2546 -0.1827
  855YOPE   D3B12549   2.028   6.585   7.329 -0.2840  0.1104  0.0162
  855YOPE   C4B12550   2.114   6.481   7.760  0.4356 -0.0450  0.1868
  856YOPE   NH312551  18.500   1.015   6.146 -0.2158  0.1467  0.0439
  856YOPE   PO412552  18.284   0.565   6.029  0.1131  0.1841 -0.2135
  856YOPE   GL112553  18.070   0.561   6.450 -0.1935 -0.0860  0.1509
  856YOPE   GL212554  18.160   0.274   6.671 -0.1535  0.0397  0.0244
  856YOPE   C1A12555  18.227   0.908   6.808  0.2791  0.1451  0.0577
  856YOPE   D2A12556  18.403   0.955   7.279  0.0885 -0.2598  0.1255
  856YOPE   C3A12557  18.671   1.103   7.637 -0.0231  0.0292  0.1651
  856YOPE   C4A12558  18.673   1.037   7.979 -0.3808  0.0644 -0.1799
  856YOPE   C1B12559  18.062   0.452   7.051 -0.2315 -0.2512 -0.1916
  856YOPE   C2B12560  17.995   0.780   7.314  0.1155  0.0582  0.1434
  856YOPE   D3B12561  17.724   0.695   7.695 -0.3944 -0.0173  0.1944
  856YOPE   C4B12562  17.346   0.710   7.767  0.3461 -0.0237 -0.0256
  857YOPE   NH312563  12.681  15.727   5.705 -0.1030 -0.5037 -0.0541
  857YOPE   PO412564  12.321  15.952   5.746 -0.0106  0.2179 -0.0778
  857YOPE   GL112565  12.084  16.094   6.080  0.2179 -0.0767  0.0477
  857YOPE   GL212566  11.775  15.971   6.188 -0.1003  0.0013  0.3192
  857YOPE   C1A12567  12.003  16.409   6.543 -0.1120 -0.2982 -0.0028
  857YOPE   D2A12568  12.149  16.248   6.964  0.2149 -0.1351 -0.1462
  857YOPE   C3A12569  12.533  16.305   7.211 -0.0862 -0.0959  0.1226
  857YOPE   C4A12570  12.737  16.271   7.593 -0.0302  0.1533 -0.3886
  857YOPE   C1B12571  11.613  15.923   6.675 -0.0314  0.1055  0.1766
  857YOPE   C2B12572  11.805  15.956   7.144  0.0296 -0.2314  0.0470
  857YOPE   D3B12573  12.160  16.094   7.434 -0.0999  0.3085 -0.0973
  857YOPE   C4B12574  12.353  16.106   7.875  0.0092 -0.1302 -0.0099
  858YOPE   NH312575   6.090  11.608   5.255 -0.5715 -0.2764  0.2011
  858YOPE   PO412576   5.761  11.237   5.318  0.3279  0.3307 -0.1876
  858YOPE   GL112577   5.838  11.029   5.880  0.1334 -0.2749 -0.1615
  858YOPE   GL212578   6.158  11.106   5.880  0.1166  0.0019 -0.0917
  858YOPE   C1A12579   5.396  10.954   5.973 -0.0669 -0.1920 -0.0077
  858YOPE   D2A12580   5.183  10.685   6.321  0.1387  0.1993  0.1068
  858YOPE   C3A12581   5.126  10.247   6.265 -0.0071 -0.1516 -0.1156
  858YOPE   C4A12582   5.138   9.808   6.395 -0.0002  0.1559  0.0123
  858YOPE   C1B12583   6.491  11.350   6.130 -0.2394 -0.0242 -0.0900
  858YOPE   C2B12584   6.478  11.446   6.531  0.1741  0.1249  0.0361
  858YOPE   D3B12585   6.119  11.514   6.819 -0.2826 -0.2753  0.0171
  858YOPE   C4B12586   5.842  11.557   6.920  0.2107 -0.2015  0.2162
  859YOPE   NH312587   1.670  15.432   5.596  0.1106 -0.0349  0.1415
  859YOPE   PO412588   1.161  15.232   5.611 -0.3315  0.0158  0.3231
  859YOPE   GL112589   1.090  15.674   5.748  0.1132  0.3209  0.2810
  859YOPE   GL212590   1.363  15.702   5.887 -0.2583  0.0593  0.0712
  859YOPE   C1A12591   1.034  16.025   6.051 -0.1182  0.1737  0.0316
  859YOPE   D2A12592   0.949  16.405   6.273 -0.1658 -0.1726 -0.2444
  859YOPE   C3A12593   0.919  16.241   6.754 -0.0598  0.1941  0.0385
  859YOPE   C4A12594   0.786  15.857   7.032 -0.0249  0.0914 -0.0668
  859YOPE   C1B12595   1.563  15.853   6.299  0.3235 -0.0790  0.0590
  859YOPE   C2B12596   1.705  15.930   6.728 -0.0666  0.0155  0.0858
  859YOPE   D3B12597   1.780  15.860   7.089 -0.0875 -0.1168  0.4186
  859YOPE   C4B12598   1.757  16.167   7.553 -0.0867  0.0603 -0.0200
  860YOPE   NH312599  11.327   5.425   6.444  0.1904 -0.2283 -0.0684
  860YOPE   PO412600  11.762   5.666   6.390 -0.3268 -0.1155 -0.1319
  860YOPE   GL112601  11.615   5.715   6.762  0.2292 -0.0302 -0.3713
  860YOPE   GL212602  11.227   5.561   6.919  0.1662  0.1134 -0.2187
  860YOPE   C1A12603  11.536   5.927   7.132 -0.1497  0.0509  0.2199
  860YOPE   D2A12604  11.383   6.402   7.288 -0.0985 -0.3346 -0.1154
  860YOPE   C3A12605  11.120   6.521   7.592  0.1152 -0.1831  0.0334
  860YOPE   C4A12606  10.809   6.585   7.968 -0.0273  0.3689 -0.2595
  860YOPE   C1B12607  11.214   5.457   7.273  0.0637 -0.0888 -0.0936
  860YOPE   C2B12608  10.965   5.297   7.624  0.3213  0.0812  0.0013
  860YOPE   D3B12609  10.724   5.548   8.004 -0.1911 -0.0456 -0.0663
  860YOPE   C4B12610  10.570   5.707   8.353 -0.1009 -0.0225 -0.1133
  861YOPE   NH312611   3.297   1.620   5.705  0.0127  0.0826 -0.1082
  861YOPE   PO412612   2.921   1.457   5.988 -0.0823 -0.3192 -0.0628
  861YOPE   GL112613   2.785   1.249   6.267 -0.2063 -0.0297  0.0529
  861YOPE   GL212614   2.537   1.471   6.296 -0.0835 -0.1150  0.0550
  861YOPE   C1A12615   2.727   1.217   6.708  0.0437 -0.3077  0.0604
  861YOPE   D2A12616   2.744   1.178   7.135  0.2589 -0.1495  0.2680
  861YOPE   C3A12617   2.489   1.048   7.466 -0.4461 -0.2762 -0.3044
  861YOPE   C4A12618   2.688   0.825   7.759 -0.2258  0.1128 -0.0863
  861YOPE   C1B12619   2.693   1.785   6.640  0.0621 -0.1389  0.0369
  861YOPE   C2B12620   2.613   1.668   7.082 -0.0628  0.0629 -0.0948
  861YOPE   D3B12621   2.428   1.627   7.435 -0.3488  0.0603 -0.1396
  861YOPE   C4B12622   2.575   1.374   7.790  0.1802  0.2101  0.1869
  862YOPE   NH312623  15.705   5.030   5.376  0.0012  0.0680 -0.0969
  862YOPE   PO412624  15.833   5.451   5.462  0.2397 -0.0837 -0.0456
  862YOPE   GL112625  15.719   5.244   5.837  0.2609  0.2016  0.0059
  862YOPE   GL212626  15.729   4.911   5.998  0.0797 -0.1236  0.2020
  862YOPE   C1A12627  15.630   5.382   6.258  0.2823  0.1349  0.1782
  862YOPE   D2A12628  15.853   5.646   6.644 -0.0160 -0.1963 -0.0641
  862YOPE   C3A12629  15.640   5.529   7.050  0.2007 -0.0706  0.1107
  862YOPE   C4A12630  15.621   5.466   7.413 -0.2759  0.2802 -0.2193
  862YOPE   C1B12631  15.840   4.883   6.486  0.1392  0.0259  0.2666
  862YOPE   C2B12632  16.231   4.758   6.751  0.0119  0.0397 -0.0530
  862YOPE   D3B12633  16.283   4.968   7.141 -0.1552  0.1048 -0.7008
  862YOPE   C4B12634  16.155   5.119   7.561  0.1084 -0.1694 -0.0931
  863YOPE   NH312635  16.436  10.368   5.593  0.3892 -0.2882 -0.2820
  863YOPE   PO412636  16.864  10.367   5.487  0.0140 -0.0864 -0.2290
  863YOPE   GL112637  17.011  10.220   5.885  0.1657 -0.0212 -0.2797
  863YOPE   GL212638  16.949   9.891   5.746 -0.0457  0.0494 -0.0674
  863YOPE   C1A12639  16.971  10.003   6.256  0.1364  0.0303 -0.6426
  863YOPE   D2A12640  16.972  10.148   6.727  0.0958 -0.2683  0.0118
  863YOPE   C3A12641  16.941  10.061   7.203  0.0131  0.0813  0.0982
  863YOPE   C4A12642  16.965  10.228   7.627  0.1152  0.0936 -0.0284
  863YOPE   C1B12643  16.726   9.609   6.071 -0.0192 -0.1493 -0.0353
  863YOPE   C2B12644  16.756   9.283   6.409  0.1511 -0.1416  0.0976
  863YOPE   D3B12645  16.666   8.813   6.747 -0.1008 -0.1487  0.1714
  863YOPE   C4B12646  16.741   8.546   7.213  0.2182  0.2361  0.0960
  864YOPE   NH312647   8.803   6.991   6.130 -0.0848  0.0961 -0.0007
  864YOPE   PO412648   8.662   6.589   6.131 -0.1788 -0.0783  0.0616
  864YOPE   GL112649   8.468   6.265   6.357 -0.0282  0.2101 -0.0498
  864YOPE   GL212650   8.317   5.964   6.281  0.1130 -0.0117  0.3695
  864YOPE   C1A12651   8.314   6.167   6.742  0.1656 -0.0135 -0.3264
  864YOPE   D2A12652   8.176   5.929   7.019 -0.0623 -0.2480  0.0078
  864YOPE   C3A12653   8.477   5.823   7.288 -0.1347 -0.3448 -0.1525
  864YOPE   C4A12654   8.932   5.723   7.394  0.0847  0.0672 -0.1598
  864YOPE   C1B12655   8.494   5.757   6.574 -0.2572 -0.1429  0.2428
  864YOPE   C2B12656   8.760   5.575   6.939  0.1288 -0.2250  0.0673
  864YOPE   D3B12657   8.673   5.320   7.129 -0.1508 -0.2597  0.0940
  864YOPE   C4B12658   8.384   5.019   7.114 -0.1607  0.1883  0.4021
  865YOPE   NH312659  11.718  10.656   5.229  0.1514 -0.0008 -0.0715
  865YOPE   PO412660  11.408  11.089   5.312  0.2645  0.2573  0.1283
  865YOPE   GL112661  11.579  11.075   5.631 -0.3506  0.0429 -0.2463
  865YOPE   GL212662  11.619  10.781   5.779 -0.0677 -0.0815  0.1000
  865YOPE   C1A12663  11.862  11.295   6.017 -0.1605 -0.2300 -0.3235
  865YOPE   D2A12664  11.966  11.098   6.370 -0.1649  0.0020 -0.0973
  865YOPE   C3A12665  12.152  11.241   6.781 -0.0749  0.1533 -0.0098
  865YOPE   C4A12666  12.135  11.414   7.256  0.0272 -0.0053  0.0281
  865YOPE   C1B12667  11.392  11.051   6.125 -0.2000 -0.0669  0.1335
  865YOPE   C2B12668  11.369  11.430   6.310  0.2201  0.3650 -0.0623
  865YOPE   D3B12669  11.729  11.519   6.577 -0.2747 -0.0830  0.1240
  865YOPE   C4B12670  11.981  11.686   6.843 -0.0323  0.0812 -0.0040
  866YOPE   NH312671  12.485   0.546   5.781 -0.2451  0.1364 -0.0828
  866YOPE   PO412672  12.672   0.282   6.022 -0.2610  0.1742 -0.1482
  866YOPE   GL112673  12.723   0.406   6.486  0.3357 -0.0254 -0.4172
  866YOPE   GL212674  12.871   0.228   6.724  0.1603  0.5940  0.3380
  866YOPE   C1A12675  12.425   0.687   6.669  0.0092  0.2914 -0.1333
  866YOPE   D2A12676  11.956   0.666   6.886 -0.2539  0.0294 -0.0737
  866YOPE   C3A12677  11.861   0.372   7.078  0.0388  0.2070 -0.0248
  866YOPE   C4A12678  11.885   0.175   7.558 -0.0006  0.1114 -0.1711
  866YOPE   C1B12679  12.793   0.482   7.015 -0.7374  0.2195  0.1621
  866YOPE   C2B12680  12.374   0.644   7.261  0.1692 -0.0263 -0.0729
  866YOPE   D3B12681  11.961   0.661   7.512 -0.0541 -0.1711  0.3768
  866YOPE   C4B12682  11.572   0.701   7.203 -0.0284  0.0023 -0.1622
  867YOPE   NH312683   2.892  14.539   5.599 -0.2366 -0.4755  0.1342
  867YOPE   PO412684   2.547  14.917   5.672  0.1891 -0.0966  0.0330
  867YOPE   GL112685   2.654  14.978   6.170 -0.2360  0.1705 -0.3310
  867YOPE   GL212686   2.778  15.234   6.238  0.2434 -0.1522  0.0847
  867YOPE   C1A12687   2.735  14.856   6.593  0.0631  0.1972  0.4317
  867YOPE   D2A12688   2.983  14.933   6.912 -0.2298 -0.3159 -0.3944
  867YOPE   C3A12689   2.853  14.858   7.345 -0.1856  0.0579 -0.3419
  867YOPE   C4A12690   2.968  14.752   7.830  0.1922  0.2873 -0.0808
  867YOPE   C1B12691   2.795  15.331   6.722 -0.3915 -0.1797 -0.1193
  867YOPE   C2B12692   2.868  15.365   7.251 -0.2187 -0.3049 -0.0391
  867YOPE   D3B12693   2.873  15.256   7.669  0.0982 -0.0172 -0.2273
  867YOPE   C4B12694   2.685  15.616   7.904 -0.1015  0.3241  0.1689
  868YOPE   NH312695   2.397   3.824   6.114  0.0226 -0.0210 -0.0072
  868YOPE   PO412696   1.973   3.798   6.140  0.2090  0.0296 -0.1958
  868YOPE   GL112697   2.149   3.939   6.548 -0.0004  0.0977 -0.0589
  868YOPE   GL212698   2.605   3.883   6.631 -0.1320  0.3499 -0.2066
  868YOPE   C1A12699   2.224   4.241   6.849  0.1181  0.0489 -0.0475
  868YOPE   D2A12700   2.023   4.292   7.222  0.1844 -0.2248 -0.2380
  868YOPE   C3A12701   2.073   4.022   7.533  0.2508 -0.1476  0.2190
  868YOPE   C4A12702   2.040   3.856   7.917  0.2747 -0.1970  0.1216
  868YOPE   C1B12703   2.855   4.128   6.816  0.1373  0.0300  0.1812
  868YOPE   C2B12704   2.937   4.131   7.217  0.0725  0.0209 -0.1164
  868YOPE   D3B12705   2.763   3.940   7.660  0.1754 -0.1004  0.1018
  868YOPE   C4B12706   2.533   3.909   8.088 -0.0556 -0.1299 -0.4916
  869YOPE   NH312707   0.771   1.196   6.113 -0.0146  0.1343 -0.3909
  869YOPE   PO412708   0.525   1.596   5.956 -0.1486 -0.0395  0.3046
  869YOPE   GL112709   0.636   1.633   6.458 -0.0833  0.2105 -0.0271
  869YOPE   GL212710   0.819   1.412   6.689  0.4559 -0.0612 -0.0899
  869YOPE   C1A12711   0.601   1.877   6.813  0.0826 -0.1164  0.1493
  869YOPE   D2A12712   0.449   1.957   7.186  0.5198 -0.2025  0.1101
  869YOPE   C3A12713   0.622   2.128   7.534  0.3676  0.0341  0.4859
  869YOPE   C4A12714   1.087   2.228   7.555 -0.0119 -0.1466 -0.0492
  869YOPE   C1B12715   0.596   1.001   6.802 -0.1064  0.0721  0.1365
  869YOPE   C2B12716   0.753   0.826   7.127 -0.0117  0.0824 -0.0676
  869YOPE   D3B12717   0.735   0.704   7.473  0.1224  0.4818  0.1271
  869YOPE   C4B12718   0.855   0.551   7.869  0.1148  0.2817 -0.1044
  870YOPE   NH312719  12.212   0.244   6.217  0.0875  0.1807 -0.0037
  870YOPE   PO412720  12.515  -0.009   6.375  0.0082  0.1489  0.0497
  870YOPE   GL112721  12.406  -0.117   6.776  0.0187  0.1352 -0.1439
  870YOPE   GL212722  12.275   0.257   6.757  0.0805  0.3316 -0.2088
  870YOPE   C1A12723  12.294  -0.375   7.044  0.4697 -0.0128 -0.1961
  870YOPE   D2A12724  12.065  -0.429   7.427  0.6955  0.2058  0.2790
  870YOPE   C3A12725  12.077  -0.746   7.795 -0.0224 -0.0315  0.1518
  870YOPE   C4A12726  12.373  -0.771   8.121  0.2036  0.3271 -0.0876
  870YOPE   C1B12727  12.405   0.123   7.209  0.4874 -0.3181 -0.0537
  870YOPE   C2B12728  12.476  -0.054   7.602 -0.0947  0.0687  0.2612
  870YOPE   D3B12729  12.484  -0.301   8.075 -0.3633  0.0638 -0.1831
  870YOPE   C4B12730  12.757  -0.532   8.419  0.0014  0.0899 -0.0078
  871YOPE   NH312731   8.939   2.807   6.062  0.0559 -0.2465  0.0737
  871YOPE   PO412732   8.667   3.257   6.065 -0.1388  0.2625 -0.4809
  871YOPE   GL112733   8.711   3.518   6.434  0.0125  0.0436  0.0335
  871YOPE   GL212734   8.846   3.373   6.561 -0.2933 -0.2003  0.1359
  871YOPE   C1A12735   8.676   3.563   6.988 -0.1493 -0.2252 -0.3755
  871YOPE   D2A12736   8.670   3.286   7.380  0.1126 -0.1477  0.3359
  871YOPE   C3A12737   8.387   2.963   7.325 -0.0471  0.3696 -0.0560
  871YOPE   C4A12738   8.184   2.618   7.356 -0.1950  0.1785 -0.0356
  871YOPE   C1B12739   9.202   3.566   6.887 -0.0269  0.1170  0.2923
  871YOPE   C2B12740   9.077   3.736   7.284 -0.3933 -0.0878  0.0641
  871YOPE   D3B12741   9.092   3.919   7.625 -0.1340  0.0134  0.0309
  871YOPE   C4B12742   8.879   3.962   7.956 -0.0944  0.0839  0.2181
  872YOPE   NH312743   6.035   6.481   6.205  0.0845 -0.0364  0.2245
  872YOPE   PO412744   6.376   6.055   6.037  0.1658 -0.0265 -0.1585
  872YOPE   GL112745   6.622   5.962   6.392  0.0467 -0.1101  0.2002
  872YOPE   GL212746   6.439   6.307   6.494 -0.0115 -0.1592 -0.3748
  872YOPE   C1A12747   6.632   5.681   6.788  0.1180 -0.0885 -0.0383
  872YOPE   D2A12748   6.547   5.309   6.968  0.1554 -0.0586  0.0043
  872YOPE   C3A12749   6.580   5.316   7.395 -0.1762 -0.1826  0.1165
  872YOPE   C4A12750   6.640   5.310   7.788 -0.2778 -0.0161  0.4938
  872YOPE   C1B12751   6.175   5.969   6.740 -0.3809  0.1623  0.2501
  872YOPE   C2B12752   6.351   5.832   7.178  0.2248  0.2075 -0.0213
  872YOPE   D3B12753   6.190   5.728   7.579  0.0039  0.0181  0.0333
  872YOPE   C4B12754   5.919   5.562   7.806  0.0208 -0.1647  0.0943
  873YOPE   NH312755   3.026  12.404   5.226 -0.3796 -0.1860 -0.1025
  873YOPE   PO412756   3.019  12.017   4.976 -0.1683 -0.1289  0.1968
  873YOPE   GL112757   2.990  11.876   5.433  0.0812 -0.3600  0.2075
  873YOPE   GL212758   3.314  11.992   5.501 -0.1197 -0.1035 -0.1864
  873YOPE   C1A12759   2.801  11.696   5.811  0.0236 -0.1499 -0.0266
  873YOPE   D2A12760   2.601  11.781   6.306  0.3071 -0.0155 -0.1810
  873YOPE   C3A12761   2.568  11.549   6.656  0.0880 -0.4853  0.1224
  873YOPE   C4A12762   2.649  11.240   6.965 -0.3435 -0.1024 -0.0335
  873YOPE   C1B12763   3.618  12.071   5.834  0.0053  0.0951  0.0488
  873YOPE   C2B12764   3.481  12.339   6.114 -0.1615 -0.0769 -0.2344
  873YOPE   D3B12765   3.545  12.460   6.509  0.4475  0.1201  0.1858
  873YOPE   C4B12766   3.867  12.665   6.705  0.3969 -0.2370 -0.1940
  874YOPE   NH312767   8.521   1.894   6.481  0.0760 -0.0143 -0.1103
  874YOPE   PO412768   8.764   1.565   6.406 -0.1603 -0.2895  0.1974
  874YOPE   GL112769   8.699   1.554   6.915 -0.0713  0.1019  0.2487
  874YOPE   GL212770   8.674   1.903   6.994  0.0230  0.2541  0.0815
  874YOPE   C1A12771   8.660   1.315   7.315 -0.1423 -0.0684 -0.1454
  874YOPE   D2A12772   8.657   0.885   7.473 -0.2634  0.1840 -0.1136
  874YOPE   C3A12773   8.683   0.812   7.862 -0.2180  0.0399  0.0019
  874YOPE   C4A12774   8.459   0.503   8.028 -0.2776  0.2625  0.0651
  874YOPE   C1B12775   8.571   1.906   7.403  0.1426 -0.1214  0.0455
  874YOPE   C2B12776   8.630   1.634   7.749 -0.0594 -0.2572  0.1151
  874YOPE   D3B12777   8.857   1.266   7.857  0.0589 -0.0137  0.2364
  874YOPE   C4B12778   8.898   1.207   8.194 -0.0824  0.0672 -0.0382
  875YOPE   NH312779   0.180  12.140   5.388  0.6044 -0.0363 -0.1024
  875YOPE   PO412780  -0.231  12.098   5.549 -0.3068  0.0827 -0.1059
  875YOPE   GL112781  -0.377  12.173   5.998 -0.0205  0.0172 -0.0248
  875YOPE   GL212782  -0.632  12.444   6.114  0.3167  0.3001  0.0820
  875YOPE   C1A12783  -0.444  11.996   6.299  0.2144  0.1287 -0.1706
  875YOPE   D2A12784  -0.303  11.792   6.703 -0.2312  0.0631 -0.0233
  875YOPE   C3A12785  -0.632  11.732   7.004 -0.1394  0.1290 -0.0365
  875YOPE   C4A12786  -0.763  11.303   6.964  0.3153 -0.2885  0.1452
  875YOPE   C1B12787  -0.388  12.498   6.445  0.2104 -0.0452 -0.0518
  875YOPE   C2B12788  -0.486  12.268   6.815 -0.2169 -0.0738 -0.0823
  875YOPE   D3B12789  -0.555  12.210   7.158  0.6108 -0.1566 -0.0480
  875YOPE   C4B12790  -0.471  12.394   7.637  0.0791 -0.0819  0.0775
  876YOPE   NH312791  11.207   6.953   6.137  0.2493 -0.0275  0.1552
  876YOPE   PO412792  11.449   7.368   6.218 -0.1039  0.1512 -0.0938
  876YOPE   GL112793  11.355   7.627   6.478  0.1109  0.1911 -0.3382
  876YOPE   GL212794  11.098   7.730   6.520  0.1733 -0.0118  0.1695
  876YOPE   C1A12795  11.450   7.723   6.934 -0.0624 -0.1015 -0.0395
  876YOPE   D2A12796  11.603   7.895   7.437 -0.0553  0.5523 -0.1794
  876YOPE   C3A12797  11.904   7.976   7.730 -0.2372 -0.0562 -0.3495
  876YOPE   C4A12798  11.943   8.254   8.063  0.2595  0.2095 -0.0166
  876YOPE   C1B12799  10.965   7.776   6.841  0.0262  0.1072 -0.0169
  876YOPE   C2B12800  11.062   7.967   7.284  0.1122 -0.3199 -0.1002
  876YOPE   D3B12801  11.148   7.861   7.709  0.1544 -0.1689 -0.1139
  876YOPE   C4B12802  11.137   7.520   8.089 -0.1045  0.1653 -0.0334
  877YOPE   NH312803   5.561   5.795   6.045  0.1474 -0.1290  0.1096
  877YOPE   PO412804   5.131   5.921   5.937  0.1281  0.0176 -0.0912
  877YOPE   GL112805   5.181   5.971   6.290 -0.1409  0.1334  0.0563
  877YOPE   GL212806   5.383   5.900   6.570 -0.3987  0.0779 -0.2167
  877YOPE   C1A12807   4.966   6.409   6.427  0.0796  0.1537  0.1159
  877YOPE   D2A12808   5.033   6.849   6.484  0.2175  0.2835  0.1178
  877YOPE   C3A12809   5.233   7.076   6.887 -0.0253  0.3719 -0.0388
  877YOPE   C4A12810   5.448   7.254   7.236 -0.1133 -0.0848  0.3574
  877YOPE   C1B12811   5.498   5.764   6.871  0.1795  0.0283  0.1872
  877YOPE   C2B12812   5.270   5.844   7.228 -0.1160 -0.4424 -0.0662
  877YOPE   D3B12813   4.888   6.095   7.397  0.2464  0.0624 -0.2339
  877YOPE   C4B12814   4.678   6.367   7.626 -0.0531  0.0086 -0.0043
  878YOPE   NH312815   1.114   2.151   5.727 -0.5460 -0.2857 -0.0103
  878YOPE   PO412816   1.566   1.977   5.915  0.1303 -0.1587  0.1268
  878YOPE   GL112817   1.464   1.823   6.377 -0.0188  0.1501 -0.0062
  878YOPE   GL212818   1.631   2.010   6.497 -0.1238  0.1703 -0.1822
  878YOPE   C1A12819   1.330   1.391   6.535  0.0265  0.0535 -0.0622
  878YOPE   D2A12820   1.171   1.229   6.968  0.2345 -0.1162 -0.1724
  878YOPE   C3A12821   1.216   0.811   7.183 -0.3637 -0.0822  0.4522
  878YOPE   C4A12822   1.286   0.583   7.569  0.1295 -0.0794 -0.0769
  878YOPE   C1B12823   1.601   1.732   6.874 -0.1329 -0.0071  0.1740
  878YOPE   C2B12824   1.568   1.446   7.190  0.1073  0.0259 -0.2523
  878YOPE   D3B12825   1.330   1.399   7.492  0.2645 -0.0255 -0.2957
  878YOPE   C4B12826   0.937   1.140   7.496 -0.2880 -0.0386 -0.0778
  879YOPE   NH312827   9.306  10.231   5.402 -0.0471  0.2227 -0.1192
  879YOPE   PO412828   9.175   9.957   5.734 -0.0709 -0.1250 -0.0186
  879YOPE   GL112829   9.416   9.963   6.135 -0.1270 -0.0629 -0.0174
  879YOPE   GL212830   9.209   9.971   6.337  0.0996 -0.2369  0.2472
  879YOPE   C1A12831   9.591  10.236   6.524 -0.0854  0.0400  0.0991
  879YOPE   D2A12832   9.504  10.499   6.963  0.1431  0.1448  0.0151
  879YOPE   C3A12833   9.828  10.514   7.277  0.1245  0.0927  0.0637
  879YOPE   C4A12834  10.091  10.737   7.599 -0.2361 -0.0940  0.0896
  879YOPE   C1B12835   8.931   9.816   6.438  0.2548 -0.2379 -0.3526
  879YOPE   C2B12836   8.544   9.910   6.812 -0.0670 -0.2247 -0.0521
  879YOPE   D3B12837   8.298  10.316   6.985  0.2575 -0.2520 -0.1374
  879YOPE   C4B12838   8.214  10.673   7.345  0.3075 -0.0363 -0.1428
  880YOPE   NH312839   2.214  12.889   5.467  0.2997  0.1303 -0.3559
  880YOPE   PO412840   2.331  13.291   5.330  0.1028  0.1437  0.1006
  880YOPE   GL112841   2.485  13.166   5.817  0.3372 -0.4504 -0.0713
  880YOPE   GL212842   2.447  13.224   6.152  0.0338  0.1121 -0.0413
  880YOPE   C1A12843   2.904  13.086   5.992 -0.2002 -0.1408 -0.1218
  880YOPE   D2A12844   2.717  12.696   6.232 -0.2449 -0.2224 -0.3261
  880YOPE   C3A12845   2.550  12.368   6.408 -0.2416  0.0400 -0.1595
  880YOPE   C4A12846   2.298  12.106   6.646  0.1533  0.1474 -0.0713
  880YOPE   C1B12847   2.764  13.193   6.406 -0.0894 -0.1505 -0.1641
  880YOPE   C2B12848   2.983  13.084   6.844  0.1088  0.0049 -0.0962
  880YOPE   D3B12849   3.133  13.130   7.247 -0.1991  0.0347 -0.0869
  880YOPE   C4B12850   3.366  13.224   7.680 -0.1458 -0.0970 -0.0867
  881YOPE   NH312851   8.196   9.242   5.871 -0.0033  0.2527  0.1249
  881YOPE   PO412852   7.833   9.104   5.926 -0.3437 -0.1271  0.2531
  881YOPE   GL112853   8.005   9.253   6.365 -0.1303 -0.0507 -0.0337
  881YOPE   GL212854   7.861   9.510   6.284  0.0515 -0.1449 -0.0338
  881YOPE   C1A12855   8.193   9.526   6.693 -0.1510  0.1181 -0.2737
  881YOPE   D2A12856   8.332   9.441   7.023 -0.2055  0.0695  0.1600
  881YOPE   C3A12857   7.996   9.338   7.312 -0.1204 -0.1249  0.0113
  881YOPE   C4A12858   7.552   9.343   7.293 -0.0927  0.1724  0.4741
  881YOPE   C1B12859   7.762   9.869   6.511 -0.1874 -0.0597 -0.0286
  881YOPE   C2B12860   7.823  10.093   6.833 -0.0061  0.0832 -0.0040
  881YOPE   D3B12861   7.797  10.425   7.206 -0.0575 -0.0593 -0.1591
  881YOPE   C4B12862   7.667  10.726   7.482  0.0594  0.2974 -0.0404
  882POPC   NC312863   9.346   0.018   5.710 -0.0878  0.0368 -0.0572
  882POPC   PO412864   8.918   0.107   5.435  0.1427 -0.2174 -0.0647
  882POPC   GL112865   8.899   0.113   5.930  0.3637  0.0273  0.1715
  882POPC   GL212866   9.152  -0.137   6.158  0.1422 -0.1570  0.0463
  882POPC   C1A12867   8.767   0.296   6.265  0.3164 -0.3924 -0.3982
  882POPC   D2A12868   8.977   0.610   6.672 -0.0849  0.2694  0.2868
  882POPC   C3A12869   9.331   0.588   6.867 -0.1778  0.1506  0.2778
  882POPC   C4A12870   9.620   0.767   6.983  0.0720  0.3922 -0.1158
  882POPC   C1B12871   9.123   0.070   6.583 -0.5638 -0.0817  0.1275
  882POPC   C2B12872   8.868   0.156   6.891  0.2819  0.3165  0.2176
  882POPC   C3B12873   9.106   0.219   7.287 -0.3980 -0.1791 -0.1609
  882POPC   C4B12874   9.513   0.356   7.342 -0.0768  0.3363  0.3447
  883POPC   NC312875  11.408  13.897   4.927  0.5051  0.0829  0.3090
  883POPC   PO412876  11.207  14.183   5.232 -0.1161 -0.1084 -0.0404
  883POPC   GL112877  11.219  14.289   5.745  0.0481 -0.0266  0.1691
  883POPC   GL212878  11.240  14.465   5.952 -0.1912  0.0282 -0.0611
  883POPC   C1A12879  11.234  14.009   6.113  0.2217 -0.0460  0.1107
  883POPC   D2A12880  11.169  14.112   6.516  0.0628 -0.0798  0.0738
  883POPC   C3A12881  11.450  13.993   6.863 -0.1892  0.0158  0.0747
  883POPC   C4A12882  11.547  13.701   7.170  0.0655 -0.0050  0.1413
  883POPC   C1B12883  11.452  14.537   6.415 -0.3183 -0.0765  0.1169
  883POPC   C2B12884  11.499  14.494   6.764 -0.2356 -0.2123 -0.3064
  883POPC   C3B12885  11.454  14.739   7.056  0.0831 -0.3084  0.1145
  883POPC   C4B12886  11.318  15.172   7.364  0.2379  0.1306  0.0460
  884POPC   NC312887  16.735  17.118   5.711 -0.3423  0.0561 -0.1681
  884POPC   PO412888  16.630  16.653   5.665 -0.0438 -0.0847 -0.1458
  884POPC   GL112889  16.811  16.353   6.042  0.1104 -0.2351 -0.0613
  884POPC   GL212890  17.143  16.162   6.054 -0.3154  0.2063  0.3161
  884POPC   C1A12891  16.921  16.565   6.485 -0.0973 -0.1042 -0.1521
  884POPC   D2A12892  16.952  16.379   6.859 -0.1259 -0.2516 -0.1202
  884POPC   C3A12893  17.224  16.316   7.210  0.2135 -0.0923  0.1879
  884POPC   C4A12894  17.518  16.529   7.379  0.0697 -0.2658  0.0767
  884POPC   C1B12895  17.514  15.813   6.285  0.0643 -0.3697 -0.1760
  884POPC   C2B12896  17.721  15.671   6.689 -0.1106  0.0449  0.2064
  884POPC   C3B12897  17.912  15.567   7.021  0.2926 -0.0214  0.0088
  884POPC   C4B12898  18.145  15.299   7.389  0.2461 -0.1030  0.2072
  885POPC   NC312899   7.828   5.745   5.703 -0.0138  0.0418  0.0883
  885POPC   PO412900   7.847   6.103   5.981  0.1542  0.2479  0.2395
  885POPC   GL112901   7.879   6.309   6.320  0.0271  0.1993 -0.0672
  885POPC   GL212902   7.976   6.612   6.489 -0.3505  0.2347 -0.2035
  885POPC   C1A12903   7.784   6.181   6.773  0.0549 -0.3399  0.2429
  885POPC   D2A12904   7.711   6.061   7.139 -0.0851 -0.1657  0.1814
  885POPC   C3A12905   7.419   5.850   7.312  0.1046 -0.1265  0.1219
  885POPC   C4A12906   7.273   5.642   7.609  0.3213  0.2116  0.0997
  885POPC   C1B12907   7.966   6.540   6.973 -0.0718 -0.1525 -0.1477
  885POPC   C2B12908   8.201   6.838   7.253  0.0342 -0.3015 -0.0363
  885POPC   C3B12909   8.301   6.797   7.706  0.0543  0.0413 -0.0513
  885POPC   C4B12910   8.331   6.454   7.920 -0.2211  0.4781  0.1438
  886POPC   NC312911  17.060   5.459   5.659 -0.0754  0.2760 -0.1256
  886POPC   PO412912  17.414   5.632   5.422 -0.0823  0.0221  0.0336
  886POPC   GL112913  17.742   5.825   5.737 -0.2290  0.2720  0.0761
  886POPC   GL212914  18.003   5.707   5.728 -0.0847 -0.0745 -0.0656
  886POPC   C1A12915  17.831   5.948   6.169 -0.2752 -0.1216  0.2294
  886POPC   D2A12916  17.985   6.130   6.721 -0.0196  0.0680 -0.1159
  886POPC   C3A12917  17.931   6.515   6.700  0.1211  0.2744 -0.3255
  886POPC   C4A12918  17.819   6.771   6.982  0.1378  0.1254  0.1264
  886POPC   C1B12919  18.266   5.737   6.003  0.2431  0.2323 -0.2796
  886POPC   C2B12920  18.322   5.880   6.434  0.1047  0.3198  0.0787
  886POPC   C3B12921  18.439   5.837   6.826 -0.3306  0.1577  0.0555
  886POPC   C4B12922  18.359   5.890   7.235 -0.2682 -0.0048 -0.0114
  887POPC   NC312923  10.984  10.183   5.294 -0.0437  0.0709 -0.0244
  887POPC   PO412924  11.198   9.801   5.503  0.0551  0.0020  0.2409
  887POPC   GL112925  11.270   9.668   5.956 -0.2401 -0.0315  0.2249
  887POPC   GL212926  11.387   9.299   6.055  0.1056 -0.2740  0.5069
  887POPC   C1A12927  11.293   9.780   6.419  0.4177 -0.1218  0.0947
  887POPC   D2A12928  11.546  10.125   6.405  0.1939 -0.1819  0.2455
  887POPC   C3A12929  11.574  10.291   6.699  0.0507 -0.0551  0.5608
  887POPC   C4A12930  11.331  10.491   7.039  0.0067 -0.0751 -0.0194
  887POPC   C1B12931  11.701   9.291   6.425  0.2012 -0.3014  0.3670
  887POPC   C2B12932  11.912   9.663   6.647  0.2047  0.0703 -0.2916
  887POPC   C3B12933  12.258   9.626   6.950 -0.0707 -0.3469 -0.1298
  887POPC   C4B12934  12.303   9.454   7.304 -0.1828 -0.0707  0.1294
  888POPC   NC312935  11.112   6.381   6.043 -0.2451  0.3127 -0.2082
  888POPC   PO412936  11.492   6.593   5.978  0.1376  0.1022  0.3096
  888POPC   GL112937  11.551   6.440   6.371  0.1249 -0.1620 -0.2506
  888POPC   GL212938  11.290   6.563   6.516  0.3789 -0.3875 -0.0477
  888POPC   C1A12939  11.604   6.298   6.768  0.1425 -0.0906 -0.1773
  888POPC   D2A12940  11.910   6.269   7.054  0.1883 -0.0137 -0.1489
  888POPC   C3A12941  11.916   6.102   7.440  0.2682  0.0371  0.1367
  888POPC   C4A12942  11.767   6.032   7.849 -0.0638 -0.2010 -0.0012
  888POPC   C1B12943  11.172   6.814   6.817  0.2387 -0.1409 -0.2577
  888POPC   C2B12944  11.184   6.892   7.247  0.0548  0.2994  0.3712
  888POPC   C3B12945  11.368   6.957   7.596 -0.0515  0.4184 -0.4782
  888POPC   C4B12946  11.389   7.343   7.696 -0.0498  0.1554 -0.1708
  889POPC   NC312947   3.494   5.227   6.254 -0.1614  0.1935 -0.1587
  889POPC   PO412948   3.202   4.993   6.360 -0.2877 -0.2653 -0.0320
  889POPC   GL112949   3.381   5.191   6.734 -0.0332  0.1058 -0.0329
  889POPC   GL212950   3.466   4.871   6.784  0.0796  0.0916 -0.0098
  889POPC   C1A12951   3.123   5.266   7.131  0.3131 -0.2434 -0.1229
  889POPC   D2A12952   2.933   5.306   7.440 -0.1189  0.5154  0.3786
  889POPC   C3A12953   2.609   5.176   7.854 -0.0042 -0.4244 -0.2993
  889POPC   C4A12954   2.795   5.483   8.074  0.5089 -0.3064 -0.0990
  889POPC   C1B12955   3.640   4.957   7.187  0.2545  0.2558  0.1299
  889POPC   C2B12956   3.827   4.778   7.619 -0.2667 -0.1131 -0.3389
  889POPC   C3B12957   4.059   4.818   7.960 -0.0483 -0.2820  0.2932
  889POPC   C4B12958   4.238   5.147   8.185  0.1782  0.1998 -0.0941
  890POPC   NC312959  18.283   5.631   5.239 -0.4469 -0.0297  0.2437
  890POPC   PO412960  18.122   5.228   5.431 -0.2645 -0.1974  0.0715
  890POPC   GL112961  18.189   5.272   5.928  0.0721  0.0990  0.0439
  890POPC   GL212962  17.852   5.472   6.179 -0.0481 -0.0123  0.0118
  890POPC   C1A12963  18.516   5.398   6.224 -0.0355  0.0742 -0.1435
  890POPC   D2A12964  18.777   5.118   6.382 -0.4711 -0.1272  0.1126
  890POPC   C3A12965  18.618   4.816   6.597  0.0925  0.2274 -0.1550
  890POPC   C4A12966  18.453   4.953   6.977  0.4059  0.0583  0.3393
  890POPC   C1B12967  17.808   5.568   6.552 -0.2715 -0.1372 -0.0327
  890POPC   C2B12968  17.993   5.603   6.889  0.1237  0.0391  0.0405
  890POPC   C3B12969  18.088   5.417   7.237 -0.0285  0.3059 -0.0676
  890POPC   C4B12970  18.073   5.173   7.492  0.2058  0.0798  0.0115
  891POPC   NC312971  11.904  15.092   5.657 -0.2187 -0.1238 -0.0214
  891POPC   PO412972  12.323  14.974   5.469  0.0157 -0.0141  0.3464
  891POPC   GL112973  12.256  15.008   5.971  0.0959  0.0633  0.1082
  891POPC   GL212974  12.460  14.835   6.114  0.1352  0.1004  0.1534
  891POPC   C1A12975  12.064  15.201   6.332  0.2871  0.2102 -0.1516
  891POPC   D2A12976  11.677  15.477   6.338  0.1106 -0.0614  0.0327
  891POPC   C3A12977  11.373  15.489   6.726  0.4315 -0.0528  0.0409
  891POPC   C4A12978  11.399  15.644   7.079 -0.0805  0.1726  0.0473
  891POPC   C1B12979  12.430  14.866   6.493 -0.1282  0.1538  0.1425
  891POPC   C2B12980  12.045  14.860   6.720 -0.1348 -0.1671 -0.3849
  891POPC   C3B12981  12.000  14.692   7.057 -0.3103 -0.0953  0.2418
  891POPC   C4B12982  11.945  14.503   7.489 -0.2414  0.0317  0.0029
  892POPC   NC312983   9.920  15.812   5.354  0.3050  0.3012 -0.1794
  892POPC   PO412984   9.623  15.438   5.305  0.0059  0.2223 -0.2046
  892POPC   GL112985   9.539  15.364   5.741 -0.0383  0.3386  0.1400
  892POPC   GL212986   9.382  15.061   5.921  0.0794 -0.0655  0.1683
  892POPC   C1A12987   9.442  15.544   6.163 -0.0477 -0.1331  0.2878
  892POPC   D2A12988   9.442  15.922   6.413  0.0418  0.2082  0.0048
  892POPC   C3A12989   9.348  15.840   6.818  0.0665 -0.1385  0.1035
  892POPC   C4A12990   8.964  15.640   6.911 -0.1532  0.2511  0.1562
  892POPC   C1B12991   9.184  15.039   6.297  0.2940  0.0369  0.0592
  892POPC   C2B12992   8.952  15.152   6.717  0.2255  0.2580  0.0544
  892POPC   C3B12993   8.839  15.163   7.124  0.0166 -0.0025  0.1472
  892POPC   C4B12994   8.803  15.009   7.530  0.0158  0.0040 -0.0767
  893POPC   NC312995   1.044   2.898   6.161  0.1204 -0.0654 -0.1507
  893POPC   PO412996   1.245   3.207   6.306  0.3540 -0.0355  0.2784
  893POPC   GL112997   1.034   3.157   6.641  0.3927  0.1244 -0.0211
  893POPC   GL212998   0.851   2.966   6.625 -0.0606  0.0855 -0.0439
  893POPC   C1A12999   0.982   3.448   6.920  0.0095 -0.0462  0.0545
  893POPC   D2A13000   1.033   3.537   7.322  0.1302 -0.1352 -0.1091
  893POPC   C3A13001   1.391   3.633   7.542 -0.0054  0.1445  0.0877
  893POPC   C4A13002   1.432   3.663   7.991 -0.1074 -0.2829  0.1912
  893POPC   C1B13003   0.897   3.026   7.097  0.2493 -0.0633 -0.1571
  893POPC   C2B13004   0.841   2.649   7.234  0.2187  0.1175 -0.2068
  893POPC   C3B13005   0.892   2.206   7.071  0.0775  0.1383  0.2084
  893POPC   C4B13006   1.085   1.820   6.811  0.2161 -0.0491 -0.0045
  894POPC   NC313007  15.776  15.784   5.517  0.1000  0.1803  0.3041
  894POPC   PO413008  15.938  15.349   5.668  0.2528 -0.2033  0.0965
  894POPC   GL113009  16.018  15.309   6.174  0.0766  0.2197 -0.2803
  894POPC   GL213010  15.768  15.123   6.220 -0.2655  0.2203 -0.0928
  894POPC   C1A13011  16.339  15.486   6.421  0.1813 -0.1888 -0.0135
  894POPC   D2A13012  16.583  15.700   6.736  0.3579 -0.3080  0.2262
  894POPC   C3A13013  16.518  16.106   6.839 -0.1695  0.0018 -0.2387
  894POPC   C4A13014  16.448  16.469   6.661  0.3440 -0.2199  0.2379
  894POPC   C1B13015  15.834  15.237   6.622  0.1700 -0.1053 -0.2471
  894POPC   C2B13016  16.107  15.577   6.884 -0.1230 -0.0969  0.0607
  894POPC   C3B13017  16.401  15.784   7.188 -0.0090 -0.3611 -0.0905
  894POPC   C4B13018  16.473  15.785   7.594 -0.1737  0.1908  0.1565
  895POPC   NC313019  11.692   9.673   5.624  0.0612 -0.0794  0.0271
  895POPC   PO413020  11.529  10.119   5.355 -0.0110 -0.0237 -0.0922
  895POPC   GL113021  11.730  10.299   5.656 -0.2150  0.0170  0.2573
  895POPC   GL213022  11.869  10.127   5.850 -0.0895 -0.0653 -0.2914
  895POPC   C1A13023  11.834  10.552   6.118 -0.0004 -0.1023 -0.1614
  895POPC   D2A13024  12.121  10.596   6.396 -0.4054  0.2166 -0.2240
  895POPC   C3A13025  12.120  10.763   6.864  0.0786  0.0636 -0.1819
  895POPC   C4A13026  11.990  10.927   7.250 -0.0507  0.2170  0.2318
  895POPC   C1B13027  12.341  10.218   5.850 -0.3272  0.0515 -0.0625
  895POPC   C2B13028  12.740  10.056   5.977 -0.2532 -0.0753  0.1001
  895POPC   C3B13029  13.112  10.311   5.859 -0.0299  0.0046 -0.0296
  895POPC   C4B13030  13.339  10.650   5.977  0.0622  0.1873 -0.1097
  896POPC   NC313031  11.287  12.514   4.988  0.1304  0.2440  0.1709
  896POPC   PO413032  11.464  12.782   5.192 -0.0960  0.0378  0.1184
  896POPC   GL113033  11.388  12.880   5.635 -0.1281 -0.0106  0.4046
  896POPC   GL213034  11.169  12.827   5.869 -0.1549  0.1552  0.0927
  896POPC   C1A13035  11.740  12.809   5.998  0.0327  0.0279 -0.1622
  896POPC   D2A13036  11.739  12.852   6.422  0.0070  0.2701  0.0904
  896POPC   C3A13037  11.951  12.589   6.772 -0.1584  0.2074 -0.1786
  896POPC   C4A13038  12.057  12.522   7.201 -0.0868  0.0243  0.1369
  896POPC   C1B13039  11.286  12.963   6.343  0.0541 -0.1949 -0.2762
  896POPC   C2B13040  11.165  13.149   6.628  0.4608  0.0353  0.1070
  896POPC   C3B13041  11.167  13.500   6.827  0.0079  0.2432  0.1436
  896POPC   C4B13042  10.911  13.662   7.218 -0.1781 -0.1557  0.1032
  897POPC   NC313043  15.652   1.176   6.174  0.1471  0.2598  0.0762
  897POPC   PO413044  16.065   1.000   6.363 -0.0059 -0.0551 -0.3507
  897POPC   GL113045  16.115   0.805   6.642  0.1609 -0.1369 -0.1880
  897POPC   GL213046  16.304   0.491   6.703  0.1845 -0.0660 -0.0428
  897POPC   C1A13047  16.365   0.989   6.988 -0.0108  0.2286  0.5991
  897POPC   D2A13048  16.690   1.150   7.297  0.1588  0.3524 -0.3744
  897POPC   C3A13049  16.949   1.166   7.635 -0.0812 -0.1511  0.1511
  897POPC   C4A13050  17.048   1.486   7.922  0.0506  0.2467  0.1284
  897POPC   C1B13051  16.287   0.535   7.137 -0.1725 -0.0207 -0.1721
  897POPC   C2B13052  16.256   0.348   7.600  0.0250 -0.1788  0.1816
  897POPC   C3B13053  16.189   0.191   7.985  0.0596  0.0387  0.0786
  897POPC   C4B13054  15.965  -0.102   8.269 -0.0074 -0.0235  0.1028
  898POPC   NC313055  10.400  13.280   4.770  0.3010 -0.0808 -0.1845
  898POPC   PO413056  10.585  13.392   5.259  0.2284 -0.0901  0.2527
  898POPC   GL113057  10.746  13.557   5.658 -0.2861 -0.0056 -0.1895
  898POPC   GL213058  10.837  13.805   5.849 -0.1066 -0.2749 -0.0028
  898POPC   C1A13059  10.679  13.396   6.062  0.2216 -0.0664 -0.3257
  898POPC   D2A13060  10.847  13.080   6.204  0.1245  0.1602  0.0625
  898POPC   C3A13061  10.884  12.741   6.552 -0.1329 -0.0002  0.1682
  898POPC   C4A13062  10.835  12.445   6.798 -0.1688  0.1253  0.0236
  898POPC   C1B13063  10.736  14.208   6.014 -0.0138  0.4799  0.3929
  898POPC   C2B13064  10.531  14.145   6.342 -0.0364  0.0069  0.2148
  898POPC   C3B13065  10.327  14.148   6.731 -0.1692 -0.2426 -0.1342
  898POPC   C4B13066  10.341  14.557   6.952 -0.1603 -0.1211 -0.3233
  899POPC   NC313067  12.550  17.532   5.650  0.2898 -0.0042  0.3390
  899POPC   PO413068  12.417  17.925   5.942  0.0658 -0.2333 -0.0300
  899POPC   GL113069  12.460  17.671   6.316 -0.4396 -0.0265  0.1272
  899POPC   GL213070  12.434  17.393   6.168 -0.1389  0.4332  0.0389
  899POPC   C1A13071  12.768  17.615   6.691  0.2223 -0.0269  0.0900
  899POPC   D2A13072  12.796  17.335   7.019 -0.0461  0.1553 -0.0984
  899POPC   C3A13073  13.094  17.051   7.080 -0.2869  0.0936 -0.1043
  899POPC   C4A13074  13.009  16.590   7.202  0.1104  0.3141 -0.0706
  899POPC   C1B13075  12.388  17.273   6.661 -0.3216 -0.0722  0.2505
  899POPC   C2B13076  12.103  17.261   6.977  0.1735 -0.0730 -0.3151
  899POPC   C3B13077  12.327  17.331   7.291  0.4073 -0.1032  0.1251
  899POPC   C4B13078  12.414  17.498   7.686  0.3030 -0.0575 -0.0037
  900POPC   NC313079  16.212   8.127   4.769  0.1897 -0.1119  0.0070
  900POPC   PO413080  16.077   8.104   5.227  0.0179  0.3604  0.2283
  900POPC   GL113081  16.005   7.856   5.643  0.0768  0.3816  0.0283
  900POPC   GL213082  16.251   7.754   5.763  0.1265 -0.0721 -0.1935
  900POPC   C1A13083  15.864   7.756   6.065 -0.1835  0.1719  0.1662
  900POPC   D2A13084  16.079   7.652   6.359  0.0165 -0.1786 -0.1142
  900POPC   C3A13085  15.967   7.841   6.743  0.2123  0.2968 -0.1076
  900POPC   C4A13086  15.795   7.765   7.175 -0.1140  0.1135 -0.1238
  900POPC   C1B13087  16.553   7.763   6.075 -0.0969  0.3129  0.0434
  900POPC   C2B13088  16.671   7.815   6.599 -0.0396  0.0307  0.1110
  900POPC   C3B13089  16.980   7.799   6.972  0.1595  0.0572 -0.0324
  900POPC   C4B13090  17.184   8.231   7.135  0.1298 -0.2242  0.1270
  901POPC   NC313091   2.265  14.999   5.239  0.1095  0.2738 -0.0112
  901POPC   PO413092   2.130  15.248   5.603  0.0786  0.0039 -0.0907
  901POPC   GL113093   2.091  14.966   5.881 -0.1067  0.1003 -0.3475
  901POPC   GL213094   2.024  14.612   6.062  0.3440 -0.0487 -0.0479
  901POPC   C1A13095   2.203  14.924   6.389 -0.0763  0.0544 -0.2361
  901POPC   D2A13096   2.286  15.237   6.635 -0.0533 -0.0444 -0.1972
  901POPC   C3A13097   2.448  15.102   7.079 -0.1065 -0.0995 -0.1957
  901POPC   C4A13098   2.411  15.077   7.555  0.1372  0.2431 -0.3049
  901POPC   C1B13099   1.725  14.643   6.406 -0.2237  0.0377  0.2251
  901POPC   C2B13100   1.784  14.910   6.763 -0.0904  0.1629 -0.1657
  901POPC   C3B13101   1.931  15.086   7.097 -0.3017  0.0314  0.0203
  901POPC   C4B13102   1.884  15.309   7.442 -0.0839  0.1527  0.1891
  902POPC   NC313103   7.428  13.416   4.832 -0.3815  0.0358 -0.1257
  902POPC   PO413104   7.166  13.094   4.946 -0.1060  0.0995 -0.0742
  902POPC   GL113105   7.097  12.963   5.328  0.3290 -0.1157  0.0157
  902POPC   GL213106   7.249  12.648   5.467  0.0866  0.0218 -0.2682
  902POPC   C1A13107   7.146  13.124   5.782  0.1496 -0.2405 -0.2900
  902POPC   D2A13108   7.511  13.277   6.025  0.3347 -0.0885  0.1175
  902POPC   C3A13109   7.513  13.590   6.379 -0.0645  0.0001  0.1815
  902POPC   C4A13110   7.377  14.010   6.445 -0.2859 -0.2147 -0.1123
  902POPC   C1B13111   6.979  12.642   5.770  0.1675 -0.2556 -0.1315
  902POPC   C2B13112   7.151  12.776   6.168  0.2803  0.0663 -0.2140
  902POPC   C3B13113   7.055  12.721   6.637  0.3647  0.2204 -0.0921
  902POPC   C4B13114   7.072  12.835   7.090 -0.1266  0.1050  0.2340
  903POPC   NC313115  15.575   6.252   5.435  0.1827  0.1243 -0.1084
  903POPC   PO413116  15.839   6.476   5.543 -0.0491 -0.0175  0.0423
  903POPC   GL113117  15.537   6.735   5.677 -0.0394  0.1751  0.3323
  903POPC   GL213118  15.767   6.869   5.922 -0.2730 -0.1208  0.1629
  903POPC   C1A13119  15.227   6.898   6.027 -0.0829 -0.2003 -0.2616
  903POPC   D2A13120  15.120   6.631   6.386  0.1004 -0.4310  0.2032
  903POPC   C3A13121  15.324   6.232   6.504  0.2798  0.3765  0.1878
  903POPC   C4A13122  15.445   5.897   6.722 -0.1828 -0.1191  0.2159
  903POPC   C1B13123  15.581   6.726   6.322 -0.1934  0.1524 -0.0843
  903POPC   C2B13124  15.499   6.711   6.748  0.0934  0.1592  0.2335
  903POPC   C3B13125  15.370   6.368   7.010  0.3228  0.1139 -0.0187
  903POPC   C4B13126  15.447   6.002   7.196  0.0791  0.2813  0.0446
  904POPC   NC313127   0.341   0.058   5.551 -0.1158  0.0491  0.1560
  904POPC   PO413128   0.587  -0.323   5.460 -0.0057 -0.0901 -0.3674
  904POPC   GL113129   0.507  -0.399   5.880 -0.3476 -0.2955 -0.2230
  904POPC   GL213130   0.693  -0.669   6.149 -0.1287 -0.1151 -0.1444
  904POPC   C1A13131   0.327  -0.335   6.351  0.0027  0.1583 -0.2661
  904POPC   D2A13132   0.251  -0.031   6.728 -0.0207 -0.0641 -0.1035
  904POPC   C3A13133   0.350  -0.198   7.125 -0.1292  0.1451 -0.3757
  904POPC   C4A13134   0.451  -0.347   7.467 -0.1558 -0.2135  0.1824
  904POPC   C1B13135   0.635  -0.731   6.579  0.0299 -0.1991 -0.0580
  904POPC   C2B13136   0.499  -0.724   7.036 -0.0526 -0.2748 -0.1334
  904POPC   C3B13137   0.455  -0.882   7.465 -0.1887  0.2569 -0.0385
  904POPC   C4B13138   0.505  -0.751   7.920 -0.2695  0.3179  0.1600
  905POPC   NC313139   7.875  10.027   5.348  0.3011 -0.3614 -0.3091
  905POPC   PO413140   8.173  10.358   5.402 -0.1127 -0.1580 -0.1331
  905POPC   GL113141   8.456  10.668   5.719 -0.0229 -0.3099  0.1903
  905POPC   GL213142   8.649  10.589   6.054 -0.0582  0.4533 -0.2028
  905POPC   C1A13143   8.400  11.019   6.083 -0.0560 -0.0313  0.3486
  905POPC   D2A13144   8.647  11.225   6.419  0.1389  0.3435  0.1159
  905POPC   C3A13145   8.811  11.170   6.838 -0.1377 -0.0555  0.2649
  905POPC   C4A13146   9.021  11.297   7.204 -0.0762  0.1612  0.1547
  905POPC   C1B13147   8.695  10.764   6.423  0.1600 -0.0227 -0.0030
  905POPC   C2B13148   8.555  10.744   6.778 -0.1614 -0.0706 -0.3629
  905POPC   C3B13149   8.414  11.045   7.056  0.4603 -0.2464 -0.0822
  905POPC   C4B13150   8.444  11.097   7.545  0.4749 -0.2121  0.1307
  906POPC   NC313151   6.521  18.175   5.307  0.0747 -0.1614  0.0311
  906POPC   PO413152   6.746  17.878   5.388  0.0903  0.0319  0.2864
  906POPC   GL113153   6.557  17.639   5.807 -0.1691 -0.0135 -0.3032
  906POPC   GL213154   6.866  17.597   5.944  0.1012  0.1287 -0.0551
  906POPC   C1A13155   6.349  17.803   6.185 -0.0198  0.0778  0.2515
  906POPC   D2A13156   6.505  17.598   6.585 -0.0123 -0.1038 -0.2979
  906POPC   C3A13157   6.145  17.736   6.885  0.1255  0.0654  0.1883
  906POPC   C4A13158   6.153  17.754   7.335 -0.2144 -0.0433 -0.1543
  906POPC   C1B13159   7.180  17.451   6.197 -0.2760  0.0328  0.2309
  906POPC   C2B13160   7.547  17.474   6.551  0.1754 -0.0023 -0.0981
  906POPC   C3B13161   7.537  17.315   6.987  0.1983  0.1780  0.0717
  906POPC   C4B13162   7.578  16.978   7.350 -0.1265 -0.3720  0.0024
  907POPC   NC313163   4.519  10.485   4.951 -0.1127  0.0611 -0.0191
  907POPC   PO413164   4.458  10.243   5.294 -0.2030 -0.1604 -0.2091
  907POPC   GL113165   4.399  10.344   5.690 -0.0670 -0.2342  0.0320
  907POPC   GL213166   4.194  10.551   5.808  0.1317 -0.3247  0.2070
  907POPC   C1A13167   4.634  10.534   6.080  0.0186  0.2487 -0.1659
  907POPC   D2A13168   4.712  10.626   6.409  0.0599 -0.0303 -0.1481
  907POPC   C3A13169   4.480  10.908   6.755  0.3778 -0.1379 -0.2256
  907POPC   C4A13170   4.316  10.748   7.156  0.3393 -0.0557 -0.0795
  907POPC   C1B13171   4.195  10.358   6.279 -0.0523 -0.0968 -0.0763
  907POPC   C2B13172   4.238  10.378   6.680 -0.2134 -0.1278 -0.1450
  907POPC   C3B13173   4.572  10.416   6.927 -0.0732 -0.0674 -0.0056
  907POPC   C4B13174   4.770  10.580   7.245 -0.0381  0.3908  0.0262
  908POPC   NC313175  11.561   1.359   5.792 -0.1932  0.0556 -0.1659
  908POPC   PO413176  11.367   1.559   6.180 -0.3042  0.0806 -0.0449
  908POPC   GL113177  11.128   1.416   6.497  0.0557 -0.1637  0.2559
  908POPC   GL213178  11.310   1.372   6.692  0.3968  0.0122 -0.2024
  908POPC   C1A13179  10.818   1.512   6.758 -0.4425 -0.0019 -0.4292
  908POPC   D2A13180  10.429   1.632   6.993 -0.2719  0.1931 -0.0273
  908POPC   C3A13181  10.505   1.756   7.478 -0.0665  0.0405 -0.0455
  908POPC   C4A13182  10.503   1.961   7.894 -0.0747 -0.1728 -0.1225
  908POPC   C1B13183  11.299   1.446   7.057  0.0565 -0.2583  0.0500
  908POPC   C2B13184  11.232   1.477   7.568  0.2178 -0.0589  0.0645
  908POPC   C3B13185  10.976   1.658   7.986 -0.3573  0.0792 -0.5191
  908POPC   C4B13186  10.990   2.068   8.189  0.0725 -0.1493  0.0120
  909POPC   NC313187   6.269   3.099   5.226  0.2017  0.0981  0.2264
  909POPC   PO413188   6.178   3.196   5.652  0.1350 -0.1535  0.2347
  909POPC   GL113189   6.139   3.122   6.113 -0.0289  0.1860 -0.0527
  909POPC   GL213190   6.365   3.183   6.256 -0.2238 -0.2581  0.0878
  909POPC   C1A13191   5.934   2.845   6.470  0.3116 -0.0291 -0.1729
  909POPC   D2A13192   6.141   2.523   6.611 -0.1637 -0.1416 -0.0727
  909POPC   C3A13193   6.153   2.381   7.006 -0.3297  0.0442  0.0095
  909POPC   C4A13194   6.113   2.369   7.435  0.0341 -0.1401 -0.4742
  909POPC   C1B13195   6.300   3.057   6.675 -0.0647  0.1737  0.2193
  909POPC   C2B13196   6.062   2.947   7.075  0.2605 -0.1294 -0.1421
  909POPC   C3B13197   5.898   2.813   7.525 -0.0131  0.3730 -0.1231
  909POPC   C4B13198   5.905   3.041   7.983 -0.1030  0.0972  0.0907
  910POPC   NC313199   0.884   9.726   5.764  0.0376  0.0581  0.2124
  910POPC   PO413200   0.500   9.891   5.791 -0.0727  0.0816  0.0473
  910POPC   GL113201   0.637   9.922   6.129 -0.3000  0.0016  0.1048
  910POPC   GL213202   0.534  10.261   6.237  0.0517 -0.1098  0.0144
  910POPC   C1A13203   0.538   9.697   6.518  0.0706  0.1320  0.0302
  910POPC   D2A13204   0.106   9.466   6.700 -0.2675 -0.0898 -0.0755
  910POPC   C3A13205  -0.035   9.121   6.949 -0.1766  0.0974 -0.6169
  910POPC   C4A13206  -0.290   8.831   7.192  0.2382 -0.0315  0.0504
  910POPC   C1B13207   0.383  10.142   6.662  0.0869 -0.1961 -0.0356
  910POPC   C2B13208   0.167   9.898   7.017 -0.3295 -0.0603  0.1435
  910POPC   C3B13209  -0.103   9.569   7.277 -0.2300  0.1100 -0.0257
  910POPC   C4B13210  -0.397   9.323   7.493 -0.2915  0.1810  0.1344
  911POPC   NC313211   7.321  18.047   5.564  0.0122  0.0699 -0.2504
  911POPC   PO413212   7.614  17.617   5.585  0.1201  0.0655 -0.0942
  911POPC   GL113213   7.876  17.454   5.869 -0.3301  0.3554 -0.2823
  911POPC   GL213214   7.877  17.543   6.186 -0.1928  0.2317  0.2324
  911POPC   C1A13215   8.032  17.088   6.099  0.2647 -0.1043 -0.0672
  911POPC   D2A13216   8.273  16.794   6.397  0.1768 -0.1153 -0.2243
  911POPC   C3A13217   8.276  16.801   6.743  0.0640  0.4109 -0.0129
  911POPC   C4A13218   8.334  16.704   7.194  0.0002  0.1182  0.1326
  911POPC   C1B13219   7.918  17.124   6.571 -0.2872 -0.0581  0.0332
  911POPC   C2B13220   7.996  17.099   7.024  0.2761  0.0815 -0.0856
  911POPC   C3B13221   8.065  17.141   7.370 -0.0127  0.1311 -0.1403
  911POPC   C4B13222   8.097  17.190   7.770  0.3171 -0.2038  0.0288
  912POPC   NC313223  17.667   1.699   6.176 -0.0675 -0.2559  0.0802
  912POPC   PO413224  17.233   1.811   6.245 -0.0807  0.0077  0.1211
  912POPC   GL113225  17.346   2.115   6.657  0.0214 -0.0536  0.0576
  912POPC   GL213226  17.193   2.387   6.832  0.3799 -0.1018  0.0436
  912POPC   C1A13227  17.264   2.001   7.112 -0.2729 -0.2712 -0.1829
  912POPC   D2A13228  17.305   1.565   7.246 -0.0120 -0.0217  0.1789
  912POPC   C3A13229  17.190   1.095   7.210 -0.1416  0.1326 -0.0611
  912POPC   C4A13230  17.420   0.763   7.244 -0.1785 -0.1536 -0.1181
  912POPC   C1B13231  17.292   2.502   7.303  0.0204 -0.0576 -0.3293
  912POPC   C2B13232  17.409   2.848   7.570 -0.1820  0.2382  0.0639
  912POPC   C3B13233  17.298   3.189   7.876  0.0730  0.0640  0.1238
  912POPC   C4B13234  17.293   3.386   8.245  0.1650  0.2648  0.3402
  913POPC   NC313235  13.766   6.595   5.716  0.0463 -0.1124 -0.1741
  913POPC   PO413236  13.732   6.264   5.866 -0.0028  0.0685 -0.1760
  913POPC   GL113237  13.569   6.185   6.280  0.1526 -0.0995  0.0093
  913POPC   GL213238  13.972   6.295   6.388  0.5121 -0.1975  0.3268
  913POPC   C1A13239  13.463   6.143   6.688  0.0291  0.0799 -0.1123
  913POPC   D2A13240  13.503   6.007   7.116 -0.3341 -0.0757  0.1848
  913POPC   C3A13241  13.549   6.365   7.187 -0.1097  0.0549 -0.1733
  913POPC   C4A13242  13.632   6.622   7.556 -0.0917 -0.1707  0.2015
  913POPC   C1B13243  13.930   6.280   6.908 -0.1044 -0.0066  0.2388
  913POPC   C2B13244  14.057   6.331   7.316  0.1912  0.2041 -0.3631
  913POPC   C3B13245  14.110   6.675   7.779  0.0312 -0.0966 -0.2702
  913POPC   C4B13246  14.411   6.960   7.869  0.1879  0.3667 -0.0058
  914POPC   NC313247   5.302   6.947   6.124 -0.1286  0.0399  0.2385
  914POPC   PO413248   4.992   7.196   5.919  0.0304  0.3140  0.2658
  914POPC   GL113249   5.164   7.409   6.290  0.0571 -0.1860 -0.0605
  914POPC   GL213250   4.974   7.718   6.214 -0.1001 -0.0667  0.1424
  914POPC   C1A13251   5.300   7.538   6.702 -0.3764 -0.4235 -0.1363
  914POPC   D2A13252   5.042   7.591   7.092 -0.2364  0.0781 -0.1340
  914POPC   C3A13253   5.255   7.953   7.280 -0.0899  0.2336  0.0399
  914POPC   C4A13254   5.337   8.300   7.428  0.1620 -0.0279  0.0405
  914POPC   C1B13255   4.799   7.815   6.549  0.0619 -0.2117  0.0558
  914POPC   C2B13256   4.680   7.911   6.983 -0.0017  0.3369 -0.1367
  914POPC   C3B13257   4.751   7.998   7.359  0.0667 -0.1004 -0.1511
  914POPC   C4B13258   4.948   7.861   7.638  0.1637 -0.0540  0.1758
  915POPC   NC313259   9.334  12.033   5.148 -0.1171 -0.0241 -0.2226
  915POPC   PO413260   9.311  11.559   5.216  0.0867 -0.0571 -0.3220
  915POPC   GL113261   9.177  11.524   5.614  0.1874 -0.1052  0.1331
  915POPC   GL213262   9.169  11.791   5.690 -0.3071  0.1303  0.2866
  915POPC   C1A13263   9.171  11.397   6.005 -0.1315 -0.0138  0.1181
  915POPC   D2A13264   9.499  11.487   6.384  0.1830 -0.0641 -0.0235
  915POPC   C3A13265   9.474  11.347   6.807 -0.2311 -0.4118 -0.0837
  915POPC   C4A13266   9.630  11.117   7.127 -0.1991  0.1658 -0.2732
  915POPC   C1B13267   8.935  11.942   6.045 -0.1902 -0.1078  0.1548
  915POPC   C2B13268   8.741  11.785   6.343 -0.1584  0.0515  0.0256
  915POPC   C3B13269   8.485  11.651   6.690  0.2600  0.2409  0.1355
  915POPC   C4B13270   8.517  11.518   7.181  0.2213  0.0492 -0.4512
  916POPC   NC313271  12.415   6.822   5.902 -0.0501  0.1287 -0.0161
  916POPC   PO413272  12.791   6.846   5.785  0.3455  0.0946 -0.0281
  916POPC   GL113273  12.931   6.566   6.191  0.0863  0.2345  0.0898
  916POPC   GL213274  13.175   6.525   6.422  0.0962  0.0106  0.1434
  916POPC   C1A13275  12.685   6.582   6.645  0.4432  0.1519  0.1983
  916POPC   D2A13276  12.683   6.330   7.089 -0.2098 -0.0805  0.0064
  916POPC   C3A13277  13.050   6.241   7.352  0.0698 -0.1664 -0.0635
  916POPC   C4A13278  13.123   5.936   7.586 -0.0239  0.0630  0.0797
  916POPC   C1B13279  13.177   6.523   6.902 -0.1529  0.2310 -0.2816
  916POPC   C2B13280  13.246   6.759   7.297 -0.1656  0.0100  0.1810
  916POPC   C3B13281  13.155   6.650   7.731 -0.3049 -0.0072  0.0709
  916POPC   C4B13282  13.072   6.357   7.913 -0.1331 -0.3413  0.2522
  917POPC   NC313283  17.990   9.948   5.785  0.1810 -0.1910 -0.1442
  917POPC   PO413284  18.218   9.982   6.032 -0.0368 -0.0040  0.5375
  917POPC   GL113285  18.312  10.388   6.204  0.1588 -0.1035 -0.3247
  917POPC   GL213286  18.330  10.785   6.161  0.0975  0.2432 -0.1546
  917POPC   C1A13287  18.691  10.454   6.405  0.1567  0.0850  0.1848
  917POPC   D2A13288  19.052  10.710   6.571  0.0052  0.0071  0.0758
  917POPC   C3A13289  19.425  10.430   6.712 -0.3148  0.1022  0.1706
  917POPC   C4A13290  19.710  10.106   6.456 -0.3793 -0.3152  0.2488
  917POPC   C1B13291  18.476  10.831   6.616  0.3404  0.0966  0.1827
  917POPC   C2B13292  18.394  10.880   7.071 -0.1901  0.4399 -0.1595
  917POPC   C3B13293  18.663  10.986   7.390  0.2206 -0.2200 -0.0980
  917POPC   C4B13294  18.890  10.958   7.730 -0.1398 -0.0474  0.0443
  918POPC   NC313295   9.740  12.805   5.034  0.0673  0.1205 -0.0906
  918POPC   PO413296   9.413  13.128   5.224  0.2441  0.1806  0.0909
  918POPC   GL113297   9.575  13.073   5.622 -0.2470  0.3017  0.0070
  918POPC   GL213298   9.663  12.784   5.591  0.1700  0.2966 -0.0884
  918POPC   C1A13299   9.753  13.077   5.973  0.0224 -0.0710  0.0207
  918POPC   D2A13300   9.961  12.820   6.397 -0.3859  0.0368 -0.0003
  918POPC   C3A13301  10.094  12.958   6.781  0.0109  0.2479  0.1353
  918POPC   C4A13302  10.150  13.155   7.244  0.2756 -0.1570  0.2811
  918POPC   C1B13303   9.562  12.551   5.944  0.1722  0.2674 -0.1661
  918POPC   C2B13304   9.649  12.418   6.387 -0.0317 -0.2201  0.0891
  918POPC   C3B13305   9.944  12.472   6.750 -0.0799  0.0557 -0.0663
  918POPC   C4B13306   9.925  12.659   7.124 -0.0297  0.4702  0.0108
  919POPC   NC313307  12.144   2.071   6.450 -0.3452 -0.0582  0.0331
  919POPC   PO413308  12.310   2.444   6.255 -0.2927 -0.1695  0.2121
  919POPC   GL113309  12.334   2.454   6.662  0.1458  0.2080  0.0510
  919POPC   GL213310  12.024   2.476   6.819 -0.0638 -0.0996 -0.1052
  919POPC   C1A13311  12.396   2.576   7.180  0.0717  0.0173 -0.0346
  919POPC   D2A13312  12.257   2.393   7.551  0.0822 -0.1038 -0.0053
  919POPC   C3A13313  12.553   2.485   8.000 -0.1973 -0.3106  0.2378
  919POPC   C4A13314  12.974   2.763   8.189 -0.1341  0.0239 -0.0882
  919POPC   C1B13315  11.874   2.374   7.185 -0.0169  0.0439 -0.2939
  919POPC   C2B13316  11.678   2.282   7.639 -0.0695 -0.1855 -0.2473
  919POPC   C3B13317  11.586   2.511   7.998 -0.0215 -0.3437  0.1522
  919POPC   C4B13318  11.840   2.657   8.379  0.0117 -0.0938  0.0656
  920POPC   NC313319   5.962   4.045   5.728 -0.0683 -0.0377  0.3742
  920POPC   PO413320   5.802   3.650   5.962 -0.0884  0.3540  0.0478
  920POPC   GL113321   5.828   3.467   6.317 -0.2233  0.1743 -0.0664
  920POPC   GL213322   5.668   3.255   6.294  0.1623  0.1747  0.1543
  920POPC   C1A13323   5.787   3.520   6.723  0.1524 -0.0496 -0.2253
  920POPC   D2A13324   5.864   3.401   7.226  0.0944  0.3246 -0.0257
  920POPC   C3A13325   5.854   3.415   7.591  0.1454 -0.0502 -0.2222
  920POPC   C4A13326   5.727   3.752   7.920  0.0122  0.1668 -0.0116
  920POPC   C1B13327   5.559   3.044   6.691  0.2891  0.0172 -0.2381
  920POPC   C2B13328   5.521   2.958   7.231 -0.0437  0.3368  0.1162
  920POPC   C3B13329   5.388   2.731   7.509 -0.0553 -0.1825 -0.2072
  920POPC   C4B13330   5.536   2.683   7.885  0.1393 -0.2726  0.1480
  921POPC   NC313331  17.395   9.057   4.749  0.1811  0.0215  0.0193
  921POPC   PO413332  17.028   9.090   5.016 -0.2289  0.0335 -0.1912
  921POPC   GL113333  17.192   9.053   5.399 -0.1488 -0.1452  0.2037
  921POPC   GL213334  17.319   9.271   5.604 -0.3995 -0.0112  0.1941
  921POPC   C1A13335  17.131   8.810   5.679 -0.0849  0.5380  0.3596
  921POPC   D2A13336  17.312   8.593   5.944  0.1121 -0.0982  0.1095
  921POPC   C3A13337  17.413   8.409   6.375 -0.1488  0.2053 -0.0982
  921POPC   C4A13338  17.281   8.089   6.570  0.0533  0.0254 -0.1621
  921POPC   C1B13339  16.975   9.232   5.909  0.1690  0.2726  0.1305
  921POPC   C2B13340  16.572   8.880   5.959  0.0536 -0.3471 -0.0666
  921POPC   C3B13341  16.653   8.471   5.925 -0.2442 -0.1100  0.1115
  921POPC   C4B13342  16.935   8.205   5.892  0.1872  0.0001  0.1962
  922YOPC   NC313343   9.093   1.943   6.309  0.1192  0.2136  0.0388
  922YOPC   PO413344   9.081   2.264   6.034  0.0419  0.3354 -0.2082
  922YOPC   GL113345   9.365   2.501   6.375 -0.1120  0.1015  0.4040
  922YOPC   GL213346   9.654   2.426   6.551  0.0180  0.2564  0.0419
  922YOPC   C1A13347   9.316   2.794   6.708  0.0606  0.3202  0.1675
  922YOPC   D2A13348   9.297   2.795   7.207  0.1878 -0.1783  0.0919
  922YOPC   C3A13349   9.278   2.751   7.664 -0.0865  0.2361  0.2180
  922YOPC   C4A13350   9.604   2.627   7.940  0.1528 -0.1005 -0.2008
  922YOPC   C1B13351   9.706   2.436   6.943  0.0864  0.3674 -0.1811
  922YOPC   C2B13352   9.632   2.429   7.437  0.0599  0.1218  0.3418
  922YOPC   D3B13353   9.607   2.102   7.768 -0.1219 -0.0725  0.2600
  922YOPC   C4B13354   9.339   2.163   8.081 -0.1474 -0.2970 -0.3989
  923YOPC   NC313355   9.641  18.326   6.062  0.0165 -0.5319  0.1532
  923YOPC   PO413356   9.703  18.752   6.069  0.1014  0.0106 -0.3028
  923YOPC   GL113357   9.662  18.858   6.576 -0.1170  0.1797 -0.1677
  923YOPC   GL213358   9.868  19.101   6.737 -0.1994  0.3257 -0.0751
  923YOPC   C1A13359   9.495  18.670   6.919 -0.0361 -0.0765 -0.0148
  923YOPC   D2A13360   9.336  18.266   7.038 -0.0951 -0.0852  0.0944
  923YOPC   C3A13361   9.051  18.439   7.427 -0.1028 -0.1453  0.2877
  923YOPC   C4A13362   8.729  18.614   7.571  0.1828  0.0599  0.3147
  923YOPC   C1B13363   9.917  18.715   7.114  0.0368 -0.3332 -0.0173
  923YOPC   C2B13364  10.185  18.483   7.399  0.2428 -0.1378 -0.1305
  923YOPC   D3B13365  10.633  18.554   7.426  0.1039  0.0469  0.0359
  923YOPC   C4B13366  10.914  18.878   7.531 -0.2511  0.0426 -0.3418
  924YOPC   NC313367   8.269   0.886   5.854 -0.1949  0.2400 -0.5235
  924YOPC   PO413368   8.093   0.557   5.893  0.0207  0.1444  0.1507
  924YOPC   GL113369   8.278   0.546   6.227 -0.0726 -0.1490  0.0706
  924YOPC   GL213370   8.074   0.366   6.401  0.0940 -0.0123  0.0552
  924YOPC   C1A13371   8.559   0.766   6.474 -0.3191 -0.1263  0.3135
  924YOPC   D2A13372   8.448   1.186   6.672  0.0474  0.2314  0.0203
  924YOPC   C3A13373   8.300   1.038   7.110  0.3008 -0.2517 -0.2114
  924YOPC   C4A13374   8.577   0.803   6.976  0.0645  0.1974 -0.0308
  924YOPC   C1B13375   8.006   0.678   6.748 -0.0240 -0.3236  0.3713
  924YOPC   C2B13376   7.849   0.854   7.175  0.1920  0.1873  0.0965
  924YOPC   D3B13377   7.890   1.001   7.543 -0.0211  0.0622  0.1235
  924YOPC   C4B13378   7.853   1.319   7.835  0.4090 -0.0709  0.0958
  925YOPC   NC313379  12.408  14.165   5.410  0.1739 -0.2205 -0.3762
  925YOPC   PO413380  12.611  13.957   5.738  0.2246  0.0667 -0.0734
  925YOPC   GL113381  12.451  13.719   6.137  0.1746 -0.3237  0.2740
  925YOPC   GL213382  12.689  13.565   6.356 -0.0117  0.1251  0.0381
  925YOPC   C1A13383  12.191  13.709   6.477  0.1779 -0.2068 -0.0356
  925YOPC   D2A13384  12.239  14.028   6.746  0.0924 -0.0370  0.1189
  925YOPC   C3A13385  11.979  14.189   7.042  0.3327 -0.4346 -0.0377
  925YOPC   C4A13386  11.626  14.272   7.203  0.1131 -0.1088  0.2051
  925YOPC   C1B13387  12.764  13.725   6.731  0.1787 -0.2033 -0.0763
  925YOPC   C2B13388  12.587  14.023   7.097  0.0982 -0.0933 -0.0836
  925YOPC   D3B13389  12.315  13.859   7.331  0.0538  0.1706  0.1695
  925YOPC   C4B13390  11.966  13.862   7.555  0.1244  0.3614 -0.0671
  926YOPC   NC313391  13.982  12.367   5.520  0.0546 -0.2084  0.0500
  926YOPC   PO413392  14.034  11.954   5.377  0.1092 -0.0359  0.0494
  926YOPC   GL113393  14.126  11.878   5.727  0.2426  0.1688 -0.1295
  926YOPC   GL213394  13.974  12.075   5.939  0.0719  0.0909 -0.3103
  926YOPC   C1A13395  14.273  11.545   5.998  0.0484 -0.3636  0.0482
  926YOPC   D2A13396  14.051  11.225   6.227 -0.2051 -0.2296 -0.0073
  926YOPC   C3A13397  14.075  10.745   6.144 -0.0167 -0.1517 -0.4268
  926YOPC   C4A13398  14.554  10.544   6.122 -0.0300  0.1535 -0.0011
  926YOPC   C1B13399  14.026  12.114   6.298  0.1394  0.5146 -0.0774
  926YOPC   C2B13400  13.850  12.190   6.677  0.1703  0.0007 -0.4287
  926YOPC   D3B13401  14.034  12.229   6.994 -0.0296  0.2029 -0.1289
  926YOPC   C4B13402  14.446  12.237   7.222 -0.4474 -0.0440  0.0492
  927YOPC   NC313403  18.192  18.441   5.633 -0.2280 -0.0618 -0.0780
  927YOPC   PO413404  18.523  18.805   5.815 -0.0338  0.1654  0.1079
  927YOPC   GL113405  18.822  18.747   6.150  0.3050  0.1217  0.0717
  927YOPC   GL213406  18.537  18.644   6.393  0.0701  0.0514 -0.1253
  927YOPC   C1A13407  19.299  18.742   6.197  0.1397  0.0521  0.1128
  927YOPC   D2A13408  19.548  19.004   6.212  0.3544 -0.1057 -0.1229
  927YOPC   C3A13409  20.056  19.045   6.341 -0.1037 -0.0833  0.3008
  927YOPC   C4A13410  20.399  19.375   6.364 -0.1036  0.3750 -0.3900
  927YOPC   C1B13411  18.539  18.268   6.530  0.1135 -0.0289 -0.0832
  927YOPC   C2B13412  18.769  18.126   6.792  0.1394 -0.0232  0.0995
  927YOPC   D3B13413  18.649  18.032   7.184 -0.0593 -0.0625 -0.3922
  927YOPC   C4B13414  18.550  17.760   7.471 -0.1067 -0.0114 -0.1654
  928YOPC   NC313415  10.323  10.642   5.466 -0.2455 -0.0528  0.2322
  928YOPC   PO413416  10.760  10.512   5.630  0.1717  0.2109  0.1383
  928YOPC   GL113417  10.914  10.778   5.844 -0.2313  0.0975  0.0403
  928YOPC   GL213418  11.063  11.068   5.777  0.5375  0.0974  0.1204
  928YOPC   C1A13419  10.881  10.876   6.229  0.1029  0.0871 -0.1545
  928YOPC   D2A13420  10.883  11.074   6.631 -0.2919 -0.1157  0.0732
  928YOPC   C3A13421  10.974  10.889   7.066 -0.2277 -0.0057  0.2627
  928YOPC   C4A13422  11.071  10.869   7.460  0.0722 -0.2338  0.1033
  928YOPC   C1B13423  10.928  11.339   6.041  0.0809  0.4085  0.2712
  928YOPC   C2B13424  10.891  11.582   6.343 -0.1548  0.3976  0.0595
  928YOPC   D3B13425  10.523  11.837   6.208  0.0812 -0.2004 -0.1720
  928YOPC   C4B13426  10.488  12.156   6.001 -0.0774 -0.0979 -0.2176
  929YOPC   NC313427   7.597   7.680   5.691  0.0380 -0.4070  0.0943
  929YOPC   PO413428   7.490   7.518   6.192 -0.0837 -0.2985 -0.0851
  929YOPC   GL113429   7.400   7.410   6.655  0.0040  0.0523  0.1201
  929YOPC   GL213430   7.226   6.979   6.653 -0.1737 -0.1281  0.1690
  929YOPC   C1A13431   7.379   7.415   6.994 -0.0219 -0.0813 -0.0681
  929YOPC   D2A13432   7.476   7.260   7.419 -0.1511  0.0010 -0.4704
  929YOPC   C3A13433   7.564   7.513   7.711  0.3306  0.2095 -0.1015
  929YOPC   C4A13434   7.582   7.850   7.778 -0.0264 -0.0274 -0.0867
  929YOPC   C1B13435   7.119   6.931   7.139 -0.0069 -0.0934 -0.0825
  929YOPC   C2B13436   6.999   6.929   7.510  0.2866  0.1618  0.0267
  929YOPC   D3B13437   7.277   7.030   7.827 -0.0864 -0.2588  0.1917
  929YOPC   C4B13438   7.295   7.307   8.078  0.2720 -0.1701 -0.1405
  930YOPC   NC313439   2.894   9.358   5.207 -0.3271  0.2258  0.1717
  930YOPC   PO413440   3.122   8.938   5.397  0.0641  0.2463  0.1027
  930YOPC   GL113441   3.361   8.948   5.704  0.0406  0.1257 -0.0681
  930YOPC   GL213442   3.500   9.240   5.868 -0.0534 -0.0800  0.0548
  930YOPC   C1A13443   3.451   8.741   5.992 -0.0693  0.4004  0.0505
  930YOPC   D2A13444   3.139   8.473   6.285  0.2600 -0.2013 -0.2471
  930YOPC   C3A13445   3.032   8.475   6.695 -0.1238 -0.0399 -0.1087
  930YOPC   C4A13446   2.822   8.533   7.034 -0.0554  0.2437  0.1195
  930YOPC   C1B13447   3.727   9.180   6.116 -0.1985 -0.1075 -0.2329
  930YOPC   C2B13448   3.830   9.399   6.389  0.0078  0.1114  0.0004
  930YOPC   D3B13449   3.919   9.261   6.774  0.1450 -0.0988 -0.2337
  930YOPC   C4B13450   4.260   9.218   7.170 -0.1458  0.0436 -0.2097
  931YOPC   NC313451  11.398  16.869   5.457  0.2992 -0.1795 -0.1224
  931YOPC   PO413452  11.832  16.763   5.726  0.1235  0.1633  0.1328
  931YOPC   GL113453  11.996  16.798   6.108 -0.1761 -0.2383  0.0180
  931YOPC   GL213454  11.862  17.045   6.273 -0.2350  0.0547  0.1514
  931YOPC   C1A13455  12.430  16.912   6.299 -0.0880 -0.4981 -0.0631
  931YOPC   D2A13456  12.892  17.125   6.551  0.2214 -0.1421 -0.1220
  931YOPC   C3A13457  13.039  16.625   6.608  0.3273  0.1229 -0.1463
  931YOPC   C4A13458  13.343  16.439   6.435  0.0063 -0.0661  0.0822
  931YOPC   C1B13459  11.976  16.890   6.657 -0.0716  0.0233 -0.2652
  931YOPC   C2B13460  12.137  16.738   7.042  0.2196  0.0253 -0.0899
  931YOPC   D3B13461  12.031  16.844   7.387 -0.0582  0.4473 -0.0939
  931YOPC   C4B13462  11.970  17.146   7.717 -0.1902  0.0629 -0.0290
  932YOPC   NC313463  10.495  17.955   6.073  0.0793  0.0139 -0.1734
  932YOPC   PO413464  10.834  17.814   6.337 -0.1393 -0.4647 -0.2750
  932YOPC   GL113465  10.897  17.957   6.716 -0.0723  0.1150  0.2140
  932YOPC   GL213466  11.283  18.128   6.672 -0.5770  0.3102  0.2187
  932YOPC   C1A13467  10.692  18.037   7.154 -0.0372 -0.2616 -0.2231
  932YOPC   D2A13468  10.816  18.068   7.603 -0.0356  0.0190 -0.2577
  932YOPC   C3A13469  11.209  18.055   7.762 -0.2368  0.1826  0.0693
  932YOPC   C4A13470  11.633  18.059   7.821 -0.1943 -0.0462 -0.0212
  932YOPC   C1B13471  11.320  17.928   7.022 -0.0804  0.0735  0.0039
  932YOPC   C2B13472  11.279  17.779   7.341  0.1008 -0.0061 -0.1500
  932YOPC   D3B13473  11.059  17.600   7.742  0.1433 -0.1564  0.2074
  932YOPC   C4B13474  10.932  17.386   8.058  0.0155  0.2582 -0.1194
  933YOPC   NC313475  14.319   8.377   5.580 -0.0710  0.0121  0.2241
  933YOPC   PO413476  13.999   8.101   5.478 -0.0630 -0.0093  0.0428
  933YOPC   GL113477  13.787   7.999   5.889  0.1698 -0.1556 -0.0227
  933YOPC   GL213478  13.570   8.220   6.053  0.0593  0.1533  0.0714
  933YOPC   C1A13479  13.483   7.840   6.313 -0.1668  0.3757 -0.2767
  933YOPC   D2A13480  13.605   7.691   6.702  0.2108  0.1522 -0.1256
  933YOPC   C3A13481  13.963   7.472   6.682 -0.1008 -0.0878  0.2695
  933YOPC   C4A13482  14.139   7.133   6.862  0.1071 -0.0970  0.0666
  933YOPC   C1B13483  13.765   8.338   6.384 -0.1730  0.0319  0.2927
  933YOPC   C2B13484  13.866   8.429   6.805  0.0428  0.0386  0.3231
  933YOPC   D3B13485  13.758   8.022   7.051  0.2288 -0.4980  0.3398
  933YOPC   C4B13486  13.480   7.885   7.165 -0.0130  0.1681 -0.1947
  934YOPC   NC313487  13.656   0.475   6.114  0.1778 -0.0353 -0.1588
  934YOPC   PO413488  13.407   0.975   6.068 -0.2733 -0.1136 -0.0432
  934YOPC   GL113489  13.259   1.028   6.468  0.1399  0.0840  0.3843
  934YOPC   GL213490  13.242   0.766   6.627 -0.2169 -0.2959 -0.0775
  934YOPC   C1A13491  13.459   1.133   6.915  0.0257 -0.1251  0.2237
  934YOPC   D2A13492  13.520   1.336   7.221  0.2151 -0.2410  0.0515
  934YOPC   C3A13493  13.348   1.279   7.607 -0.2746 -0.1582  0.2638
  934YOPC   C4A13494  13.199   0.971   7.685  0.1727  0.0473 -0.0015
  934YOPC   C1B13495  13.182   0.771   7.090  0.1298  0.1885  0.1603
  934YOPC   C2B13496  13.171   0.561   7.408  0.2325  0.0445 -0.0103
  934YOPC   D3B13497  12.848   0.218   7.401  0.1842 -0.3047 -0.0224
  934YOPC   C4B13498  12.849  -0.053   7.184  0.1846 -0.2878  0.3027
  935YOPC   NC313499   0.343   2.209   5.979 -0.2184  0.1181 -0.3292
  935YOPC   PO413500   0.747   2.447   5.904 -0.1438  0.0073  0.2315
  935YOPC   GL113501   0.870   2.513   6.428  0.1024 -0.0187  0.2151
  935YOPC   GL213502   1.170   2.242   6.585  0.1846 -0.2274  0.2111
  935YOPC   C1A13503   0.531   2.362   6.831 -0.0516  0.0130  0.0087
  935YOPC   D2A13504   0.331   2.469   7.366  0.1174 -0.0862  0.1272
  935YOPC   C3A13505   0.593   2.633   7.721  0.1271  0.0519  0.3317
  935YOPC   C4A13506   0.813   2.503   8.085 -0.4090  0.0461 -0.1149
  935YOPC   C1B13507   1.435   2.244   6.928 -0.1488 -0.1210  0.2031
  935YOPC   C2B13508   1.816   2.269   7.291 -0.1552 -0.4327  0.1164
  935YOPC   D3B13509   1.695   2.220   7.649 -0.0964 -0.0654 -0.1512
  935YOPC   C4B13510   1.781   2.176   8.138 -0.1269 -0.2487 -0.3316
  936YOPC   NC313511   4.248   3.007   5.421 -0.2364 -0.4081  0.0391
  936YOPC   PO413512   3.869   3.046   5.698 -0.0408 -0.0322 -0.1578
  936YOPC   GL113513   3.831   3.064   6.208  0.0717  0.2346 -0.1355
  936YOPC   GL213514   4.056   3.236   6.434  0.1112 -0.0825  0.0322
  936YOPC   C1A13515   3.748   2.760   6.513 -0.1196 -0.0959  0.0514
  936YOPC   D2A13516   3.723   2.359   6.461 -0.1646  0.1179  0.0192
  936YOPC   C3A13517   4.130   2.298   6.258 -0.0220  0.0319 -0.0115
  936YOPC   C4A13518   4.469   2.396   6.464 -0.1777 -0.0557  0.1073
  936YOPC   C1B13519   4.082   3.035   6.874 -0.2491  0.0644  0.1518
  936YOPC   C2B13520   4.007   2.845   7.295  0.0765  0.0841  0.1725
  936YOPC   D3B13521   4.065   3.001   7.679  0.0434  0.0117  0.0656
  936YOPC   C4B13522   3.823   3.090   7.959  0.0027 -0.0941 -0.1181
  937YOPC   NC313523  11.615  11.569   5.191  0.0118 -0.3774 -0.1885
  937YOPC   PO413524  11.981  11.810   5.247 -0.1269  0.1003  0.1581
  937YOPC   GL113525  12.035  12.032   5.672 -0.1488 -0.1360  0.0795
  937YOPC   GL213526  11.902  12.310   5.887 -0.1635  0.3545 -0.1624
  937YOPC   C1A13527  12.244  12.028   6.154 -0.0551  0.4187  0.3013
  937YOPC   D2A13528  12.395  11.928   6.608 -0.1556 -0.2571 -0.0609
  937YOPC   C3A13529  12.262  12.056   6.967  0.2997 -0.2289 -0.1096
  937YOPC   C4A13530  12.090  11.901   7.362  0.1756 -0.0305  0.1079
  937YOPC   C1B13531  11.916  12.422   6.303 -0.1831 -0.2049 -0.2533
  937YOPC   C2B13532  11.914  12.100   6.576 -0.2822  0.2685  0.0666
  937YOPC   D3B13533  11.704  12.186   7.023  0.0062 -0.0831  0.1231
  937YOPC   C4B13534  11.628  12.327   7.414  0.1054  0.3929  0.2494
  938YOPC   NC313535   1.433  12.507   5.626 -0.0901  0.0283 -0.1438
  938YOPC   PO413536   1.670  12.789   5.448  0.0443 -0.0838  0.2792
  938YOPC   GL113537   1.857  12.702   5.893  0.3825  0.0589  0.3983
  938YOPC   GL213538   2.056  12.848   6.003  0.0809  0.2603  0.0558
  938YOPC   C1A13539   2.029  12.530   6.360  0.1121  0.3199  0.2155
  938YOPC   D2A13540   1.866  12.328   6.723  0.1910  0.1700  0.1137
  938YOPC   C3A13541   1.973  12.246   7.214 -0.3049  0.2220 -0.3857
  938YOPC   C4A13542   2.014  12.018   7.596 -0.0178 -0.1355 -0.1103
  938YOPC   C1B13543   1.918  13.208   6.246  0.0256 -0.2979  0.3163
  938YOPC   C2B13544   1.725  13.248   6.665  0.2007  0.3651 -0.3939
  938YOPC   D3B13545   1.934  13.283   7.004  0.1296  0.1565  0.2470
  938YOPC   C4B13546   1.870  13.261   7.378 -0.0049  0.1323  0.0313
  939YOPC   NC313547  17.076   7.649   5.147  0.0689  0.3394 -0.2770
  939YOPC   PO413548  17.398   7.724   4.856 -0.0975  0.0425 -0.3492
  939YOPC   GL113549  17.574   7.816   5.281 -0.2025 -0.2431  0.1400
  939YOPC   GL213550  17.322   7.832   5.540 -0.1380  0.0977 -0.0051
  939YOPC   C1A13551  17.781   8.068   5.598 -0.0635 -0.0997  0.0995
  939YOPC   D2A13552  17.958   8.045   6.013 -0.2153  0.0364  0.0607
  939YOPC   C3A13553  18.115   7.893   6.460 -0.0230  0.3908  0.1189
  939YOPC   C4A13554  18.371   7.738   6.750  0.2570  0.1823 -0.1581
  939YOPC   C1B13555  17.427   7.983   5.994  0.0994  0.1255  0.2407
  939YOPC   C2B13556  17.588   7.862   6.307  0.3207 -0.1577  0.1854
  939YOPC   D3B13557  17.776   8.217   6.563 -0.1202  0.3147  0.1731
  939YOPC   C4B13558  17.592   8.458   6.855 -0.2687  0.1379  0.1841
  940YOPC   NC313559   7.089   9.074   5.585  0.2238  0.0739 -0.2048
  940YOPC   PO413560   6.592   9.102   5.796  0.0289  0.1204 -0.1182
  940YOPC   GL113561   6.532   9.362   6.094 -0.0069 -0.1788  0.0054
  940YOPC   GL213562   6.379   9.653   6.066  0.2498 -0.0958  0.0526
  940YOPC   C1A13563   6.319   9.455   6.506  0.2944  0.0007  0.0762
  940YOPC   D2A13564   6.081   9.737   6.727  0.0174  0.1190  0.1331
  940YOPC   C3A13565   5.959  10.098   6.785  0.0806 -0.0250  0.2452
  940YOPC   C4A13566   5.768  10.129   6.362  0.1420  0.2544 -0.0816
  940YOPC   C1B13567   5.915   9.642   6.240  0.0151  0.1523 -0.0664
  940YOPC   C2B13568   5.559   9.676   6.534  0.2069 -0.0859 -0.0243
  940YOPC   D3B13569   5.621   9.693   6.952  0.0229  0.4123  0.1781
  940YOPC   C4B13570   5.781   9.844   7.370  0.1342  0.0388 -0.1462
  941YOPC   NC313571   8.407  12.198   5.211  0.0374  0.1201 -0.1828
  941YOPC   PO413572   8.363  11.809   5.355 -0.1250 -0.0444  0.0875
  941YOPC   GL113573   8.223  12.005   5.706  0.0672  0.0654  0.0148
  941YOPC   GL213574   8.205  12.369   5.621 -0.2376  0.1252 -0.1531
  941YOPC   C1A13575   7.772  12.033   5.858  0.2359  0.0901 -0.0651
  941YOPC   D2A13576   7.500  11.820   6.154  0.1305  0.0354 -0.0027
  941YOPC   C3A13577   7.368  12.076   6.544 -0.2110  0.1539 -0.2909
  941YOPC   C4A13578   7.231  12.389   6.970 -0.2403  0.0823  0.0799
  941YOPC   C1B13579   8.023  12.409   6.036  0.0372  0.1053  0.1103
  941YOPC   C2B13580   7.883  12.170   6.428 -0.1801  0.1468  0.2432
  941YOPC   D3B13581   7.982  11.774   6.344 -0.0232  0.2684 -0.0582
  941YOPC   C4B13582   8.316  11.612   6.136 -0.0872 -0.4878 -0.0347
  942YOPC   NC313583  16.078   4.546   5.979 -0.0359 -0.1884  0.0865
  942YOPC   PO413584  16.529   4.542   5.723  0.1762 -0.4356  0.1440
  942YOPC   GL113585  16.641   4.528   6.148  0.4531  0.0068 -0.1563
  942YOPC   GL213586  16.440   4.477   6.385 -0.0376 -0.1928 -0.1417
  942YOPC   C1A13587  16.892   4.403   6.591 -0.3654  0.3001  0.0642
  942YOPC   D2A13588  16.924   4.320   6.964  0.0131  0.0951  0.1185
  942YOPC   C3A13589  17.234   4.527   7.340 -0.1057  0.2209  0.0019
  942YOPC   C4A13590  17.611   4.373   7.562  0.0730 -0.1257  0.1780
  942YOPC   C1B13591  16.371   4.329   6.845 -0.1003 -0.1850 -0.0995
  942YOPC   C2B13592  16.476   4.378   7.172  0.3937  0.1565 -0.1270
  942YOPC   D3B13593  16.772   4.215   7.434  0.1019 -0.1236 -0.2640
  942YOPC   C4B13594  16.788   4.012   7.840  0.5293 -0.0984 -0.3376
  943YOPC   NC313595  15.853   8.557   5.390  0.1337  0.1509  0.0248
  943YOPC   PO413596  15.712   8.272   5.578  0.2996 -0.1799 -0.0533
  943YOPC   GL113597  15.767   8.431   5.949  0.1081 -0.3004 -0.1756
  943YOPC   GL213598  15.594   8.582   6.061  0.1247  0.3429 -0.1291
  943YOPC   C1A13599  15.829   8.257   6.375 -0.1276 -0.1110 -0.3716
  943YOPC   D2A13600  15.956   8.382   6.814 -0.1523  0.0248  0.3101
  943YOPC   C3A13601  15.850   8.265   7.161  0.1150  0.1000  0.0202
  943YOPC   C4A13602  15.649   8.406   7.401 -0.4936 -0.0194 -0.2227
  943YOPC   C1B13603  15.474   8.719   6.435 -0.1243 -0.1300 -0.0776
  943YOPC   C2B13604  15.370   8.639   6.893  0.0640 -0.1348  0.1084
  943YOPC   D3B13605  15.611   8.922   7.212 -0.0885  0.1222 -0.0430
  943YOPC   C4B13606  15.922   8.770   7.534 -0.0329 -0.2868  0.1625
  944YOPC   NC313607   1.968   8.857   5.661 -0.3053  0.1581 -0.2443
  944YOPC   PO413608   1.994   8.458   5.469  0.2317 -0.0042  0.1298
  944YOPC   GL113609   2.033   8.408   5.895 -0.2122 -0.0965 -0.1362
  944YOPC   GL213610   1.673   8.255   6.049 -0.0098 -0.0118  0.4856
  944YOPC   C1A13611   2.085   8.615   6.321 -0.0449 -0.3428 -0.2331
  944YOPC   D2A13612   1.970   8.615   6.733  0.1015  0.1151  0.0245
  944YOPC   C3A13613   2.140   8.462   7.019  0.0142  0.2580  0.3096
  944YOPC   C4A13614   2.301   8.108   7.316  0.0214 -0.2578 -0.1870
  944YOPC   C1B13615   1.731   8.273   6.496 -0.1725  0.1845  0.0669
  944YOPC   C2B13616   1.634   8.254   6.960  0.2596  0.1423 -0.0346
  944YOPC   D3B13617   1.666   8.527   7.300 -0.0625 -0.2158 -0.1706
  944YOPC   C4B13618   1.690   8.549   7.786  0.0338  0.2972 -0.2963
  945YOPC   NC313619  11.966  13.116   5.460  0.0169  0.0166  0.5606
  945YOPC   PO413620  11.852  13.455   5.632 -0.1625  0.0570  0.2606
  945YOPC   GL113621  11.646  13.383   5.861  0.1872 -0.1230  0.2871
  945YOPC   GL213622  11.360  13.369   5.825 -0.1089 -0.4080  0.0340
  945YOPC   C1A13623  11.677  13.294   6.260  0.0454 -0.1483 -0.1630
  945YOPC   D2A13624  11.675  13.632   6.666  0.0457  0.1957 -0.0765
  945YOPC   C3A13625  11.963  13.620   6.940  0.2366  0.2576  0.1718
  945YOPC   C4A13626  12.318  13.468   6.882 -0.3047  0.1670  0.2798
  945YOPC   C1B13627  11.252  13.513   6.236 -0.2665  0.1242  0.1529
  945YOPC   C2B13628  10.874  13.655   6.434 -0.1825 -0.1855  0.0087
  945YOPC   D3B13629  10.751  13.986   6.832 -0.2277 -0.0599  0.1831
  945YOPC   C4B13630  10.559  14.208   7.199  0.1153  0.0360  0.0802
  946YOPC   NC313631   9.038   5.127   5.923 -0.1418  0.1741  0.0820
  946YOPC   PO413632   9.342   5.421   6.081  0.2342 -0.2480 -0.3310
  946YOPC   GL113633   9.483   5.300   6.555  0.2756  0.0334  0.3573
  946YOPC   GL213634   9.173   5.139   6.590 -0.4794  0.4604  0.0451
  946YOPC   C1A13635   9.805   5.235   6.892 -0.3092 -0.3528 -0.0261
  946YOPC   D2A13636   9.941   5.053   7.343  0.0963 -0.0564  0.0594
  946YOPC   C3A13637   9.745   5.095   7.607  0.2417 -0.1618  0.2863
  946YOPC   C4A13638   9.641   5.273   7.996 -0.0937 -0.2609  0.0607
  946YOPC   C1B13639   9.119   5.186   6.972 -0.2287 -0.1331 -0.1600
  946YOPC   C2B13640   9.058   5.208   7.455  0.1939 -0.1098  0.0457
  946YOPC   D3B13641   8.731   5.447   7.695 -0.2227 -0.1223 -0.5427
  946YOPC   C4B13642   8.369   5.406   7.799 -0.1543 -0.1557  0.1675
  947YOPC   NC313643  10.958  15.189   5.249 -0.0972 -0.0876 -0.2934
  947YOPC   PO413644  11.032  15.252   5.628 -0.0883 -0.2393 -0.1661
  947YOPC   GL113645  10.895  15.268   5.975  0.0502 -0.2396 -0.2527
  947YOPC   GL213646  11.040  15.470   6.175  0.0819  0.1245  0.2932
  947YOPC   C1A13647  10.597  15.151   6.344  0.1078 -0.3026 -0.0020
  947YOPC   D2A13648  10.540  15.022   6.751  0.0720 -0.5039  0.0819
  947YOPC   C3A13649  10.364  15.180   7.104 -0.0024 -0.1415 -0.0100
  947YOPC   C4A13650  10.353  15.553   7.532  0.2418 -0.1940  0.0461
  947YOPC   C1B13651  11.062  15.143   6.453  0.3402  0.2715 -0.0795
  947YOPC   C2B13652  11.128  15.063   6.866  0.1034 -0.0306 -0.1671
  947YOPC   D3B13653  10.858  14.852   7.129  0.1440  0.0426  0.1639
  947YOPC   C4B13654  10.593  14.727   7.467  0.3254  0.0792  0.0307
  948YOPC   NC313655   4.320   9.339   5.056 -0.0372 -0.1622 -0.0928
  948YOPC   PO413656   3.839   9.596   5.214  0.0979  0.1793 -0.2286
  948YOPC   GL113657   3.729   9.949   5.509 -0.2167  0.0089 -0.0450
  948YOPC   GL213658   3.872  10.192   5.517  0.0254 -0.0581 -0.0127
  948YOPC   C1A13659   3.388  10.297   5.527  0.0758  0.1661  0.1713
  948YOPC   D2A13660   3.141  10.606   5.598  0.1219  0.0905  0.2547
  948YOPC   C3A13661   3.122  10.906   5.843  0.1163 -0.1712 -0.0043
  948YOPC   C4A13662   3.305  11.086   6.117  0.1882  0.1248 -0.1312
  948YOPC   C1B13663   3.805  10.261   5.971  0.1999 -0.0898 -0.2880
  948YOPC   C2B13664   3.766  10.325   6.491  0.1717 -0.0320 -0.0322
  948YOPC   D3B13665   3.489  10.289   6.791 -0.1639 -0.0421  0.1156
  948YOPC   C4B13666   3.029  10.325   6.918  0.2338 -0.0238 -0.2372
  949YOPC   NC313667  14.965   0.873   6.270  0.2363 -0.2703 -0.0963
  949YOPC   PO413668  15.184   1.261   6.355 -0.2381 -0.1452 -0.1799
  949YOPC   GL113669  14.907   1.481   6.737 -0.0148 -0.0164 -0.2797
  949YOPC   GL213670  14.580   1.514   6.797 -0.0261 -0.1375  0.2642
  949YOPC   C1A13671  14.905   1.619   7.135  0.2463 -0.0382 -0.0615
  949YOPC   D2A13672  14.683   1.688   7.491 -0.0368 -0.0399  0.1278
  949YOPC   C3A13673  14.773   1.907   7.789 -0.0678 -0.2349 -0.1029
  949YOPC   C4A13674  14.824   2.244   7.998 -0.1671  0.0495  0.1128
  949YOPC   C1B13675  14.124   1.367   6.961 -0.0993  0.3412 -0.0727
  949YOPC   C2B13676  13.915   1.162   7.372  0.0555 -0.1906  0.1984
  949YOPC   D3B13677  13.822   1.444   7.724  0.0415  0.0233  0.1592
  949YOPC   C4B13678  13.651   1.545   8.133 -0.0204  0.1212 -0.2411
  950YOPC   NC313679  16.439   2.135   5.931  0.1647  0.1249 -0.4771
  950YOPC   PO413680  16.846   2.438   5.885  0.0109 -0.0023 -0.0979
  950YOPC   GL113681  16.646   2.396   6.302 -0.1373  0.3402  0.1009
  950YOPC   GL213682  16.871   2.163   6.363  0.3171 -0.3452  0.4278
  950YOPC   C1A13683  16.239   2.261   6.581  0.0746 -0.0586  0.2627
  950YOPC   D2A13684  16.001   2.400   6.807 -0.0521  0.1680  0.2023
  950YOPC   C3A13685  15.733   2.133   7.078 -0.1167 -0.2864 -0.0208
  950YOPC   C4A13686  15.646   1.968   7.529 -0.1367 -0.0279  0.1875
  950YOPC   C1B13687  16.696   2.346   6.789 -0.2107  0.0449  0.0926
  950YOPC   C2B13688  16.716   2.233   7.218 -0.0673 -0.2036  0.1213
  950YOPC   D3B13689  16.453   1.994   7.506 -0.2037 -0.0704  0.1398
  950YOPC   C4B13690  16.123   1.897   7.748  0.2352 -0.1834 -0.1884
  951YOPC   NC313691  16.317   5.326   5.492 -0.3708  0.1559 -0.1751
  951YOPC   PO413692  16.112   4.944   5.635 -0.0914 -0.1445  0.1379
  951YOPC   GL113693  16.414   5.061   5.987  0.1433  0.2413 -0.1121
  951YOPC   GL213694  16.243   4.904   6.234 -0.1227 -0.3575  0.0184
  951YOPC   C1A13695  16.670   5.344   6.119 -0.1545  0.1462  0.1089
  951YOPC   D2A13696  16.735   5.407   6.602 -0.0560  0.1230 -0.1092
  951YOPC   C3A13697  16.597   5.317   7.003 -0.2795  0.0068 -0.1861
  951YOPC   C4A13698  16.634   5.294   7.466  0.0755 -0.1007  0.1055
  951YOPC   C1B13699  16.666   4.905   6.454  0.1114 -0.0585  0.3271
  951YOPC   C2B13700  16.722   4.768   6.922  0.0418 -0.0995 -0.0399
  951YOPC   D3B13701  16.761   4.754   7.393 -0.1844  0.3384  0.1193
  951YOPC   C4B13702  16.913   4.607   7.755  0.0535 -0.1914  0.0508
  952YOPC   NC313703   5.507  11.677   5.062  0.1269 -0.0985  0.3261
  952YOPC   PO413704   5.845  12.074   5.163  0.2616  0.2058  0.4872
  952YOPC   GL113705   5.557  11.935   5.491  0.2878 -0.1355  0.0534
  952YOPC   GL213706   5.538  11.949   5.817 -0.1804  0.1896 -0.0637
  952YOPC   C1A13707   5.123  11.977   5.592 -0.1079  0.2138  0.4721
  952YOPC   D2A13708   4.665  11.905   5.838  0.1371  0.1351 -0.0390
  952YOPC   C3A13709   4.686  12.070   6.210  0.2118  0.0118 -0.2074
  952YOPC   C4A13710   4.762  12.347   6.592  0.0459  0.0319 -0.1860
  952YOPC   C1B13711   5.183  12.023   6.061  0.0219  0.0711  0.2572
  952YOPC   C2B13712   5.142  12.050   6.531  0.1382  0.3865  0.2307
  952YOPC   D3B13713   4.924  11.734   6.970 -0.1129  0.1524  0.0915
  952YOPC   C4B13714   4.638  11.346   6.964  0.0109  0.0707  0.0867
  953YOPC   NC313715   2.694   7.940   5.465  0.1599 -0.3633 -0.2643
  953YOPC   PO413716   2.493   8.388   5.641  0.0847  0.1916 -0.2167
  953YOPC   GL113717   2.511   8.499   6.095 -0.1116  0.2351  0.2136
  953YOPC   GL213718   2.623   8.799   6.217 -0.0892 -0.0499 -0.1023
  953YOPC   C1A13719   2.457   8.608   6.614  0.0787  0.2787 -0.2241
  953YOPC   D2A13720   2.391   8.853   6.943 -0.1727 -0.3241 -0.1230
  953YOPC   C3A13721   2.532   8.756   7.338 -0.1679 -0.0554 -0.0474
  953YOPC   C4A13722   2.813   8.842   7.595 -0.2400  0.0925 -0.1392
  953YOPC   C1B13723   2.660   9.097   6.623 -0.0018 -0.1409  0.2219
  953YOPC   C2B13724   2.770   9.537   6.730  0.1812 -0.0504  0.1767
  953YOPC   D3B13725   3.117   9.792   6.930  0.1517 -0.0839 -0.3552
  953YOPC   C4B13726   3.236   9.938   7.239 -0.0250 -0.0383  0.0648
  954YOPC   NC313727  18.219   6.423   4.886  0.4491  0.2193  0.0658
  954YOPC   PO413728  18.100   6.131   5.213 -0.3178  0.1050 -0.0928
  954YOPC   GL113729  18.065   6.284   5.582  0.0446 -0.4608  0.2794
  954YOPC   GL213730  18.129   6.532   5.512 -0.0948  0.1758  0.1098
  954YOPC   C1A13731  18.158   6.215   5.973  0.0083 -0.1158 -0.0173
  954YOPC   D2A13732  18.237   6.428   6.345 -0.1650 -0.1617 -0.2534
  954YOPC   C3A13733  18.421   6.339   6.774  0.0245  0.1282  0.0027
  954YOPC   C4A13734  18.595   6.385   7.221  0.2420  0.3949  0.2129
  954YOPC   C1B13735  18.233   6.681   5.882  0.1650  0.0500 -0.0484
  954YOPC   C2B13736  18.440   6.930   6.091 -0.2294  0.1837 -0.0033
  954YOPC   D3B13737  18.308   6.878   6.519  0.0794 -0.2087 -0.1312
  954YOPC   C4B13738  18.307   6.780   6.992 -0.1171  0.0417 -0.1720
  955YOPC   NC313739   1.942  17.683   5.651  0.0954  0.1194 -0.0233
  955YOPC   PO413740   1.740  17.964   5.821 -0.2618  0.0719 -0.2858
  955YOPC   GL113741   1.780  17.855   6.154  0.1273  0.1584 -0.0589
  955YOPC   GL213742   1.904  18.123   6.272 -0.1288 -0.0287 -0.0955
  955YOPC   C1A13743   1.473  17.742   6.510 -0.2635 -0.2716  0.0465
  955YOPC   D2A13744   1.308  17.719   6.914  0.0607 -0.1340 -0.0149
  955YOPC   C3A13745   1.035  17.774   7.238  0.1702 -0.0099  0.1263
  955YOPC   C4A13746   0.885  17.545   7.648  0.5314 -0.0999 -0.0273
  955YOPC   C1B13747   1.851  18.030   6.672 -0.0837  0.1521 -0.1519
  955YOPC   C2B13748   1.740  17.993   7.145 -0.1656  0.1755  0.2182
  955YOPC   D3B13749   1.282  18.174   7.269 -0.2630 -0.3068 -0.1501
  955YOPC   C4B13750   0.880  18.430   7.275 -0.3526  0.0816  0.4341
  956YOPC   NC313751   4.663  18.656   5.602  0.0903  0.1148 -0.0154
  956YOPC   PO413752   4.435  18.307   5.646 -0.1994 -0.0076  0.3782
  956YOPC   GL113753   4.250  18.020   5.926 -0.0523  0.0456 -0.1480
  956YOPC   GL213754   4.388  17.701   5.846  0.0805  0.0464  0.2269
  956YOPC   C1A13755   3.974  17.818   6.151 -0.0171 -0.0987  0.1954
  956YOPC   D2A13756   3.735  17.541   6.443 -0.1605 -0.0013 -0.2644
  956YOPC   C3A13757   3.652  17.567   6.866 -0.2203 -0.0262 -0.2049
  956YOPC   C4A13758   3.638  17.463   7.286  0.1722  0.0690 -0.1607
  956YOPC   C1B13759   4.540  17.597   6.291  0.1212 -0.2294 -0.1547
  956YOPC   C2B13760   4.629  17.747   6.615  0.1061 -0.0842 -0.1968
  956YOPC   D3B13761   4.331  17.731   6.952  0.2160  0.0651 -0.0954
  956YOPC   C4B13762   4.178  17.487   7.282 -0.0373  0.3566 -0.0721
  957YOPC   NC313763   2.023   1.867   5.985 -0.2439  0.5844  0.1656
  957YOPC   PO413764   2.118   1.456   6.045  0.0738  0.1666  0.1286
  957YOPC   GL113765   2.050   1.494   6.487  0.3045 -0.0476 -0.0058
  957YOPC   GL213766   2.296   1.467   6.776 -0.2444 -0.0314 -0.1326
  957YOPC   C1A13767   1.802   1.241   6.706  0.4246  0.0733 -0.0570
  957YOPC   D2A13768   1.702   0.945   7.018 -0.0295  0.0056  0.1418
  957YOPC   C3A13769   1.637   0.955   7.379 -0.0121  0.0011  0.0979
  957YOPC   C4A13770   1.582   1.006   7.735 -0.0040 -0.1268  0.0744
  957YOPC   C1B13771   2.059   1.314   7.165  0.0973 -0.1196  0.0611
  957YOPC   C2B13772   1.940   1.291   7.507  0.1885  0.1964  0.0960
  957YOPC   D3B13773   2.038   0.903   7.669 -0.0674 -0.3582 -0.0308
  957YOPC   C4B13774   1.977   0.765   7.984 -0.1577  0.1215 -0.2838
  958YOPC   NC313775  14.929   7.940   5.078  0.0569 -0.1716  0.1820
  958YOPC   PO413776  14.769   8.282   5.242 -0.0042  0.2459 -0.1137
  958YOPC   GL113777  14.862   8.180   5.613  0.1999 -0.1174  0.1410
  958YOPC   GL213778  15.105   8.021   5.548 -0.0520 -0.0941  0.2788
  958YOPC   C1A13779  14.930   8.000   6.087  0.1039 -0.0099  0.0244
  958YOPC   D2A13780  14.783   7.912   6.417  0.2761 -0.0330  0.3578
  958YOPC   C3A13781  14.807   7.596   6.647  0.2090  0.0783 -0.0309
  958YOPC   C4A13782  14.452   7.507   6.785 -0.0133  0.0325  0.3179
  958YOPC   C1B13783  14.778   7.670   5.784  0.1110 -0.1431 -0.0763
  958YOPC   C2B13784  14.607   7.470   6.163  0.1493 -0.2253  0.2411
  958YOPC   D3B13785  14.238   7.417   6.159  0.1881 -0.2366  0.1861
  958YOPC   C4B13786  13.868   7.610   6.182 -0.3436  0.1669 -0.0012
  959YOPC   NC313787   8.587  17.327   5.490 -0.2990 -0.0609  0.0398
  959YOPC   PO413788   8.810  17.731   5.734  0.0946 -0.0041  0.2075
  959YOPC   GL113789   8.722  18.044   6.184 -0.3519  0.0665  0.2415
  959YOPC   GL213790   8.686  18.367   6.227 -0.0847 -0.1218  0.1076
  959YOPC   C1A13791   8.582  17.829   6.714  0.3255 -0.1107  0.3680
  959YOPC   D2A13792   8.484  17.666   7.140 -0.2103 -0.0777 -0.1153
  959YOPC   C3A13793   8.297  17.611   7.494 -0.1061  0.1176  0.3036
  959YOPC   C4A13794   8.294  17.939   7.877 -0.1607  0.1461 -0.0456
  959YOPC   C1B13795   8.396  18.637   6.456  0.0850 -0.2543  0.0746
  959YOPC   C2B13796   8.446  19.031   6.812 -0.2017 -0.2524  0.2960
  959YOPC   D3B13797   8.489  18.982   7.264  0.2874  0.4628  0.3030
  959YOPC   C4B13798   8.302  18.815   7.700 -0.2955 -0.2480  0.1493
  960YOPC   NC313799  13.664  16.056   5.860 -0.1211  0.2315 -0.1698
  960YOPC   PO413800  13.902  16.456   5.682  0.0320 -0.5362  0.1942
  960YOPC   GL113801  14.135  16.305   6.020 -0.2641 -0.0228 -0.1372
  960YOPC   GL213802  13.919  16.560   6.283 -0.1456 -0.1927  0.0282
  960YOPC   C1A13803  14.109  16.013   6.409 -0.0152 -0.0758  0.1766
  960YOPC   D2A13804  13.938  15.622   6.575  0.0495 -0.2877  0.1968
  960YOPC   C3A13805  13.552  15.523   6.623  0.0802 -0.0430  0.0287
  960YOPC   C4A13806  13.191  15.791   6.722  0.0028  0.0303 -0.1135
  960YOPC   C1B13807  13.860  16.341   6.662 -0.0299 -0.0755 -0.0092
  960YOPC   C2B13808  13.834  16.335   7.108  0.1011 -0.1719  0.0857
  960YOPC   D3B13809  14.051  16.190   7.417 -0.1938 -0.2342  0.0151
  960YOPC   C4B13810  14.165  15.980   7.757 -0.0426  0.1572  0.0303
  961YOPC   NC313811   2.615  13.732   5.236 -0.0625  0.3902 -0.3432
  961YOPC   PO413812   2.563  14.032   5.514 -0.3700  0.1209  0.0926
  961YOPC   GL113813   2.556  14.013   5.918 -0.0752  0.1382  0.0016
  961YOPC   GL213814   2.929  14.102   5.902 -0.0397  0.1792  0.1418
  961YOPC   C1A13815   2.315  13.749   6.270  0.4980  0.0431 -0.2611
  961YOPC   D2A13816   2.212  13.471   6.524 -0.0209 -0.5018 -0.0272
  961YOPC   C3A13817   2.501  13.327   6.854 -0.1757 -0.0769  0.1315
  961YOPC   C4A13818   2.706  13.366   7.235  0.0811  0.0715 -0.2702
  961YOPC   C1B13819   3.299  13.824   5.934  0.0524  0.0193  0.1067
  961YOPC   C2B13820   3.405  13.747   6.323 -0.0978  0.4481 -0.2199
  961YOPC   D3B13821   3.739  13.447   6.310  0.0444  0.3423  0.1585
  961YOPC   C4B13822   4.053  13.237   6.599 -0.2928 -0.0491 -0.1740
  962YOPC   NC313823   3.564  15.062   5.427 -0.0276  0.0554 -0.0610
  962YOPC   PO413824   3.413  14.654   5.640  0.0865  0.3065 -0.0837
  962YOPC   GL113825   3.317  14.426   6.001 -0.2178  0.2833  0.1019
  962YOPC   GL213826   2.992  14.543   6.094 -0.0216 -0.3079  0.1545
  962YOPC   C1A13827   3.446  14.252   6.368 -0.2221  0.0335  0.4330
  962YOPC   D2A13828   3.761  13.964   6.594 -0.1491  0.1866  0.2854
  962YOPC   C3A13829   4.129  13.753   6.521 -0.1133 -0.2952 -0.4266
  962YOPC   C4A13830   4.472  13.595   6.678 -0.1100 -0.1446 -0.0983
  962YOPC   C1B13831   2.931  14.314   6.467  0.0044 -0.0061  0.1797
  962YOPC   C2B13832   2.930  14.396   6.881 -0.1418 -0.0758 -0.1211
  962YOPC   D3B13833   2.568  14.553   7.009  0.4790  0.1547  0.0106
  962YOPC   C4B13834   2.263  14.720   6.845 -0.3348 -0.1245 -0.0738
  963YOPC   NC313835   5.662  13.890   5.356  0.1053 -0.0760 -0.1353
  963YOPC   PO413836   6.030  13.730   5.453 -0.0802 -0.0530 -0.1319
  963YOPC   GL113837   5.847  14.049   5.760 -0.0502  0.0184  0.2859
  963YOPC   GL213838   5.697  14.308   5.744  0.1470 -0.0307 -0.2164
  963YOPC   C1A13839   5.838  14.103   6.224  0.0509 -0.1872 -0.0093
  963YOPC   D2A13840   5.820  14.202   6.664  0.0308  0.0964  0.3086
  963YOPC   C3A13841   6.059  13.851   6.726  0.0889  0.0566 -0.2554
  963YOPC   C4A13842   6.313  13.464   6.948  0.0767 -0.2706 -0.0407
  963YOPC   C1B13843   5.430  14.419   6.022  0.3340  0.1179  0.1232
  963YOPC   C2B13844   5.117  14.595   6.274 -0.2261 -0.0791  0.0949
  963YOPC   D3B13845   5.163  14.998   6.325  0.0497 -0.0042  0.3771
  963YOPC   C4B13846   5.247  15.160   6.645 -0.3817  0.1133 -0.1337
  964YOPC   NC313847  10.643   5.556   5.678  0.2612  0.1980 -0.0066
  964YOPC   PO413848  10.757   5.190   5.981  0.0399 -0.2032 -0.0554
  964YOPC   GL113849  10.886   5.146   6.467  0.1035 -0.2222  0.2288
  964YOPC   GL213850  11.005   4.877   6.521  0.2673  0.2061 -0.0492
  964YOPC   C1A13851  10.930   5.079   6.925  0.1573  0.4290 -0.4500
  964YOPC   D2A13852  10.962   4.894   7.361 -0.0661 -0.1669 -0.2296
  964YOPC   C3A13853  10.677   4.701   7.637 -0.1930  0.0642 -0.0108
  964YOPC   C4A13854  10.304   4.738   7.840 -0.3310  0.2814 -0.1256
  964YOPC   C1B13855  11.093   4.636   6.923 -0.0390 -0.0620  0.2067
  964YOPC   C2B13856  11.279   4.490   7.259 -0.3411 -0.1029 -0.1669
  964YOPC   D3B13857  11.192   4.537   7.767 -0.2545  0.1953 -0.3081
  964YOPC   C4B13858  10.864   4.761   8.109 -0.1625  0.0199  0.0129
  965YOPC   NC313859   5.945   1.698   5.630  0.2110 -0.0219 -0.2081
  965YOPC   PO413860   5.778   1.551   5.976 -0.1163  0.2520 -0.1177
  965YOPC   GL113861   5.389   1.698   6.187 -0.1599 -0.1695 -0.2212
  965YOPC   GL213862   5.138   1.932   6.119  0.0220  0.0032  0.1921
  965YOPC   C1A13863   5.197   1.610   6.532 -0.1859 -0.1549 -0.3259
  965YOPC   D2A13864   5.338   1.780   7.012  0.1600 -0.0112 -0.0015
  965YOPC   C3A13865   5.543   1.761   7.284 -0.0801 -0.5008 -0.1962
  965YOPC   C4A13866   5.964   1.893   7.469  0.0834 -0.0136 -0.0596
  965YOPC   C1B13867   5.320   2.063   6.519  0.2153 -0.1108 -0.1782
  965YOPC   C2B13868   5.197   2.252   7.013  0.1038 -0.0262 -0.0232
  965YOPC   D3B13869   5.177   2.069   7.454  0.0689  0.4946 -0.2737
  965YOPC   C4B13870   5.331   1.744   7.763 -0.0542  0.0873 -0.2906
  966YOPC   NC313871  14.900  14.237   5.100 -0.1772  0.0878 -0.1282
  966YOPC   PO413872  15.230  14.180   5.324  0.2089 -0.3754  0.3286
  966YOPC   GL113873  15.645  14.091   5.479 -0.0741 -0.1834  0.2135
  966YOPC   GL213874  15.702  14.006   5.898  0.0619  0.0226  0.1284
  966YOPC   C1A13875  15.982  13.914   5.504  0.1064  0.2290  0.3175
  966YOPC   D2A13876  16.250  13.720   5.778 -0.1788  0.2049  0.2846
  966YOPC   C3A13877  16.138  13.584   6.240 -0.1634  0.3468  0.3215
  966YOPC   C4A13878  16.151  13.707   6.645  0.1285  0.1177 -0.0219
  966YOPC   C1B13879  15.830  13.960   6.333 -0.2004 -0.1898 -0.0815
  966YOPC   C2B13880  15.637  13.899   6.648  0.0962 -0.0303  0.1142
  966YOPC   D3B13881  15.505  13.572   6.893  0.0166  0.2385  0.2419
  966YOPC   C4B13882  15.517  13.242   7.167 -0.0885 -0.0488  0.1825
  967YOPC   NC313883   7.378   4.177   6.384  0.2104 -0.1191 -0.0175
  967YOPC   PO413884   7.029   4.348   6.122  0.2874  0.2367  0.0922
  967YOPC   GL113885   7.247   4.636   6.430 -0.2652 -0.3126 -0.0736
  967YOPC   GL213886   7.163   4.497   6.695  0.2812 -0.4017  0.2810
  967YOPC   C1A13887   7.465   4.904   6.678 -0.1165 -0.1213 -0.0546
  967YOPC   D2A13888   7.762   5.030   6.915  0.1909  0.2241 -0.0173
  967YOPC   C3A13889   7.591   4.982   7.380 -0.1053 -0.0139  0.0514
  967YOPC   C4A13890   7.493   5.145   7.758  0.1170  0.1242 -0.0152
  967YOPC   C1B13891   6.972   4.372   7.049 -0.0670  0.1870 -0.2167
  967YOPC   C2B13892   6.953   4.450   7.470 -0.1642  0.1448 -0.1301
  967YOPC   D3B13893   7.086   4.687   7.671 -0.1462 -0.0074 -0.4715
  967YOPC   C4B13894   7.028   5.055   7.981 -0.0303 -0.1252 -0.1286
  968YOPC   NC313895  16.825   2.872   5.595  0.0665 -0.0176  0.0808
  968YOPC   PO413896  16.605   3.180   5.785  0.5090  0.2687 -0.0208
  968YOPC   GL113897  16.683   3.410   6.246  0.1583 -0.1547 -0.2253
  968YOPC   GL213898  16.469   3.670   6.372  0.0591 -0.2001 -0.3121
  968YOPC   C1A13899  16.788   3.195   6.571 -0.0422 -0.0139  0.0131
  968YOPC   D2A13900  17.045   2.857   6.740  0.2781  0.1958 -0.3575
  968YOPC   C3A13901  16.877   2.755   7.177  0.0424  0.0090  0.1594
  968YOPC   C4A13902  16.943   2.571   7.652  0.2524  0.2392  0.2371
  968YOPC   C1B13903  16.578   3.910   6.707  0.1112 -0.0345  0.1898
  968YOPC   C2B13904  16.547   3.922   7.089  0.3597  0.0354 -0.0164
  968YOPC   D3B13905  16.803   3.690   7.396  0.0038  0.2676  0.0508
  968YOPC   C4B13906  16.968   3.584   7.876  0.2506  0.3312  0.2196
  969YOPC   NC313907   4.913   9.491   5.266 -0.1917 -0.1197  0.1386
  969YOPC   PO413908   4.969   9.112   5.599 -0.2222 -0.0134  0.6428
  969YOPC   GL113909   4.678   9.032   5.924  0.1552 -0.2213 -0.2514
  969YOPC   GL213910   4.345   8.778   5.966 -0.1418  0.3367 -0.2870
  969YOPC   C1A13911   4.819   9.057   6.389 -0.1107  0.0054  0.0275
  969YOPC   D2A13912   5.095   9.331   6.677 -0.1520  0.4811  0.0326
  969YOPC   C3A13913   5.123   9.633   6.933  0.1020 -0.1922  0.1758
  969YOPC   C4A13914   5.243   9.798   7.356 -0.1073 -0.1602 -0.2326
  969YOPC   C1B13915   4.090   8.842   6.312  0.0194  0.2260 -0.0626
  969YOPC   C2B13916   3.629   8.866   6.417 -0.0213 -0.1202 -0.0459
  969YOPC   D3B13917   3.580   8.841   6.729 -0.0924 -0.1308 -0.2179
  969YOPC   C4B13918   3.827   8.873   7.086  0.2835  0.2759 -0.1816
  970YOPC   NC313919  14.618  14.935   5.751  0.0048 -0.3612  0.0235
  970YOPC   PO413920  14.228  14.694   5.701 -0.0962 -0.2491  0.3718
  970YOPC   GL113921  14.258  14.740   6.057  0.2579 -0.0880 -0.0601
  970YOPC   GL213922  14.609  14.823   6.247  0.2739  0.0330  0.1415
  970YOPC   C1A13923  14.263  14.522   6.457 -0.0828 -0.1433 -0.0687
  970YOPC   D2A13924  14.286  14.427   6.831 -0.1022 -0.0046 -0.0280
  970YOPC   C3A13925  14.671  14.483   7.098 -0.0472  0.0806 -0.0948
  970YOPC   C4A13926  14.901  14.082   7.330  0.1550 -0.2509  0.0644
  970YOPC   C1B13927  14.457  14.921   6.622 -0.1540 -0.2654  0.2605
  970YOPC   C2B13928  14.292  14.839   7.106  0.1868  0.2087  0.0217
  970YOPC   D3B13929  14.209  15.167   7.320  0.2121 -0.1400 -0.0834
  970YOPC   C4B13930  13.818  15.100   7.571 -0.0432  0.3111 -0.1650
  971YOPC   NC313931   3.779   7.666   4.824 -0.1767  0.4238 -0.1454
  971YOPC   PO413932   3.508   7.742   5.153 -0.2586 -0.0594  0.1113
  971YOPC   GL113933   3.419   7.963   5.524  0.1122 -0.1511 -0.7033
  971YOPC   GL213934   3.550   7.790   5.760 -0.0545 -0.0266 -0.0273
  971YOPC   C1A13935   3.276   8.253   5.795 -0.2092  0.0183 -0.1678
  971YOPC   D2A13936   2.878   8.237   5.956 -0.0738 -0.1523  0.0593
  971YOPC   C3A13937   2.741   8.206   6.402  0.1280 -0.0798 -0.2373
  971YOPC   C4A13938   2.531   8.204   6.873  0.1396 -0.0222  0.0016
  971YOPC   C1B13939   3.693   7.736   6.183  0.2533  0.0633  0.0129
  971YOPC   C2B13940   3.759   7.981   6.545 -0.0740  0.1571 -0.2020
  971YOPC   D3B13941   3.788   7.880   6.941  0.0514 -0.0566 -0.3854
  971YOPC   C4B13942   3.900   7.552   7.260 -0.0689 -0.0310 -0.1408
  972YOPC   NC313943   7.853   2.485   6.051 -0.0780  0.0678  0.1182
  972YOPC   PO413944   7.785   2.024   5.971  0.0976 -0.2913 -0.0557
  972YOPC   GL113945   7.514   1.738   6.057 -0.3675 -0.3724 -0.2167
  972YOPC   GL213946   7.123   1.719   6.066  0.2815 -0.1876  0.2206
  972YOPC   C1A13947   7.483   1.455   6.359  0.0507  0.0076 -0.0798
  972YOPC   D2A13948   7.626   1.605   6.768 -0.0703 -0.0858 -0.0101
  972YOPC   C3A13949   7.434   1.395   7.126  0.1865 -0.1446  0.0868
  972YOPC   C4A13950   7.443   1.261   7.483 -0.2691  0.2057 -0.0151
  972YOPC   C1B13951   6.978   1.416   6.420 -0.0684 -0.1543 -0.1053
  972YOPC   C2B13952   7.169   1.178   6.766  0.2202  0.0186 -0.1933
  972YOPC   D3B13953   7.602   1.116   6.760  0.2564  0.1414  0.1581
  972YOPC   C4B13954   7.932   1.317   7.009  0.0027 -0.0028  0.3612
  973YOPC   NC313955   4.282   8.370   5.642 -0.0792  0.0684 -0.4723
  973YOPC   PO413956   3.969   8.714   5.549  0.0276 -0.0157  0.0735
  973YOPC   GL113957   3.899   8.500   6.019  0.0944 -0.0785  0.2386
  973YOPC   GL213958   3.638   8.196   6.083  0.1117 -0.3310  0.0549
  973YOPC   C1A13959   4.093   8.325   6.368 -0.0735  0.4959 -0.1932
  973YOPC   D2A13960   4.018   8.538   6.730  0.1147 -0.0108 -0.0206
  973YOPC   C3A13961   3.889   8.376   7.077 -0.0539 -0.2342  0.0430
  973YOPC   C4A13962   3.772   8.150   7.449  0.0915  0.1699 -0.3086
  973YOPC   C1B13963   3.571   8.409   6.500  0.0999 -0.1319  0.2033
  973YOPC   C2B13964   3.470   8.321   6.889 -0.1508  0.2314 -0.0810
  973YOPC   D3B13965   3.363   8.568   7.081  0.2448  0.0734  0.0710
  973YOPC   C4B13966   3.314   8.940   7.338 -0.0771 -0.0524  0.2295
  974YOPC   NC313967   1.822   4.286   5.969 -0.1830 -0.1161  0.0415
  974YOPC   PO413968   1.401   4.360   6.047 -0.0846 -0.1219 -0.0281
  974YOPC   GL113969   1.299   4.553   6.386 -0.1112  0.0900  0.0650
  974YOPC   GL213970   0.988   4.510   6.404  0.2770 -0.1081  0.2126
  974YOPC   C1A13971   1.308   4.834   6.700  0.1660 -0.1249 -0.1318
  974YOPC   D2A13972   1.235   5.132   6.902  0.3309 -0.0910 -0.2485
  974YOPC   C3A13973   1.395   5.153   7.404 -0.1282 -0.2898  0.1212
  974YOPC   C4A13974   1.083   5.070   7.761 -0.1530 -0.0060 -0.2589
  974YOPC   C1B13975   1.081   4.376   6.779  0.0901 -0.3767  0.0565
  974YOPC   C2B13976   1.045   4.625   7.036 -0.2318 -0.0042  0.3950
  974YOPC   D3B13977   0.977   4.621   7.498  0.0764 -0.2368  0.0174
  974YOPC   C4B13978   0.836   4.405   7.843 -0.0375 -0.0072 -0.1869
  975YOPC   NC313979   4.544   4.077   6.147  0.3844 -0.1658  0.1917
  975YOPC   PO413980   4.486   4.394   6.345 -0.0835  0.0863  0.0342
  975YOPC   GL113981   4.839   4.331   6.592  0.1577 -0.0601  0.1505
  975YOPC   GL213982   5.155   4.086   6.563  0.2050 -0.1421  0.1199
  975YOPC   C1A13983   4.893   4.213   7.088  0.2675  0.0660 -0.2170
  975YOPC   D2A13984   5.242   4.282   7.302 -0.1099 -0.1745  0.1746
  975YOPC   C3A13985   5.256   4.698   7.514 -0.0229  0.1957 -0.1015
  975YOPC   C4A13986   5.124   5.066   7.659  0.0467  0.0235 -0.0054
  975YOPC   C1B13987   5.408   3.959   6.903 -0.2137  0.1250  0.2836
  975YOPC   C2B13988   5.622   3.826   7.258  0.1508  0.1238 -0.1893
  975YOPC   D3B13989   5.398   3.794   7.539  0.1790  0.0346  0.4476
  975YOPC   C4B13990   5.215   3.971   7.859  0.0484  0.6249 -0.1283
  976YOPC   NC313991   2.867  17.113   5.076  0.0933  0.2503 -0.1645
  976YOPC   PO413992   2.525  17.073   5.293  0.1733  0.3676  0.0722
  976YOPC   GL113993   2.480  17.156   5.761  0.4136  0.1411  0.2056
  976YOPC   GL213994   2.284  16.896   5.879  0.1295  0.1259 -0.2244
  976YOPC   C1A13995   2.780  16.874   6.039  0.2649 -0.1728  0.1624
  976YOPC   D2A13996   2.783  16.992   6.488  0.0894 -0.0613 -0.0532
  976YOPC   C3A13997   3.041  16.982   6.887  0.1089 -0.1105 -0.0502
  976YOPC   C4A13998   3.449  17.061   6.997 -0.0240  0.0693 -0.1113
  976YOPC   C1B13999   2.392  16.662   6.292 -0.0008 -0.2051 -0.1108
  976YOPC   C2B14000   2.352  16.667   6.763 -0.0854  0.0603 -0.1765
  976YOPC   D3B14001   2.444  16.619   7.200  0.0491 -0.0145  0.0972
  976YOPC   C4B14002   2.517  16.798   7.648 -0.1260  0.0870  0.0790
  977YOPC   NC314003   5.220   0.867   5.673  0.2789 -0.0432  0.1366
  977YOPC   PO414004   4.926   0.445   5.631  0.1282 -0.0282 -0.4740
  977YOPC   GL114005   5.296   0.447   5.924 -0.2907  0.1134 -0.4127
  977YOPC   GL214006   5.588   0.259   5.907 -0.0621  0.1378  0.0694
  977YOPC   C1A14007   5.417   0.486   6.306  0.0129 -0.0061 -0.2036
  977YOPC   D2A14008   5.556   0.656   6.668  0.2763  0.4479  0.1141
  977YOPC   C3A14009   5.580   1.171   6.716 -0.0925 -0.2955  0.1847
  977YOPC   C4A14010   5.709   1.486   6.550  0.2440  0.2833 -0.1324
  977YOPC   C1B14011   5.535   0.005   6.332 -0.0483 -0.0642  0.0942
  977YOPC   C2B14012   5.781  -0.167   6.674  0.1115  0.0277 -0.2117
  977YOPC   D3B14013   6.197  -0.439   6.765  0.3176  0.2641  0.0563
  977YOPC   C4B14014   6.551  -0.686   6.828  0.0851  0.0360 -0.0680
  978YOPC   NC314015  18.150   4.448   5.168  0.0677  0.1144  0.0458
  978YOPC   PO414016  18.241   4.306   5.592  0.1004  0.1180 -0.0287
  978YOPC   GL114017  18.064   4.479   5.975 -0.3388  0.2282 -0.0597
  978YOPC   GL214018  18.310   4.653   5.953  0.1012  0.0984  0.0958
  978YOPC   C1A14019  18.057   4.476   6.411  0.2563  0.0076  0.0164
  978YOPC   D2A14020  18.155   4.582   6.768 -0.3692 -0.0893  0.2474
  978YOPC   C3A14021  18.240   4.529   7.232 -0.1631 -0.0107 -0.4248
  978YOPC   C4A14022  18.101   4.308   7.497  0.0255 -0.1568 -0.0271
  978YOPC   C1B14023  18.321   4.941   6.272  0.2743 -0.1729  0.2197
  978YOPC   C2B14024  18.236   5.273   6.594  0.1192 -0.1526  0.1391
  978YOPC   D3B14025  18.572   5.391   6.774  0.2753  0.1895  0.0111
  978YOPC   C4B14026  18.699   5.517   7.195 -0.1510  0.0124 -0.1888
  979YOPC   NC314027   3.827   2.059   5.259  0.0080  0.1773 -0.5336
  979YOPC   PO414028   3.695   1.732   5.456 -0.0344 -0.1182  0.2828
  979YOPC   GL114029   3.730   1.709   5.946  0.3291  0.0935  0.1375
  979YOPC   GL214030   4.015   1.756   6.001 -0.1240 -0.0113 -0.1582
  979YOPC   C1A14031   3.708   1.858   6.358  0.1896 -0.0945  0.1190
  979YOPC   D2A14032   3.819   1.602   6.751  0.3888 -0.1541  0.0259
  979YOPC   C3A14033   4.168   1.384   6.846  0.2202  0.1838 -0.2009
  979YOPC   C4A14034   4.507   1.095   6.923 -0.0957 -0.3320  0.1522
  979YOPC   C1B14035   3.965   1.405   6.332 -0.2276  0.0867 -0.1950
  979YOPC   C2B14036   3.670   1.130   6.653  0.0881  0.2999  0.1972
  979YOPC   D3B14037   3.648   1.263   7.044  0.3652 -0.2816  0.0394
  979YOPC   C4B14038   3.748   1.631   7.354  0.1483 -0.0197 -0.0897
  980YOPC   NC314039   0.557   3.909   5.732 -0.0285 -0.0871 -0.0114
  980YOPC   PO414040   0.768   3.692   6.081  0.0276 -0.0150 -0.0893
  980YOPC   GL114041   0.867   3.753   6.498 -0.3317 -0.0902 -0.3746
  980YOPC   GL214042   0.723   4.021   6.600 -0.2472 -0.1339 -0.2093
  980YOPC   C1A14043   1.207   3.904   6.689  0.1467 -0.1049  0.0545
  980YOPC   D2A14044   1.263   3.959   7.148 -0.0799 -0.0836  0.0745
  980YOPC   C3A14045   1.493   4.209   7.447  0.0320 -0.0720 -0.2076
  980YOPC   C4A14046   1.625   4.065   7.820 -0.1036 -0.2788  0.3031
  980YOPC   C1B14047   0.724   3.917   7.126  0.0564 -0.0074  0.0380
  980YOPC   C2B14048   0.917   4.082   7.491 -0.0644 -0.3306 -0.0054
  980YOPC   D3B14049   0.896   3.870   7.939  0.0349  0.0032  0.1658
  980YOPC   C4B14050   1.135   4.028   8.257  0.0093 -0.0005 -0.1543
  981YOPC   NC314051  14.511   3.638   6.307 -0.4854  0.0939  0.0083
  981YOPC   PO414052  14.606   3.221   6.253 -0.4157  0.1671 -0.0395
  981YOPC   GL114053  14.662   3.199   6.686 -0.1167 -0.0835 -0.1124
  981YOPC   GL214054  14.716   3.496   6.850  0.2178  0.0714 -0.0332
  981YOPC   C1A14055  14.409   3.109   6.999 -0.3288 -0.1131  0.2163
  981YOPC   D2A14056  14.013   2.994   7.176 -0.3335  0.3049 -0.0596
  981YOPC   C3A14057  13.863   3.050   7.518  0.1878 -0.0931 -0.0613
  981YOPC   C4A14058  14.075   3.322   7.876  0.2076 -0.2565  0.2853
  981YOPC   C1B14059  14.767   3.411   7.209  0.1294 -0.1335 -0.0043
  981YOPC   C2B14060  14.979   3.290   7.570 -0.0326  0.0059  0.1630
  981YOPC   D3B14061  15.074   3.007   7.924 -0.1355 -0.1166  0.3326
  981YOPC   C4B14062  14.910   2.750   8.280  0.1425  0.2810 -0.2198
  982YOPC   NC314063  15.950  10.127   5.626  0.1790 -0.0467 -0.2335
  982YOPC   PO414064  16.106   9.751   5.797 -0.1075  0.0170  0.3336
  982YOPC   GL114065  16.070   9.653   6.171 -0.3946  0.2208 -0.1438
  982YOPC   GL214066  15.851   9.411   6.099 -0.0645 -0.0388  0.0347
  982YOPC   C1A14067  16.053   9.659   6.664  0.1261  0.0963  0.0555
  982YOPC   D2A14068  15.829   9.383   6.981 -0.0652  0.0202 -0.0200
  982YOPC   C3A14069  16.102   9.214   7.346  0.5076  0.2893  0.1100
  982YOPC   C4A14070  16.536   9.360   7.595  0.0610  0.1301 -0.1198
  982YOPC   C1B14071  15.758   9.151   6.480  0.2307 -0.0914 -0.1150
  982YOPC   C2B14072  15.926   8.876   6.819  0.1523 -0.2199  0.0335
  982YOPC   D3B14073  16.208   8.780   7.105  0.1680  0.0532  0.0993
  982YOPC   C4B14074  16.348   8.482   7.505  0.1818 -0.2574 -0.3829
  983YOPC   NC314075   0.176  13.841   5.220 -0.0167  0.3669 -0.2132
  983YOPC   PO414076  -0.165  13.978   5.548 -0.0141 -0.1950 -0.4101
  983YOPC   GL114077  -0.135  13.607   5.899  0.0347  0.0113  0.3294
  983YOPC   GL214078  -0.044  13.340   5.844 -0.0066 -0.0039  0.0788
  983YOPC   C1A14079  -0.158  13.482   6.403 -0.0380  0.1272 -0.1032
  983YOPC   D2A14080  -0.071  13.750   6.698  0.2091 -0.3015 -0.0110
  983YOPC   C3A14081  -0.123  13.790   7.148 -0.2493  0.0629 -0.3721
  983YOPC   C4A14082  -0.380  13.729   7.506 -0.2991  0.0833 -0.2693
  983YOPC   C1B14083   0.318  13.428   6.054 -0.1770 -0.0036 -0.1695
  983YOPC   C2B14084   0.584  13.741   6.146  0.0032  0.1033  0.1086
  983YOPC   D3B14085   0.393  13.921   6.566 -0.0334  0.1296  0.0255
  983YOPC   C4B14086   0.298  14.009   6.959 -0.0496  0.1887 -0.0148
  984YOPC   NC314087   5.964  15.490   5.598 -0.0628  0.2393  0.0838
  984YOPC   PO414088   6.331  15.467   5.333 -0.1001  0.1706 -0.1173
  984YOPC   GL114089   6.422  15.423   5.822 -0.1419  0.2973 -0.1566
  984YOPC   GL214090   6.544  15.685   6.008 -0.0440 -0.1716 -0.4288
  984YOPC   C1A14091   6.475  15.326   6.297  0.0882 -0.1046 -0.0400
  984YOPC   D2A14092   6.422  15.205   6.663  0.2939  0.3269 -0.0779
  984YOPC   C3A14093   6.241  15.422   7.111  0.1076 -0.2118  0.3548
  984YOPC   C4A14094   6.143  15.390   7.543  0.1222  0.1894  0.2186
  984YOPC   C1B14095   6.636  15.819   6.360 -0.1023  0.0472 -0.2857
  984YOPC   C2B14096   6.860  16.032   6.666 -0.0015 -0.0103  0.1856
  984YOPC   D3B14097   6.965  15.952   7.121 -0.4288 -0.1018 -0.1544
  984YOPC   C4B14098   7.134  15.756   7.428  0.2166 -0.2848  0.1009
  985YOPC   NC314099   0.416  15.025   5.224 -0.1712 -0.0958  0.1072
  985YOPC   PO414100   0.799  14.916   5.395 -0.0017 -0.0437 -0.1677
  985YOPC   GL114101   0.929  14.855   5.851 -0.2577  0.0864 -0.0931
  985YOPC   GL214102   0.966  15.133   6.046  0.1385 -0.0736 -0.1602
  985YOPC   C1A14103   0.785  14.738   6.368  0.2112  0.2330 -0.0057
  985YOPC   D2A14104   0.788  14.723   6.857  0.2399 -0.1361  0.1699
  985YOPC   C3A14105   0.535  14.974   7.090  0.1655  0.0884  0.1172
  985YOPC   C4A14106   0.403  14.978   7.501  0.0198  0.0181 -0.1661
  985YOPC   C1B14107   1.112  15.225   6.598 -0.0190 -0.0144  0.0806
  985YOPC   C2B14108   1.062  15.173   6.888  0.0241  0.0077 -0.0456
  985YOPC   D3B14109   1.059  15.385   7.271  0.1321 -0.1071 -0.1668
  985YOPC   C4B14110   1.370  15.540   7.466  0.0726 -0.0890  0.0415
  986YOPC   NC314111   8.332  15.603   5.016 -0.1880 -0.4279 -0.2380
  986YOPC   PO414112   8.450  15.137   5.190 -0.0528 -0.0793  0.1966
  986YOPC   GL114113   8.601  15.441   5.395 -0.2242  0.0950  0.0149
  986YOPC   GL214114   8.681  15.716   5.358 -0.0400 -0.2296  0.3306
  986YOPC   C1A14115   8.513  15.496   5.786  0.4135  0.3171  0.2825
  986YOPC   D2A14116   8.316  15.455   6.172  0.4913 -0.1348  0.2669
  986YOPC   C3A14117   8.058  15.051   6.175 -0.0987  0.1072  0.0435
  986YOPC   C4A14118   7.773  14.834   6.421  0.1224 -0.0298 -0.0643
  986YOPC   C1B14119   8.795  15.874   5.765 -0.1461  0.3027 -0.0879
  986YOPC   C2B14120   8.804  16.236   6.016  0.3008 -0.2612 -0.3926
  986YOPC   D3B14121   8.627  16.346   6.428 -0.2117 -0.0756 -0.0505
  986YOPC   C4B14122   8.286  16.309   6.751  0.0811 -0.0658 -0.1879
  987YOPC   NC314123   4.768   3.438   5.893 -0.2445 -0.1116 -0.5428
  987YOPC   PO414124   4.353   3.675   5.967  0.0355 -0.0942 -0.1653
  987YOPC   GL114125   4.178   3.761   6.450  0.3097  0.0406 -0.0507
  987YOPC   GL214126   3.826   3.898   6.421  0.0540  0.2676  0.0954
  987YOPC   C1A14127   4.268   3.559   6.865  0.3008 -0.6872  0.2630
  987YOPC   D2A14128   4.245   3.327   7.339  0.0313 -0.0089  0.0280
  987YOPC   C3A14129   4.630   3.370   7.604 -0.0302 -0.2356 -0.0545
  987YOPC   C4A14130   4.942   3.589   7.676  0.2407  0.3158 -0.3791
  987YOPC   C1B14131   3.968   3.967   6.931 -0.0378 -0.0243  0.1288
  987YOPC   C2B14132   4.255   3.891   7.268 -0.2684  0.0389  0.0480
  987YOPC   D3B14133   4.165   3.729   7.584 -0.0473  0.3194 -0.0643
  987YOPC   C4B14134   4.346   3.906   8.089  0.1727 -0.1732  0.0704
  988YOPC   NC314135   8.279  13.376   5.272  0.0584  0.0742  0.0250
  988YOPC   PO414136   8.647  13.217   5.117 -0.1960 -0.1441  0.1016
  988YOPC   GL114137   8.731  13.006   5.586  0.0254  0.0880  0.0865
  988YOPC   GL214138   8.575  13.193   5.820 -0.0387 -0.0536  0.1229
  988YOPC   C1A14139   9.122  13.244   5.782  0.1092 -0.0273 -0.2098
  988YOPC   D2A14140   9.317  13.150   6.150  0.3948 -0.1099 -0.4106
  988YOPC   C3A14141   9.350  12.834   6.414 -0.3611 -0.5054  0.0330
  988YOPC   C4A14142   9.624  12.816   6.784  0.1578 -0.2159  0.3072
  988YOPC   C1B14143   8.588  13.154   6.148 -0.3186 -0.2038  0.1393
  988YOPC   C2B14144   8.855  12.891   6.432  0.1210  0.0239  0.0483
  988YOPC   D3B14145   9.084  12.754   6.820 -0.2311 -0.0911  0.1098
  988YOPC   C4B14146   9.141  12.736   7.264 -0.0548 -0.0452  0.2846
  989YOPC   NC314147   1.623   9.652   5.589 -0.0699 -0.0672 -0.2135
  989YOPC   PO414148   1.738   9.258   5.849 -0.0209 -0.0747  0.0029
  989YOPC   GL114149   1.902   9.149   6.227  0.1137 -0.1389  0.1326
  989YOPC   GL214150   2.272   9.158   6.082  0.0570  0.0826 -0.1258
  989YOPC   C1A14151   2.171   9.027   6.563 -0.0626  0.0133  0.0727
  989YOPC   D2A14152   1.972   9.039   7.023  0.2038 -0.0237  0.2834
  989YOPC   C3A14153   1.577   8.983   7.133  0.2899  0.1150 -0.1026
  989YOPC   C4A14154   1.292   8.972   7.479  0.1418 -0.0281 -0.0847
  989YOPC   C1B14155   2.723   9.407   6.215 -0.3129 -0.3067 -0.2427
  989YOPC   C2B14156   3.160   9.491   6.216  0.3453 -0.0388 -0.2333
  989YOPC   D3B14157   3.377   9.413   6.573 -0.3934  0.1284  0.0271
  989YOPC   C4B14158   3.592   9.731   6.740 -0.4790  0.1829 -0.1542
  990YOPC   NC314159   0.463  17.342   5.317  0.1604 -0.3983 -0.0081
  990YOPC   PO414160   0.051  17.283   5.536 -0.3727  0.2557 -0.0139
  990YOPC   GL114161   0.062  17.007   5.845 -0.4339 -0.0692  0.0219
  990YOPC   GL214162  -0.166  16.780   5.974 -0.2349 -0.1696 -0.0134
  990YOPC   C1A14163   0.288  16.653   6.052  0.1617  0.1852  0.3091
  990YOPC   D2A14164   0.461  16.511   6.420 -0.3195  0.3402 -0.0040
  990YOPC   C3A14165   0.160  16.670   6.726 -0.1845 -0.1392 -0.1039
  990YOPC   C4A14166   0.117  16.760   7.097 -0.2167 -0.0302 -0.1542
  990YOPC   C1B14167  -0.235  16.603   6.403 -0.1176  0.0270  0.1056
  990YOPC   C2B14168  -0.334  16.647   6.922 -0.4178 -0.0439 -0.1887
  990YOPC   D3B14169  -0.479  16.466   7.305  0.2934 -0.1491 -0.3400
  990YOPC   C4B14170  -0.398  16.519   7.706  0.1947  0.1956 -0.0396
  991YOPC   NC314171  13.543  12.964   5.361  0.0189  0.2294 -0.2014
  991YOPC   PO414172  13.529  12.523   5.490 -0.0568  0.4138  0.0423
  991YOPC   GL114173  13.511  12.650   5.891 -0.1872  0.0449 -0.1274
  991YOPC   GL214174  13.757  12.492   6.174  0.1696  0.2221 -0.0210
  991YOPC   C1A14175  13.209  12.901   6.023  0.0976  0.0052 -0.0295
  991YOPC   D2A14176  12.972  13.130   6.403 -0.1032 -0.1638 -0.2753
  991YOPC   C3A14177  13.123  13.343   6.753 -0.1101  0.0193 -0.1709
  991YOPC   C4A14178  13.298  13.317   7.110  0.0728 -0.1067  0.0677
  991YOPC   C1B14179  13.928  12.745   6.579 -0.1331  0.1410 -0.4175
  991YOPC   C2B14180  13.937  13.031   6.879  0.0569  0.2211 -0.0476
  991YOPC   D3B14181  13.614  12.966   7.174 -0.3060 -0.0253  0.0801
  991YOPC   C4B14182  13.445  13.172   7.591  0.1923  0.2497 -0.0247
  992YOPC   NC314183   6.828  11.357   4.990  0.2154 -0.2499 -0.0647
  992YOPC   PO414184   6.605  11.614   5.296 -0.0362 -0.4703  0.1439
  992YOPC   GL114185   6.364  11.735   5.688 -0.1056  0.3314 -0.1127
  992YOPC   GL214186   6.124  11.993   5.574  0.4486 -0.0555  0.0982
  992YOPC   C1A14187   6.461  11.874   6.136  0.1125 -0.1235 -0.0043
  992YOPC   D2A14188   6.433  12.147   6.422  0.1710  0.0105 -0.0325
  992YOPC   C3A14189   6.547  12.578   6.470  0.2524 -0.2578 -0.2356
  992YOPC   C4A14190   6.619  12.704   6.948 -0.0219 -0.1643 -0.0104
  992YOPC   C1B14191   6.362  12.225   5.673  0.1998 -0.0916  0.0927
  992YOPC   C2B14192   6.482  12.561   5.941  0.2718 -0.0874  0.1521
  992YOPC   D3B14193   6.225  12.874   6.090 -0.0653 -0.2715 -0.6160
  992YOPC   C4B14194   6.239  13.060   6.678  0.2858  0.0200  0.0544
  993YOPC   NC314195  16.978   5.789   5.237 -0.0781 -0.1265  0.0687
  993YOPC   PO414196  16.617   5.819   5.538  0.1170 -0.2074  0.2211
  993YOPC   GL114197  16.403   5.652   5.825 -0.1907 -0.2281  0.0521
  993YOPC   GL214198  16.332   5.895   6.016  0.3967  0.2271  0.0259
  993YOPC   C1A14199  16.084   5.455   6.100  0.0644 -0.0068 -0.0421
  993YOPC   D2A14200  16.238   5.292   6.583 -0.0327  0.0743 -0.0102
  993YOPC   C3A14201  16.108   5.431   7.073 -0.0748 -0.1121  0.0519
  993YOPC   C4A14202  16.072   5.826   7.119 -0.1594  0.0612  0.0754
  993YOPC   C1B14203  16.446   5.727   6.334  0.0382  0.3016 -0.1082
  993YOPC   C2B14204  16.407   5.845   6.671  0.1698 -0.1263  0.1031
  993YOPC   D3B14205  16.621   5.827   7.086 -0.2417 -0.0018 -0.2016
  993YOPC   C4B14206  17.015   5.501   7.217  0.1109  0.2611 -0.2262
  994YOPC   NC314207  13.874  10.525   5.258  0.0115 -0.0412 -0.0189
  994YOPC   PO414208  13.574  10.159   5.348  0.0418 -0.0309 -0.1434
  994YOPC   GL114209  13.774  10.279   5.743  0.0185 -0.0177  0.4703
  994YOPC   GL214210  14.024  10.505   5.773 -0.0027 -0.0415  0.0640
  994YOPC   C1A14211  13.639  10.241   6.206  0.0582  0.2604  0.2005
  994YOPC   D2A14212  13.789  10.448   6.553  0.1636  0.0459  0.0379
  994YOPC   C3A14213  13.916  10.434   6.944  0.0265 -0.2238 -0.2052
  994YOPC   C4A14214  13.992  10.201   7.294 -0.1504  0.2264  0.1879
  994YOPC   C1B14215  14.169  10.260   6.171 -0.3030  0.3001  0.2899
  994YOPC   C2B14216  14.316  10.411   6.605  0.3792 -0.3580  0.1131
  994YOPC   D3B14217  14.342  10.185   6.904  0.0449  0.1725 -0.1848
  994YOPC   C4B14218  14.583  10.072   7.364 -0.0721  0.0695  0.1796
  995YOPC   NC314219  10.455   4.782   6.018 -0.0601 -0.1387  0.1315
  995YOPC   PO414220  10.252   4.335   6.073  0.0487 -0.1693 -0.2094
  995YOPC   GL114221  10.298   4.281   6.387 -0.4108  0.0460 -0.2696
  995YOPC   GL214222  10.268   3.984   6.548 -0.0357 -0.3409 -0.0141
  995YOPC   C1A14223  10.308   4.301   6.941 -0.1372  0.1032  0.2921
  995YOPC   D2A14224  10.313   4.124   7.344  0.4231 -0.1613 -0.4018
  995YOPC   C3A14225  10.313   4.257   7.790 -0.0427  0.1316  0.3227
  995YOPC   C4A14226  10.030   4.413   8.144  0.3533  0.0838 -0.1181
  995YOPC   C1B14227  10.375   3.791   6.887 -0.1636  0.2065 -0.0828
  995YOPC   C2B14228  10.148   3.663   7.245 -0.2648 -0.2351  0.1451
  995YOPC   D3B14229   9.940   3.888   7.633 -0.1087 -0.3885  0.2794
  995YOPC   C4B14230   9.815   3.898   8.052  0.1565 -0.0628  0.0351
  996YOPC   NC314231   5.883  14.750   4.969 -0.2363  0.0016  0.2151
  996YOPC   PO414232   5.911  14.332   5.312 -0.1873 -0.1370  0.3143
  996YOPC   GL114233   6.162  14.503   5.613 -0.2096 -0.2679  0.1836
  996YOPC   GL214234   6.009  14.683   5.872  0.3241  0.0107 -0.2174
  996YOPC   C1A14235   6.260  14.352   6.076 -0.0308  0.2945 -0.0712
  996YOPC   D2A14236   6.284  14.206   6.472  0.2080  0.2301  0.2238
  996YOPC   C3A14237   6.509  13.764   6.557  0.0113  0.0833  0.1585
  996YOPC   C4A14238   6.526  13.322   6.344 -0.0163 -0.0979 -0.0314
  996YOPC   C1B14239   5.841  14.604   6.270 -0.0775 -0.0969  0.1719
  996YOPC   C2B14240   5.518  14.639   6.544 -0.0031  0.7474  0.1332
  996YOPC   D3B14241   5.628  14.602   7.006  0.0716 -0.1884  0.0685
  996YOPC   C4B14242   5.990  14.594   7.285 -0.2808  0.3746 -0.1822
  997YOPC   NC314243  18.060   8.552   4.565  0.1676  0.0991  0.0102
  997YOPC   PO414244  18.309   8.849   4.652 -0.4550  0.0015 -0.0196
  997YOPC   GL114245  18.324   8.723   5.053 -0.0763 -0.4595 -0.1277
  997YOPC   GL214246  18.613   8.925   5.158  0.1504  0.1106 -0.0979
  997YOPC   C1A14247  18.586   8.458   5.354  0.1998 -0.2664 -0.0925
  997YOPC   D2A14248  18.745   8.474   5.728 -0.2459  0.1702 -0.0907
  997YOPC   C3A14249  18.409   8.484   5.970 -0.3270 -0.1934 -0.2971
  997YOPC   C4A14250  18.235   8.350   6.282  0.0697 -0.1372  0.0254
  997YOPC   C1B14251  18.574   9.006   5.563 -0.0804  0.1389 -0.0188
  997YOPC   C2B14252  18.772   8.921   5.976  0.0008  0.0800 -0.1447
  997YOPC   D3B14253  18.783   8.613   6.303 -0.0933  0.0992 -0.3077
  997YOPC   C4B14254  18.998   8.555   6.705  0.2868 -0.4121 -0.3555
  998YOPC   NC314255   6.388  14.140   5.267  0.1201 -0.0143 -0.1856
  998YOPC   PO414256   6.677  14.447   5.568 -0.3730  0.3654  0.1893
  998YOPC   GL114257   6.711  14.612   5.892 -0.0836 -0.0248  0.0656
  998YOPC   GL214258   6.483  14.857   5.951 -0.0772 -0.0219  0.1895
  998YOPC   C1A14259   6.689  14.488   6.312 -0.2722  0.2503 -0.1558
  998YOPC   D2A14260   6.708  14.566   6.729  0.2998 -0.3007 -0.2194
  998YOPC   C3A14261   6.940  14.463   7.027 -0.1543 -0.1972 -0.0617
  998YOPC   C4A14262   7.102  14.543   7.485  0.0612  0.1550 -0.1846
  998YOPC   C1B14263   6.285  14.771   6.372 -0.2006 -0.0760  0.2435
  998YOPC   C2B14264   6.073  14.607   6.745  0.0530 -0.0904  0.1423
  998YOPC   D3B14265   6.307  14.349   6.940 -0.0606  0.0264  0.0102
  998YOPC   C4B14266   6.639  14.073   6.926 -0.2316 -0.1310  0.1438
  999YOPC   NC314267  18.081  17.105   5.888 -0.0090 -0.2316 -0.1834
  999YOPC   PO414268  17.960  17.486   5.904 -0.1890  0.1046  0.0639
  999YOPC   GL114269  18.196  17.442   6.381  0.0837  0.0382 -0.0014
  999YOPC   GL214270  18.313  17.742   6.370  0.0218 -0.1696 -0.1438
  999YOPC   C1A14271  18.203  17.279   6.834  0.2809  0.1738  0.2211
  999YOPC   D2A14272  18.289  17.387   7.118  0.0563 -0.2363  0.0704
  999YOPC   C3A14273  18.178  16.993   7.329  0.0166  0.0297 -0.1584
  999YOPC   C4A14274  18.058  16.924   7.724 -0.0244  0.0605 -0.1685
  999YOPC   C1B14275  18.359  17.791   6.789  0.3090 -0.1292 -0.4446
  999YOPC   C2B14276  18.137  17.825   7.238  0.0828 -0.1375  0.2566
  999YOPC   D3B14277  18.083  17.459   7.562 -0.3336  0.1849  0.0749
  999YOPC   C4B14278  18.087  17.357   7.997 -0.0427  0.3926 -0.3838
 1000YOPC   NC314279  16.421  13.306   5.505  0.0450 -0.3281 -0.1530
 1000YOPC   PO414280  16.035  13.178   5.521  0.0956  0.0670 -0.0207
 1000YOPC   GL114281  16.241  13.134   5.949  0.1676 -0.0956  0.1036
 1000YOPC   GL214282  16.555  13.337   6.009 -0.1269 -0.1896  0.1151
 1000YOPC   C1A14283  16.207  12.823   6.166 -0.0210 -0.0833 -0.3033
 1000YOPC   D2A14284  15.984  12.467   6.363 -0.1949 -0.2653 -0.0897
 1000YOPC   C3A14285  15.778  12.623   6.882  0.1552  0.0227  0.0687
 1000YOPC   C4A14286  15.930  12.618   7.289 -0.0368 -0.0066 -0.0050
 1000YOPC   C1B14287  16.431  13.215   6.448  0.2472  0.0070  0.2081
 1000YOPC   C2B14288  16.479  13.281   6.883  0.0047  0.0882  0.0260
 1000YOPC   D3B14289  16.294  13.687   7.152 -0.2298 -0.2980  0.3119
 1000YOPC   C4B14290  16.328  14.035   7.411  0.0983 -0.2709 -0.1642
 1001YOPC   NC314291  16.933   3.644   5.816 -0.1851 -0.0514  0.0965
 1001YOPC   PO414292  17.105   3.220   5.941  0.3354  0.3986 -0.2970
 1001YOPC   GL114293  17.256   3.472   6.259 -0.1449 -0.0381 -0.0709
 1001YOPC   GL214294  17.542   3.310   6.333  0.0041 -0.0127  0.2602
 1001YOPC   C1A14295  17.033   3.675   6.557  0.0638 -0.1564  0.4509
 1001YOPC   D2A14296  16.992   3.679   6.911  0.1444  0.3702  0.1508
 1001YOPC   C3A14297  17.466   3.653   7.077 -0.2492 -0.1522 -0.1379
 1001YOPC   C4A14298  17.909   3.693   6.924 -0.2191 -0.2082 -0.0400
 1001YOPC   C1B14299  17.309   3.317   6.748 -0.0551 -0.1814  0.0324
 1001YOPC   C2B14300  17.175   3.164   7.125  0.1193 -0.0693  0.1082
 1001YOPC   D3B14301  17.276   3.499   7.496  0.1337  0.1629 -0.1037
 1001YOPC   C4B14302  17.357   3.886   7.776  0.1054  0.0619 -0.1020
 1002YOPC   NC314303   8.669   3.773   6.005  0.0830  0.1600 -0.0265
 1002YOPC   PO414304   8.330   3.808   6.227 -0.0279  0.0970 -0.0280
 1002YOPC   GL114305   8.344   3.844   6.667  0.1466 -0.1470 -0.1739
 1002YOPC   GL214306   7.988   3.981   6.603  0.2355 -0.2797  0.0233
 1002YOPC   C1A14307   8.273   3.943   7.056  0.2036 -0.0842 -0.0271
 1002YOPC   D2A14308   8.109   4.120   7.410  0.1271  0.1443  0.0513
 1002YOPC   C3A14309   7.927   4.589   7.372  0.0161 -0.2274  0.1267
 1002YOPC   C4A14310   8.091   4.902   7.640  0.4343 -0.1838 -0.0574
 1002YOPC   C1B14311   7.751   4.039   7.050  0.1194  0.1479  0.1056
 1002YOPC   C2B14312   7.706   3.781   7.342  0.1670 -0.1667 -0.0925
 1002YOPC   D3B14313   7.657   3.964   7.765 -0.0843  0.1129 -0.1955
 1002YOPC   C4B14314   7.806   3.808   8.180 -0.0854  0.0072 -0.2607
 1003YOPC   NC314315  17.268   2.245   6.038 -0.2228  0.1939  0.0992
 1003YOPC   PO414316  17.691   2.133   5.924  0.1068  0.1550  0.1433
 1003YOPC   GL114317  17.654   2.371   6.319 -0.0648  0.2131  0.1272
 1003YOPC   GL214318  17.980   2.506   6.408 -0.2317 -0.0573 -0.2417
 1003YOPC   C1A14319  17.710   2.401   6.826 -0.0371 -0.1276  0.2209
 1003YOPC   D2A14320  17.729   2.690   7.158 -0.3405  0.0268  0.3971
 1003YOPC   C3A14321  17.904   2.634   7.546  0.2889  0.1415 -0.2432
 1003YOPC   C4A14322  17.913   2.389   7.932  0.0650  0.1048  0.1431
 1003YOPC   C1B14323  18.131   2.687   6.841 -0.1785 -0.4180  0.0449
 1003YOPC   C2B14324  18.193   2.417   7.114  0.1773  0.0706 -0.1261
 1003YOPC   D3B14325  18.231   2.056   6.903  0.3095  0.1338  0.0482
 1003YOPC   C4B14326  18.366   1.629   6.927 -0.0612 -0.2000  0.0085
 1004YOPC   NC314327  12.814   8.252   5.430  0.1370  0.2588  0.1451
 1004YOPC   PO414328  12.444   8.464   5.484 -0.0456 -0.0483 -0.0027
 1004YOPC   GL114329  12.647   8.654   5.823 -0.0266  0.0459  0.4806
 1004YOPC   GL214330  12.745   8.374   5.948  0.1228 -0.1353  0.0987
 1004YOPC   C1A14331  13.017   8.757   6.113 -0.2206  0.0167  0.1936
 1004YOPC   D2A14332  12.892   8.920   6.606 -0.3364 -0.0500  0.0558
 1004YOPC   C3A14333  12.915   8.600   6.808 -0.1997  0.3112  0.2460
 1004YOPC   C4A14334  12.596   8.540   7.193 -0.2028 -0.2806 -0.1097
 1004YOPC   C1B14335  12.454   8.510   6.273 -0.1517 -0.1029  0.1489
 1004YOPC   C2B14336  12.355   8.447   6.718 -0.0545 -0.0029  0.1067
 1004YOPC   D3B14337  12.351   8.083   6.881 -0.1274 -0.0965 -0.2847
 1004YOPC   C4B14338  12.596   7.726   7.010 -0.2088  0.0294  0.1914
 1005YOPC   NC314339   0.344  14.607   5.490  0.0171 -0.2476 -0.0052
 1005YOPC   PO414340  -0.051  14.772   5.378 -0.0825 -0.2685  0.1805
 1005YOPC   GL114341   0.097  15.105   5.689  0.1425  0.0000 -0.0454
 1005YOPC   GL214342  -0.116  15.261   5.779 -0.0611 -0.2658  0.0613
 1005YOPC   C1A14343   0.420  15.078   6.145  0.1593  0.0512 -0.1713
 1005YOPC   D2A14344   0.515  15.069   6.609 -0.0127 -0.0818 -0.3427
 1005YOPC   C3A14345   0.596  15.434   6.800  0.0316  0.1813 -0.0933
 1005YOPC   C4A14346   0.584  15.496   7.260 -0.1824  0.0594  0.2210
 1005YOPC   C1B14347  -0.381  15.103   6.171 -0.1798  0.1131  0.1014
 1005YOPC   C2B14348  -0.584  15.043   6.552 -0.1587  0.2552  0.1752
 1005YOPC   D3B14349  -0.443  14.861   6.987  0.1488 -0.0445  0.0699
 1005YOPC   C4B14350  -0.119  14.850   7.251  0.0692  0.0944  0.0527
 1006YOPC   NC314351   2.088   6.366   5.563  0.1669  0.0847 -0.1376
 1006YOPC   PO414352   2.364   6.031   5.798  0.1774  0.0445 -0.0796
 1006YOPC   GL114353   2.431   5.918   6.263  0.1240  0.1642  0.1570
 1006YOPC   GL214354   2.725   5.859   6.349  0.1176 -0.0403  0.3287
 1006YOPC   C1A14355   2.467   5.446   6.461 -0.0898  0.2256 -0.0945
 1006YOPC   D2A14356   2.370   5.278   6.873 -0.1416  0.2006  0.2891
 1006YOPC   C3A14357   2.472   5.286   7.375  0.0345  0.1551  0.0190
 1006YOPC   C4A14358   2.326   5.543   7.741  0.0989  0.0469  0.2435
 1006YOPC   C1B14359   2.698   6.253   6.510 -0.1274 -0.2902 -0.0862
 1006YOPC   C2B14360   2.545   6.587   6.297 -0.1550  0.4720  0.0921
 1006YOPC   D3B14361   2.827   6.795   6.048 -0.4086  0.4387 -0.0671
 1006YOPC   C4B14362   3.205   6.935   6.288  0.0203 -0.1104  0.5922
 1007YOPC   NC314363   8.984   6.187   6.053 -0.2807 -0.0761 -0.1130
 1007YOPC   PO414364   9.374   6.252   6.341  0.2623 -0.2497 -0.0928
 1007YOPC   GL114365   9.380   5.973   6.778 -0.0696  0.0266  0.0671
 1007YOPC   GL214366   9.267   5.672   6.864 -0.1465  0.2403 -0.1332
 1007YOPC   C1A14367   9.337   6.018   7.164  0.0558 -0.2050  0.1765
 1007YOPC   D2A14368   9.548   5.994   7.575  0.0080  0.1175  0.2452
 1007YOPC   C3A14369   9.596   6.264   7.824 -0.0656  0.2429 -0.0123
 1007YOPC   C4A14370   9.885   6.209   8.123  0.1370  0.0003 -0.0932
 1007YOPC   C1B14371   9.451   5.518   7.278 -0.0801  0.0815 -0.2053
 1007YOPC   C2B14372   9.270   5.571   7.740 -0.0070 -0.2357 -0.1471
 1007YOPC   D3B14373   9.382   5.887   8.038 -0.0869  0.1328  0.0874
 1007YOPC   C4B14374   9.494   5.817   8.480 -0.0280 -0.0917 -0.0897
 1008YOPC   NC314375   4.302   4.854   6.251 -0.2630 -0.1851  0.1971
 1008YOPC   PO414376   4.031   5.137   6.228 -0.0635 -0.3601 -0.2329
 1008YOPC   GL114377   3.858   5.184   6.663 -0.0912 -0.0387 -0.0134
 1008YOPC   GL214378   4.045   4.854   6.710  0.1544 -0.3369 -0.0315
 1008YOPC   C1A14379   3.779   5.389   7.071 -0.1132 -0.0273  0.2644
 1008YOPC   D2A14380   3.568   5.402   7.449 -0.3873  0.0660 -0.0833
 1008YOPC   C3A14381   3.423   5.105   7.637  0.1419 -0.1542  0.0192
 1008YOPC   C4A14382   3.081   5.087   7.913 -0.0350  0.2665 -0.0393
 1008YOPC   C1B14383   4.186   5.100   7.126  0.1702 -0.3018 -0.1354
 1008YOPC   C2B14384   4.179   5.110   7.613 -0.0390 -0.2963  0.3110
 1008YOPC   D3B14385   4.221   5.498   7.835  0.0737 -0.1495 -0.0237
 1008YOPC   C4B14386   4.548   5.572   8.244  0.3200 -0.2680  0.2542
 1009YOPC   NC314387   5.576  10.540   4.844  0.1273  0.1536  0.0764
 1009YOPC   PO414388   5.886  10.373   5.156  0.2177  0.2397  0.2283
 1009YOPC   GL114389   5.894  10.209   5.581 -0.0300 -0.2479  0.1590
 1009YOPC   GL214390   6.171  10.124   5.774  0.1137 -0.2679 -0.0757
 1009YOPC   C1A14391   5.840  10.446   5.979  0.2205  0.1500 -0.3661
 1009YOPC   D2A14392   5.657  10.635   6.303 -0.3402  0.2811 -0.2922
 1009YOPC   C3A14393   5.563  10.488   6.646 -0.3000  0.0911  0.0194
 1009YOPC   C4A14394   5.047  10.446   6.734  0.2468 -0.3123 -0.0421
 1009YOPC   C1B14395   6.234  10.087   6.188  0.1127 -0.1245 -0.1635
 1009YOPC   C2B14396   6.126  10.413   6.449 -0.2119 -0.2087 -0.0459
 1009YOPC   D3B14397   6.090  10.713   6.752  0.1802  0.4326  0.0347
 1009YOPC   C4B14398   6.382  11.005   6.850 -0.4910  0.0541  0.0974
 1010YOPC   NC314399   5.729  12.642   4.989  0.0679  0.2459  0.1313
 1010YOPC   PO414400   5.307  12.738   5.102 -0.2157 -0.0392  0.3206
 1010YOPC   GL114401   5.274  12.879   5.489 -0.2176 -0.1651 -0.3716
 1010YOPC   GL214402   5.199  13.231   5.486  0.5038  0.1839 -0.0534
 1010YOPC   C1A14403   5.331  12.673   5.836  0.0199 -0.2926 -0.2253
 1010YOPC   D2A14404   5.489  12.414   5.923  0.0788  0.0579  0.0850
 1010YOPC   C3A14405   5.641  12.187   6.339  0.1942  0.0149 -0.2550
 1010YOPC   C4A14406   6.025  11.948   6.611  0.1116  0.0756 -0.1907
 1010YOPC   C1B14407   5.380  13.219   5.849  0.0137  0.2507  0.0156
 1010YOPC   C2B14408   5.450  12.917   6.265  0.1223 -0.1533 -0.1544
 1010YOPC   D3B14409   5.730  12.731   6.301 -0.0157  0.0065 -0.0652
 1010YOPC   C4B14410   5.926  12.503   6.520 -0.2036  0.1573  0.2040
 1011YOPC   NC314411   7.895  18.645   5.787 -0.4358 -0.0517 -0.1697
 1011YOPC   PO414412   7.432  18.519   5.515  0.1184  0.1190  0.1927
 1011YOPC   GL114413   7.393  18.424   5.941  0.0719  0.2999 -0.0189
 1011YOPC   GL214414   7.711  18.418   6.192  0.2096 -0.1031  0.0732
 1011YOPC   C1A14415   7.211  18.365   6.302 -0.1038  0.0771 -0.0492
 1011YOPC   D2A14416   7.264  18.520   6.750 -0.1910 -0.0925 -0.0411
 1011YOPC   C3A14417   7.174  18.576   7.128 -0.0466 -0.0655 -0.2417
 1011YOPC   C4A14418   7.249  18.696   7.522  0.1583  0.1393  0.0760
 1011YOPC   C1B14419   7.735  18.574   6.578  0.2703  0.2274 -0.0189
 1011YOPC   C2B14420   8.070  18.755   6.796 -0.2059 -0.1111  0.0658
 1011YOPC   D3B14421   8.034  18.994   7.141  0.1380  0.0706 -0.0392
 1011YOPC   C4B14422   8.122  19.224   7.508  0.0953  0.1390 -0.3075
 1012YOPC   NC314423  18.362   7.691   4.627  0.0164 -0.0041 -0.0574
 1012YOPC   PO414424  18.262   8.162   4.855 -0.2254 -0.1973  0.2342
 1012YOPC   GL114425  18.152   8.163   5.348 -0.1622 -0.1119  0.1399
 1012YOPC   GL214426  18.097   8.421   5.547 -0.1078 -0.0078  0.1484
 1012YOPC   C1A14427  18.380   8.031   5.712  0.0408  0.0229 -0.0963
 1012YOPC   D2A14428  18.500   7.968   6.161  0.0666 -0.1741 -0.1739
 1012YOPC   C3A14429  18.763   8.155   6.485  0.0646 -0.3186 -0.2631
 1012YOPC   C4A14430  18.832   8.086   6.947 -0.0759  0.0289  0.1469
 1012YOPC   C1B14431  17.827   8.488   5.876 -0.1187 -0.0115  0.2021
 1012YOPC   C2B14432  17.749   8.742   6.323 -0.1666  0.0235  0.0277
 1012YOPC   D3B14433  18.043   8.768   6.719  0.0647  0.2121  0.0554
 1012YOPC   C4B14434  18.497   8.522   6.773  0.1162 -0.1887 -0.1266
 1013YOPC   NC314435  17.608   7.196   4.666 -0.2156  0.1176  0.2071
 1013YOPC   PO414436  17.967   6.918   4.912 -0.1172 -0.2448 -0.0247
 1013YOPC   GL114437  17.845   7.031   5.367  0.1298  0.2002 -0.3082
 1013YOPC   GL214438  18.211   6.982   5.378 -0.3095  0.1645 -0.2226
 1013YOPC   C1A14439  17.790   7.035   5.697 -0.0527 -0.0459  0.0977
 1013YOPC   D2A14440  18.142   7.228   5.833  0.3761  0.0204 -0.0533
 1013YOPC   C3A14441  18.050   7.650   5.584 -0.3701 -0.2466  0.3743
 1013YOPC   C4A14442  17.944   7.552   5.120 -0.0669  0.0105  0.2027
 1013YOPC   C1B14443  18.595   6.956   5.599 -0.1837 -0.1482  0.6627
 1013YOPC   C2B14444  18.859   7.070   5.876 -0.0493 -0.0315  0.0896
 1013YOPC   D3B14445  19.189   6.831   6.146  0.1028  0.0396 -0.0292
 1013YOPC   C4B14446  19.239   6.539   6.425 -0.0090 -0.0799  0.1614
 1014YOPC   NC314447   0.715  12.933   5.530  0.4184  0.0861  0.1897
 1014YOPC   PO414448   1.184  13.071   5.454 -0.1582 -0.2863 -0.0537
 1014YOPC   GL114449   0.997  13.075   5.899 -0.1558 -0.1166  0.2566
 1014YOPC   GL214450   0.792  13.339   5.880  0.0122  0.0747 -0.1296
 1014YOPC   C1A14451   0.952  12.747   6.150 -0.0208 -0.0564  0.2237
 1014YOPC   D2A14452   1.089  12.517   6.642 -0.1464  0.1413 -0.3357
 1014YOPC   C3A14453   1.087  12.228   7.008 -0.0594  0.0064  0.2955
 1014YOPC   C4A14454   1.228  11.971   7.330  0.2300  0.3117 -0.2484
 1014YOPC   C1B14455   0.722  13.215   6.263 -0.1873 -0.1738  0.0110
 1014YOPC   C2B14456   0.398  13.416   6.578  0.2930 -0.1476 -0.0955
 1014YOPC   D3B14457   0.144  13.403   6.986 -0.0623 -0.1259 -0.0520
 1014YOPC   C4B14458  -0.146  13.297   7.234 -0.2269 -0.1503 -0.0715
 1015YOPC   NC314459  11.469  14.977   5.090 -0.1839 -0.1385  0.1080
 1015YOPC   PO414460  11.480  15.166   5.476  0.2253  0.0020  0.0597
 1015YOPC   GL114461  11.525  15.077   5.967  0.0035 -0.3593 -0.1109
 1015YOPC   GL214462  11.726  14.850   6.019 -0.2213  0.1788  0.1015
 1015YOPC   C1A14463  11.556  15.018   6.418  0.2327  0.0647  0.0680
 1015YOPC   D2A14464  11.672  15.157   6.854  0.4128  0.2516 -0.1800
 1015YOPC   C3A14465  11.856  15.086   7.310  0.1737  0.4117  0.0806
 1015YOPC   C4A14466  11.670  14.895   7.709 -0.1600 -0.0369  0.1025
 1015YOPC   C1B14467  12.002  14.633   6.213  0.0037 -0.0513  0.1793
 1015YOPC   C2B14468  12.027  14.431   6.559  0.1802  0.4173 -0.0261
 1015YOPC   D3B14469  11.834  14.111   6.471 -0.0129  0.2498 -0.0198
 1015YOPC   C4B14470  11.687  13.785   6.191  0.3617  0.0811 -0.1646
 1016YOPC   NC314471  17.643  11.785   5.514 -0.2158  0.2799 -0.1232
 1016YOPC   PO414472  17.268  11.596   5.790 -0.0521  0.0299  0.4165
 1016YOPC   GL114473  17.227  11.390   6.136 -0.1381  0.0394 -0.0453
 1016YOPC   GL214474  17.026  11.093   6.120  0.1767  0.0975  0.0375
 1016YOPC   C1A14475  16.988  11.396   6.526  0.0414  0.1238  0.1599
 1016YOPC   D2A14476  16.738  11.239   6.844 -0.0054  0.0142 -0.0573
 1016YOPC   C3A14477  16.689  11.004   7.107 -0.1236 -0.1826  0.2260
 1016YOPC   C4A14478  16.419  10.828   7.361 -0.0453  0.0640  0.4050
 1016YOPC   C1B14479  17.044  10.836   6.468 -0.2918 -0.0310  0.0210
 1016YOPC   C2B14480  16.885  10.764   6.753  0.1244 -0.0653 -0.0864
 1016YOPC   D3B14481  17.250  10.539   6.827 -0.1047  0.2226 -0.3020
 1016YOPC   C4B14482  17.589  10.490   6.935  0.1452 -0.2196  0.2695
 1017YOPC   NC314483   1.580   3.384   5.910 -0.0805 -0.4937  0.0411
 1017YOPC   PO414484   1.561   2.889   5.980 -0.0910 -0.3836 -0.0905
 1017YOPC   GL114485   1.378   2.748   6.502  0.0965  0.1450  0.5764
 1017YOPC   GL214486   1.669   2.510   6.603  0.1495  0.0483 -0.2645
 1017YOPC   C1A14487   1.196   2.673   6.843 -0.1870  0.2684 -0.1576
 1017YOPC   D2A14488   1.319   2.645   7.256 -0.0620 -0.3140 -0.2460
 1017YOPC   C3A14489   1.209   2.704   7.737  0.0378  0.1265 -0.1419
 1017YOPC   C4A14490   1.305   2.430   8.060  0.1827 -0.0532 -0.1268
 1017YOPC   C1B14491   1.717   2.795   6.981  0.3759  0.5973 -0.3393
 1017YOPC   C2B14492   1.863   3.015   7.292  0.3630  0.1358 -0.0040
 1017YOPC   D3B14493   2.232   3.187   7.494 -0.1140  0.3277 -0.1127
 1017YOPC   C4B14494   2.357   3.610   7.586 -0.0223  0.1002  0.2659
 1018YOPC   NC314495   8.251  16.634   5.382  0.0296  0.2592  0.0372
 1018YOPC   PO414496   7.883  16.778   5.410 -0.1578  0.2252  0.5910
 1018YOPC   GL114497   7.907  16.756   5.760  0.4621  0.1352 -0.0071
 1018YOPC   GL214498   8.249  16.620   5.962 -0.1152  0.2029  0.3001
 1018YOPC   C1A14499   7.851  16.618   6.200  0.0003 -0.2415  0.2308
 1018YOPC   D2A14500   7.809  16.635   6.644 -0.4655 -0.3196 -0.0723
 1018YOPC   C3A14501   7.634  16.614   6.949 -0.1233 -0.2323  0.3040
 1018YOPC   C4A14502   7.360  16.482   7.261  0.0899 -0.1323  0.0383
 1018YOPC   C1B14503   8.338  16.180   6.047  0.1656 -0.0271  0.0676
 1018YOPC   C2B14504   8.545  15.839   6.165  0.1230  0.0752  0.2261
 1018YOPC   D3B14505   8.452  15.820   6.559 -0.1351 -0.0611 -0.1649
 1018YOPC   C4B14506   8.662  16.089   6.930  0.2449  0.2019 -0.0660
 1019YOPC   NC314507   4.349   6.078   5.394  0.4121 -0.1030 -0.0007
 1019YOPC   PO414508   4.201   5.998   5.775  0.1723 -0.0198  0.0788
 1019YOPC   GL114509   4.204   6.042   6.220  0.2098 -0.0957  0.0141
 1019YOPC   GL214510   4.333   6.240   6.229 -0.2876  0.0811 -0.1055
 1019YOPC   C1A14511   4.296   6.097   6.721  0.1739 -0.1636  0.2079
 1019YOPC   D2A14512   4.503   5.914   7.115 -0.0733  0.1448 -0.2273
 1019YOPC   C3A14513   4.282   6.114   7.502 -0.4030 -0.0315  0.0814
 1019YOPC   C4A14514   4.010   6.289   7.788  0.0280  0.3144  0.1622
 1019YOPC   C1B14515   4.417   6.565   6.597 -0.3723  0.1153 -0.1526
 1019YOPC   C2B14516   4.457   6.993   6.827  0.1877 -0.1263 -0.2847
 1019YOPC   D3B14517   4.356   6.997   7.195 -0.1539  0.0590 -0.0919
 1019YOPC   C4B14518   4.245   7.287   7.597 -0.1047 -0.2020  0.0416
 1020YOPC   NC314519  14.379   9.719   5.203 -0.0377  0.2237 -0.1929
 1020YOPC   PO414520  14.148   9.629   5.476  0.0191  0.0071  0.1640
 1020YOPC   GL114521  13.825   9.727   5.719  0.1575  0.2455  0.0657
 1020YOPC   GL214522  13.424   9.734   5.632 -0.2525  0.1281  0.2429
 1020YOPC   C1A14523  13.662   9.786   6.090 -0.3065  0.1929  0.0946
 1020YOPC   D2A14524  13.430   9.915   6.522  0.1217 -0.0571 -0.0693
 1020YOPC   C3A14525  13.158   9.720   6.857 -0.2317  0.4509 -0.0875
 1020YOPC   C4A14526  13.354   9.766   7.217 -0.1353  0.2567 -0.1237
 1020YOPC   C1B14527  13.123   9.741   5.946 -0.0570 -0.4549 -0.2047
 1020YOPC   C2B14528  12.944   9.845   6.391 -0.2614 -0.1875  0.1322
 1020YOPC   D3B14529  13.152  10.346   6.337 -0.2274 -0.1891 -0.1493
 1020YOPC   C4B14530  13.206  10.751   6.489  0.1187 -0.2091  0.1554
 1021YOPC   NC314531  15.591  15.036   5.775 -0.0315 -0.2923  0.1675
 1021YOPC   PO414532  15.207  14.990   5.738 -0.1879 -0.2064  0.0006
 1021YOPC   GL114533  15.189  15.226   6.140 -0.0250 -0.1062  0.1262
 1021YOPC   GL214534  14.871  15.178   6.385  0.2042 -0.2083 -0.0054
 1021YOPC   C1A14535  15.134  15.589   6.393 -0.1038 -0.1719 -0.1209
 1021YOPC   D2A14536  14.973  15.550   6.835 -0.0464  0.1511  0.2763
 1021YOPC   C3A14537  14.787  15.147   6.922  0.2400 -0.0999  0.1437
 1021YOPC   C4A14538  14.661  14.987   7.372  0.2877 -0.0830 -0.0147
 1021YOPC   C1B14539  15.245  15.122   6.722  0.3046 -0.0828 -0.3546
 1021YOPC   C2B14540  15.250  15.133   7.145  0.0246 -0.1822 -0.0443
 1021YOPC   D3B14541  15.123  15.304   7.535 -0.0848 -0.0398 -0.1022
 1021YOPC   C4B14542  15.150  15.196   7.880 -0.0508  0.2318 -0.2720
 1022YOPC   NC314543  13.629   5.217   6.216  0.0140  0.2152 -0.3099
 1022YOPC   PO414544  13.977   5.405   6.054  0.1857 -0.1518 -0.3706
 1022YOPC   GL114545  13.940   5.598   6.410 -0.1471 -0.0712  0.3010
 1022YOPC   GL214546  13.941   5.350   6.615 -0.3623 -0.0435 -0.1370
 1022YOPC   C1A14547  13.833   5.855   6.711 -0.0373  0.1714  0.1534
 1022YOPC   D2A14548  13.969   5.848   7.246 -0.2104 -0.1295  0.2762
 1022YOPC   C3A14549  13.605   5.595   7.521  0.1591  0.0293 -0.3073
 1022YOPC   C4A14550  13.301   5.252   7.582 -0.0633 -0.3979  0.1097
 1022YOPC   C1B14551  14.251   5.631   6.839 -0.0484 -0.3538 -0.1391
 1022YOPC   C2B14552  14.666   5.644   6.851 -0.0558 -0.1147  0.0076
 1022YOPC   D3B14553  14.594   5.568   7.296 -0.0701  0.0427  0.0141
 1022YOPC   C4B14554  14.804   5.672   7.751 -0.1620 -0.1222  0.1721
 1023YOPC   NC314555  14.098  15.177   5.779  0.0860  0.0241  0.0018
 1023YOPC   PO414556  14.462  15.461   5.816  0.1926 -0.1467 -0.0992
 1023YOPC   GL114557  14.445  15.305   6.161  0.0758  0.0162 -0.2801
 1023YOPC   GL214558  14.155  15.412   6.203 -0.0418  0.0048  0.0138
 1023YOPC   C1A14559  14.501  15.559   6.607 -0.0615 -0.0540 -0.2652
 1023YOPC   D2A14560  14.252  15.473   6.955 -0.3318  0.0344  0.1054
 1023YOPC   C3A14561  14.243  15.652   7.293 -0.0784  0.0001  0.1020
 1023YOPC   C4A14562  14.241  15.457   7.736 -0.2068 -0.2300 -0.2195
 1023YOPC   C1B14563  14.044  15.122   6.506  0.3205  0.1014 -0.0308
 1023YOPC   C2B14564  13.904  15.078   6.835  0.2909  0.1064 -0.0671
 1023YOPC   D3B14565  13.754  15.337   7.067 -0.1381  0.0140  0.0246
 1023YOPC   C4B14566  13.796  15.622   7.469 -0.0578 -0.0791  0.1320
 1024YOPC   NC314567   3.983  18.510   5.850  0.2848 -0.3576  0.0293
 1024YOPC   PO414568   4.313  18.896   5.901  0.1546  0.0374  0.0425
 1024YOPC   GL114569   4.607  18.714   6.100  0.1070 -0.1159  0.1044
 1024YOPC   GL214570   4.855  18.966   6.141  0.2856 -0.4507 -0.1083
 1024YOPC   C1A14571   4.663  18.719   6.585  0.3515 -0.1127  0.0140
 1024YOPC   D2A14572   4.348  18.696   6.970  0.2127 -0.3373  0.0135
 1024YOPC   C3A14573   3.994  19.014   6.997  0.3229 -0.0325 -0.0979
 1024YOPC   C4A14574   3.949  19.172   7.452 -0.3068  0.1844 -0.1296
 1024YOPC   C1B14575   4.686  19.265   6.396 -0.3021  0.1685  0.1699
 1024YOPC   C2B14576   4.567  19.171   6.861  0.1323 -0.3094 -0.0233
 1024YOPC   D3B14577   4.425  19.314   7.258 -0.0218  0.4628 -0.4068
 1024YOPC   C4B14578   4.305  19.473   7.569 -0.0018 -0.1794  0.1379
 1025YOPC   NC314579   4.514  11.265   4.611 -0.3310 -0.1152  0.0083
 1025YOPC   PO414580   4.319  10.970   4.940 -0.1740  0.2719  0.4227
 1025YOPC   GL114581   4.234  11.102   5.376 -0.1938  0.0765 -0.1172
 1025YOPC   GL214582   4.076  11.380   5.313  0.0064 -0.0248 -0.0190
 1025YOPC   C1A14583   4.342  11.008   5.788 -0.1554 -0.1300  0.1386
 1025YOPC   D2A14584   4.376  10.954   6.204  0.0909  0.0527 -0.2101
 1025YOPC   C3A14585   4.138  11.259   6.492  0.0032  0.1630  0.0339
 1025YOPC   C4A14586   4.068  11.334   6.971 -0.0077 -0.0278  0.2603
 1025YOPC   C1B14587   4.071  11.519   5.675  0.1745 -0.0791 -0.2227
 1025YOPC   C2B14588   3.780  11.668   6.068 -0.2415 -0.3799  0.0859
 1025YOPC   D3B14589   3.699  11.924   6.385  0.0856 -0.2241  0.0606
 1025YOPC   C4B14590   3.493  12.067   6.823 -0.0763 -0.1111 -0.1764
 1026YOPC   NC314591   3.577  14.497   5.189 -0.0969  0.0363 -0.2874
 1026YOPC   PO414592   4.007  14.700   5.384  0.3445 -0.0418 -0.0223
 1026YOPC   GL114593   3.898  14.770   5.759 -0.4661 -0.1013 -0.0107
 1026YOPC   GL214594   3.832  15.045   5.874 -0.1518 -0.2933 -0.1482
 1026YOPC   C1A14595   3.774  14.580   6.180  0.1488 -0.0259 -0.2394
 1026YOPC   D2A14596   3.904  14.539   6.603  0.1090 -0.1350  0.2735
 1026YOPC   C3A14597   4.275  14.722   6.717 -0.1581 -0.2011 -0.3619
 1026YOPC   C4A14598   4.644  14.622   6.993 -0.1255 -0.3916 -0.0351
 1026YOPC   C1B14599   4.163  14.907   6.184  0.1838  0.0738  0.3109
 1026YOPC   C2B14600   4.285  14.560   6.264 -0.0398  0.5066 -0.0013
 1026YOPC   D3B14601   4.075  14.172   6.282 -0.2902  0.0712 -0.0192
 1026YOPC   C4B14602   3.792  13.898   6.010  0.0335  0.0461 -0.0677
 1027YOPC   NC314603   2.429  16.271   5.190 -0.2795  0.1086  0.0632
 1027YOPC   PO414604   2.698  15.914   5.413  0.1421  0.1540 -0.0778
 1027YOPC   GL114605   2.777  16.105   5.789 -0.0963 -0.1890 -0.2132
 1027YOPC   GL214606   2.898  15.842   5.864 -0.3242  0.0974 -0.0928
 1027YOPC   C1A14607   2.560  16.179   6.149 -0.1293  0.0696  0.0382
 1027YOPC   D2A14608   2.376  16.178   6.479 -0.0200 -0.0255  0.0727
 1027YOPC   C3A14609   2.472  16.122   6.897  0.0549  0.0889  0.5267
 1027YOPC   C4A14610   2.584  15.674   6.985  0.1310  0.2522  0.2981
 1027YOPC   C1B14611   3.296  15.949   6.099 -0.0180 -0.0694 -0.1716
 1027YOPC   C2B14612   3.496  16.373   6.054 -0.2234 -0.0808  0.2614
 1027YOPC   D3B14613   3.766  16.544   6.290 -0.0160 -0.2901 -0.0652
 1027YOPC   C4B14614   4.240  16.403   6.460 -0.0544 -0.1950  0.0345
 1028YOPC   NC314615  10.764   0.010   5.895 -0.1368  0.2139  0.0003
 1028YOPC   PO414616  10.529   0.370   5.933  0.2302  0.1601  0.2144
 1028YOPC   GL114617  10.803   0.300   6.312  0.0808  0.0366  0.2589
 1028YOPC   GL214618  10.655   0.070   6.426  0.2912 -0.0601  0.1482
 1028YOPC   C1A14619  10.861   0.501   6.711 -0.5151  0.0448  0.3245
 1028YOPC   D2A14620  10.691   0.712   7.196 -0.1128 -0.0604 -0.0232
 1028YOPC   C3A14621  10.758   0.735   7.602 -0.2589  0.0865 -0.1211
 1028YOPC   C4A14622  11.074   0.541   7.827 -0.0369 -0.1964 -0.3946
 1028YOPC   C1B14623  10.428   0.335   6.740 -0.2622  0.0468  0.5566
 1028YOPC   C2B14624  10.387   0.251   7.154  0.1234 -0.0805  0.1507
 1028YOPC   D3B14625  10.387   0.355   7.555 -0.1979  0.1193  0.1143
 1028YOPC   C4B14626  10.491   0.337   7.980  0.4368 -0.1786  0.0325
 1029YOPC   NC314627  12.402  11.666   5.070 -0.2545  0.2179  0.1851
 1029YOPC   PO414628  12.462  11.904   5.430  0.3666  0.1585  0.0067
 1029YOPC   GL114629  12.563  12.080   5.786  0.0879  0.1986  0.3341
 1029YOPC   GL214630  12.863  11.950   5.796 -0.5091 -0.0079  0.3879
 1029YOPC   C1A14631  12.585  12.503   6.046 -0.0345  0.2392 -0.0435
 1029YOPC   D2A14632  12.864  12.583   6.353 -0.0691  0.1662 -0.3660
 1029YOPC   C3A14633  12.924  12.348   6.712 -0.1843  0.0613  0.1667
 1029YOPC   C4A14634  13.243  12.112   6.874  0.4130 -0.0235 -0.2938
 1029YOPC   C1B14635  13.066  11.718   6.002  0.1191 -0.3666 -0.0498
 1029YOPC   C2B14636  13.024  11.333   6.313 -0.1374  0.2985  0.3009
 1029YOPC   D3B14637  13.182  11.208   6.714 -0.0274  0.1266  0.4271
 1029YOPC   C4B14638  13.111  11.050   7.082 -0.1223  0.0245  0.1396
 1030YOPC   NC314639   1.588  14.313   5.060 -0.1121 -0.1639 -0.2115
 1030YOPC   PO414640   1.693  14.345   5.522 -0.1189  0.2321  0.1719
 1030YOPC   GL114641   1.553  14.539   5.912 -0.2858  0.0630  0.0869
 1030YOPC   GL214642   1.439  14.867   5.931 -0.1735 -0.3718 -0.1939
 1030YOPC   C1A14643   1.233  14.565   6.271 -0.2153 -0.1239  0.0694
 1030YOPC   D2A14644   1.344  14.642   6.723  0.0172  0.4879 -0.1441
 1030YOPC   C3A14645   1.314  14.502   7.058 -0.0864 -0.4466 -0.1228
 1030YOPC   C4A14646   1.523  14.131   7.277 -0.0229 -0.0170 -0.0155
 1030YOPC   C1B14647   1.513  15.175   6.291  0.0143 -0.1499 -0.4762
 1030YOPC   C2B14648   1.708  15.405   6.594  0.0392 -0.1733  0.2806
 1030YOPC   D3B14649   1.516  15.397   7.003 -0.1357 -0.2666  0.2129
 1030YOPC   C4B14650   1.364  14.994   7.322  0.1853  0.0111 -0.4311
 1031YOPC   NC314651   4.913  14.673   5.066  0.2815  0.1885  0.0402
 1031YOPC   PO414652   4.832  15.038   5.224  0.0057  0.1729  0.0631
 1031YOPC   GL114653   4.745  14.776   5.527  0.1549 -0.2165  0.3011
 1031YOPC   GL214654   4.433  14.929   5.674 -0.2960  0.2554 -0.1570
 1031YOPC   C1A14655   4.818  14.445   5.920 -0.1383 -0.1525 -0.1576
 1031YOPC   D2A14656   4.671  14.396   6.481 -0.2035  0.2539  0.1608
 1031YOPC   C3A14657   4.915  14.230   6.781 -0.2190 -0.1928 -0.1227
 1031YOPC   C4A14658   5.316  14.148   6.853 -0.3145 -0.0051 -0.2386
 1031YOPC   C1B14659   4.714  14.919   6.057  0.1581 -0.0442 -0.0219
 1031YOPC   C2B14660   4.721  14.878   6.523  0.3319  0.0990 -0.0449
 1031YOPC   D3B14661   5.017  14.739   6.714  0.1025 -0.1092 -0.0674
 1031YOPC   C4B14662   5.160  14.469   7.182  0.0430  0.0526  0.3472
 1032YOPC   NC314663   6.965   9.867   5.444  0.3747  0.1644  0.2794
 1032YOPC   PO414664   6.525   9.827   5.571  0.2493 -0.0472 -0.1885
 1032YOPC   GL114665   6.722  10.043   5.949 -0.1328  0.1593 -0.1070
 1032YOPC   GL214666   6.801   9.835   6.321  0.0306  0.3227 -0.4199
 1032YOPC   C1A14667   6.710  10.373   6.088 -0.2752 -0.0210 -0.0159
 1032YOPC   D2A14668   6.593  10.614   6.458 -0.3759  0.0128 -0.5230
 1032YOPC   C3A14669   6.927  10.692   6.858  0.1570 -0.1958  0.1608
 1032YOPC   C4A14670   7.323  10.332   6.949  0.0757  0.0711 -0.1293
 1032YOPC   C1B14671   6.553   9.923   6.629  0.1768  0.0373 -0.2699
 1032YOPC   C2B14672   6.417  10.288   6.848 -0.0265 -0.0364  0.2381
 1032YOPC   D3B14673   6.450  10.402   7.319 -0.2868  0.1894 -0.0066
 1032YOPC   C4B14674   6.568  10.254   7.683 -0.1365  0.0848  0.2298
 1033YOPC   NC314675   9.446   8.708   6.078  0.1971 -0.4150 -0.0468
 1033YOPC   PO414676   9.064   8.624   6.010  0.0510 -0.2354 -0.3125
 1033YOPC   GL114677   8.874   8.342   6.447  0.1563 -0.0164 -0.0351
 1033YOPC   GL214678   9.051   7.950   6.450 -0.0011 -0.0749 -0.1850
 1033YOPC   C1A14679   8.685   8.079   6.806 -0.1406 -0.1658  0.1544
 1033YOPC   D2A14680   8.687   8.129   7.206 -0.1043 -0.1263 -0.1082
 1033YOPC   C3A14681   8.930   8.247   7.601 -0.3195  0.0487  0.1498
 1033YOPC   C4A14682   9.046   8.216   8.059  0.4212 -0.1193 -0.0803
 1033YOPC   C1B14683   9.105   8.274   6.839 -0.3563 -0.0886  0.2260
 1033YOPC   C2B14684   9.197   8.676   7.059 -0.1803 -0.5017  0.2021
 1033YOPC   D3B14685   9.157   9.097   6.836  0.2089  0.1597  0.1820
 1033YOPC   C4B14686   9.457   9.521   6.967  0.0263 -0.3403 -0.0109
 1034YOPC   NC314687   4.933  12.406   4.907 -0.1815  0.2602  0.1803
 1034YOPC   PO414688   4.839  12.771   4.739  0.3438  0.0293 -0.2573
 1034YOPC   GL114689   4.649  12.901   5.117 -0.0867  0.3087  0.1066
 1034YOPC   GL214690   4.370  13.032   5.232  0.0272  0.1720 -0.1572
 1034YOPC   C1A14691   4.779  12.775   5.570  0.0349 -0.3727 -0.0027
 1034YOPC   D2A14692   4.898  12.380   5.905  0.1850  0.3146  0.0250
 1034YOPC   C3A14693   5.106  12.520   6.278  0.0995 -0.0276 -0.0828
 1034YOPC   C4A14694   5.389  12.530   6.687 -0.1831  0.0029 -0.0831
 1034YOPC   C1B14695   4.156  12.875   5.559  0.1772  0.0050 -0.1692
 1034YOPC   C2B14696   3.889  12.536   5.801 -0.3985 -0.0949  0.0470
 1034YOPC   D3B14697   3.972  12.421   6.191 -0.2403  0.0595 -0.2177
 1034YOPC   C4B14698   4.263  12.243   6.503  0.2187 -0.0044 -0.2954
 1035YOPC   NC314699  17.317  15.045   5.211 -0.3027  0.2820 -0.0045
 1035YOPC   PO414700  17.249  15.458   5.242  0.0991 -0.1406 -0.1609
 1035YOPC   GL114701  17.166  15.464   5.722  0.0060  0.0243 -0.1177
 1035YOPC   GL214702  16.952  15.383   5.819 -0.0718  0.0727  0.0338
 1035YOPC   C1A14703  17.316  15.338   6.187 -0.3857 -0.0214  0.2020
 1035YOPC   D2A14704  17.543  15.214   6.525  0.0050  0.0300  0.2923
 1035YOPC   C3A14705  17.286  14.889   6.886 -0.1154 -0.1361 -0.1316
 1035YOPC   C4A14706  17.470  14.653   7.181  0.0578  0.0585  0.0989
 1035YOPC   C1B14707  17.102  14.993   5.871 -0.0598 -0.0002 -0.1760
 1035YOPC   C2B14708  17.386  14.811   6.169  0.3176 -0.2008 -0.0271
 1035YOPC   D3B14709  17.160  14.537   6.476  0.2537 -0.0507 -0.0739
 1035YOPC   C4B14710  17.036  14.426   6.954 -0.3479 -0.0349  0.1676
 1036YOPC   NC314711   9.919  17.135   5.779 -0.3179  0.0610 -0.3243
 1036YOPC   PO414712   9.552  17.210   5.724 -0.0018 -0.0332  0.1982
 1036YOPC   GL114713   9.208  17.204   5.982  0.1895  0.0328 -0.1508
 1036YOPC   GL214714   9.083  17.499   6.025  0.1269  0.2121 -0.2255
 1036YOPC   C1A14715   9.085  17.120   6.352  0.0793 -0.1278  0.1771
 1036YOPC   D2A14716   9.158  17.304   6.737  0.2398  0.2425  0.1706
 1036YOPC   C3A14717   8.982  17.655   7.042  0.0719  0.1865  0.1735
 1036YOPC   C4A14718   9.018  17.883   7.363 -0.1716  0.2998 -0.0734
 1036YOPC   C1B14719   9.008  17.661   6.432 -0.2278  0.0509 -0.1391
 1036YOPC   C2B14720   9.424  17.713   6.786 -0.2373  0.1725 -0.0212
 1036YOPC   D3B14721   9.418  17.562   7.259 -0.3447 -0.2562 -0.0143
 1036YOPC   C4B14722   9.389  17.421   7.757 -0.1933 -0.1748 -0.1773
 1037YOPC   NC314723   3.464  13.526   5.013 -0.0731 -0.1357  0.2799
 1037YOPC   PO414724   3.682  13.736   5.381  0.2583  0.0301 -0.0655
 1037YOPC   GL114725   3.388  13.398   5.626 -0.0968 -0.1173 -0.2016
 1037YOPC   GL214726   3.512  13.100   5.632  0.1830  0.0450  0.1402
 1037YOPC   C1A14727   3.303  13.371   6.044 -0.4220  0.0895  0.1030
 1037YOPC   D2A14728   3.240  13.246   6.451 -0.2681 -0.3242  0.2567
 1037YOPC   C3A14729   3.343  13.517   6.808  0.0449 -0.0634 -0.2720
 1037YOPC   C4A14730   3.567  13.437   7.240  0.2876 -0.0376 -0.0425
 1037YOPC   C1B14731   3.730  12.996   5.932  0.0871 -0.1094  0.2763
 1037YOPC   C2B14732   4.110  12.925   6.189  0.0812  0.1130 -0.0589
 1037YOPC   D3B14733   4.479  12.970   5.943 -0.0571  0.0832 -0.0988
 1037YOPC   C4B14734   4.905  12.970   6.037  0.0877  0.1573  0.2191
 1038YOPC   NC314735   7.928   4.151   6.116  0.1568  0.2819  0.0622
 1038YOPC   PO414736   8.289   4.391   6.137  0.0827 -0.2433  0.1247
 1038YOPC   GL114737   8.068   4.431   6.504  0.2167  0.1490 -0.0960
 1038YOPC   GL214738   7.764   4.549   6.568  0.1640  0.4245  0.1756
 1038YOPC   C1A14739   8.113   4.446   6.880  0.0081  0.0204 -0.2793
 1038YOPC   D2A14740   8.426   4.504   7.288 -0.2070 -0.1352  0.2848
 1038YOPC   C3A14741   8.660   4.139   7.327 -0.2701  0.0065  0.0652
 1038YOPC   C4A14742   8.559   3.770   7.447 -0.1370 -0.1456  0.1169
 1038YOPC   C1B14743   7.618   4.560   6.985  0.2875 -0.1565  0.1575
 1038YOPC   C2B14744   7.432   4.506   7.349 -0.0194 -0.1909  0.0419
 1038YOPC   D3B14745   7.544   4.563   7.693 -0.1919  0.1263  0.0031
 1038YOPC   C4B14746   7.475   4.778   8.009  0.0257  0.2759  0.0943
 1039YOPC   NC314747   1.703   0.770   5.705 -0.2930  0.0422  0.0256
 1039YOPC   PO414748   1.749   0.332   5.796  0.2385  0.1032  0.0031
 1039YOPC   GL114749   1.819   0.010   6.063  0.3350  0.0420  0.0148
 1039YOPC   GL214750   2.045   0.008   6.247 -0.0925  0.0005 -0.0303
 1039YOPC   C1A14751   1.662  -0.105   6.524  0.0311  0.1461 -0.3358
 1039YOPC   D2A14752   1.452  -0.439   6.773  0.1407 -0.1994 -0.1842
 1039YOPC   C3A14753   1.020  -0.508   6.801 -0.0979  0.1748 -0.1096
 1039YOPC   C4A14754   0.732  -0.199   6.678  0.0239 -0.3608 -0.0780
 1039YOPC   C1B14755   2.362  -0.020   6.652  0.0912 -0.1126  0.1020
 1039YOPC   C2B14756   2.451   0.136   7.062  0.0904  0.0836 -0.0079
 1039YOPC   D3B14757   2.100   0.018   7.375  0.0657 -0.1585  0.3236
 1039YOPC   C4B14758   1.674  -0.205   7.425 -0.3091 -0.0778  0.0344
 1040YOPC   NC314759   7.612   3.287   5.629  0.1717 -0.0954  0.0393
 1040YOPC   PO414760   7.428   2.996   6.025 -0.0815 -0.2182 -0.2771
 1040YOPC   GL114761   7.509   2.749   6.374  0.3062  0.6170 -0.0121
 1040YOPC   GL214762   7.834   2.845   6.371 -0.1799 -0.2043 -0.0971
 1040YOPC   C1A14763   7.488   2.596   6.799 -0.0089 -0.2777  0.0691
 1040YOPC   D2A14764   7.739   2.426   7.055  0.0428  0.1235  0.0218
 1040YOPC   C3A14765   7.594   2.263   7.381 -0.1258 -0.1282 -0.2218
 1040YOPC   C4A14766   7.291   2.409   7.698 -0.2576  0.0402 -0.2980
 1040YOPC   C1B14767   8.118   2.833   6.736 -0.4703  0.1679 -0.2882
 1040YOPC   C2B14768   8.532   3.026   6.892 -0.2227 -0.1268  0.1988
 1040YOPC   D3B14769   8.987   3.104   7.027 -0.1388  0.1071 -0.0692
 1040YOPC   C4B14770   9.191   3.247   7.401  0.3929  0.0234 -0.3572
 1041YOPC   NC314771   9.708   0.666   6.255 -0.2175 -0.1439  0.1326
 1041YOPC   PO414772  10.035   0.791   6.348 -0.1188 -0.0056  0.2104
 1041YOPC   GL114773   9.956   0.998   6.660  0.0745  0.0893 -0.2091
 1041YOPC   GL214774   9.947   1.313   6.619  0.0965  0.1291  0.2388
 1041YOPC   C1A14775   9.981   1.095   7.149 -0.3462 -0.0210 -0.3850
 1041YOPC   D2A14776  10.331   0.943   7.415  0.0951  0.0545 -0.0050
 1041YOPC   C3A14777  10.086   0.686   7.748  0.1113 -0.3432 -0.0309
 1041YOPC   C4A14778  10.037   0.638   8.191  0.1064 -0.1327  0.0350
 1041YOPC   C1B14779   9.917   1.580   6.962 -0.0458 -0.1721  0.3191
 1041YOPC   C2B14780  10.086   1.585   7.361 -0.2742  0.2060  0.3124
 1041YOPC   D3B14781   9.868   1.264   7.649  0.1962 -0.1718  0.1955
 1041YOPC   C4B14782   9.795   1.115   8.117 -0.0826  0.0358  0.2257
 1042YOPC   NC314783   3.757   6.802   5.398 -0.1089 -0.3859  0.1431
 1042YOPC   PO414784   3.953   6.923   5.763 -0.2456  0.0298  0.0875
 1042YOPC   GL114785   3.941   6.740   6.145 -0.0203  0.0336 -0.0511
 1042YOPC   GL214786   3.724   6.852   6.323  0.2267 -0.0153  0.1527
 1042YOPC   C1A14787   4.026   6.962   6.638 -0.2856  0.1766  0.0623
 1042YOPC   D2A14788   3.908   7.156   6.994  0.1696  0.1967 -0.1633
 1042YOPC   C3A14789   3.916   7.028   7.442 -0.2908  0.2224 -0.1351
 1042YOPC   C4A14790   3.844   7.081   7.829  0.2102  0.1226 -0.1132
 1042YOPC   C1B14791   3.527   6.920   6.716  0.1833 -0.2035 -0.1579
 1042YOPC   C2B14792   3.239   6.732   7.071 -0.2016 -0.0087  0.2200
 1042YOPC   D3B14793   2.909   6.798   7.303  0.0371  0.0646 -0.1921
 1042YOPC   C4B14794   2.873   7.131   7.528 -0.1070 -0.2579 -0.0070
 1043YOPC   NC314795   3.787   1.268   5.732 -0.0669  0.3083  0.4292
 1043YOPC   PO414796   4.215   1.263   5.624 -0.1929 -0.1295 -0.0033
 1043YOPC   GL114797   4.412   1.395   6.030  0.5537  0.2139  0.3288
 1043YOPC   GL214798   4.730   1.476   6.177 -0.1421 -0.2037 -0.1299
 1043YOPC   C1A14799   4.322   1.697   6.462 -0.0066  0.0252  0.0109
 1043YOPC   D2A14800   4.118   2.010   6.634 -0.0057 -0.0623 -0.0548
 1043YOPC   C3A14801   4.067   1.882   7.065  0.2216 -0.0513  0.0855
 1043YOPC   C4A14802   3.903   2.124   7.346 -0.0491 -0.1431 -0.2035
 1043YOPC   C1B14803   4.733   1.425   6.572  0.1630  0.1122 -0.2711
 1043YOPC   C2B14804   4.986   1.439   6.946 -0.3844 -0.0704 -0.1827
 1043YOPC   D3B14805   4.961   0.953   7.177 -0.1923  0.2480  0.0493
 1043YOPC   C4B14806   5.406   0.726   7.124 -0.1549  0.2780 -0.0752
 1044YOPC   NC314807   0.889  15.677   5.236 -0.0719  0.0420  0.3183
 1044YOPC   PO414808   0.623  15.954   5.249 -0.0041 -0.0719 -0.1571
 1044YOPC   GL114809   0.541  15.828   5.584 -0.0544 -0.2698 -0.0014
 1044YOPC   GL214810   0.626  15.935   5.751  0.0122 -0.2985 -0.1510
 1044YOPC   C1A14811   0.267  15.609   5.949  0.0363 -0.1086 -0.1878
 1044YOPC   D2A14812  -0.009  15.484   6.284 -0.2886 -0.2828  0.0043
 1044YOPC   C3A14813   0.117  15.580   6.710 -0.1182  0.0949  0.0120
 1044YOPC   C4A14814   0.206  15.780   7.048 -0.0502 -0.1766  0.0456
 1044YOPC   C1B14815   0.582  16.097   6.188 -0.1898  0.2129 -0.0155
 1044YOPC   C2B14816   0.468  15.926   6.545 -0.1568 -0.2503 -0.3341
 1044YOPC   D3B14817   0.454  16.193   6.890  0.1322 -0.3154 -0.1993
 1044YOPC   C4B14818   0.596  16.596   6.981 -0.2785  0.0363 -0.0813
 1045YOPC   NC314819   7.922   8.234   5.917 -0.1493  0.0212 -0.3087
 1045YOPC   PO414820   8.432   8.278   5.984 -0.1503  0.0158  0.1252
 1045YOPC   GL114821   8.575   8.660   6.167  0.0539  0.0641  0.0969
 1045YOPC   GL214822   8.435   8.970   6.215 -0.0099 -0.2176 -0.1754
 1045YOPC   C1A14823   8.794   8.886   6.518  0.0498  0.2176  0.2721
 1045YOPC   D2A14824   8.677   9.052   6.968  0.3535  0.1257  0.1021
 1045YOPC   C3A14825   8.797   9.240   7.287 -0.0257  0.3874 -0.1369
 1045YOPC   C4A14826   9.210   9.255   7.346 -0.2255 -0.4780 -0.0705
 1045YOPC   C1B14827   8.349   8.988   6.590  0.4076  0.0453  0.0982
 1045YOPC   C2B14828   8.209   8.850   7.010 -0.0256 -0.2522  0.1076
 1045YOPC   D3B14829   8.250   8.926   7.323  0.1619  0.1371 -0.0235
 1045YOPC   C4B14830   8.591   9.082   7.702  0.5159 -0.3510 -0.0100
 1046YOPC   NC314831  10.242   8.795   5.883  0.0042  0.0387  0.2291
 1046YOPC   PO414832  10.509   9.106   5.764  0.0561 -0.3464 -0.2586
 1046YOPC   GL114833  10.675   9.377   6.194 -0.1545 -0.0063  0.0599
 1046YOPC   GL214834  10.776   9.656   6.137 -0.1220 -0.2899  0.0565
 1046YOPC   C1A14835  10.653   9.458   6.586  0.1615 -0.0725  0.1626
 1046YOPC   D2A14836  10.441   9.718   6.849 -0.2406 -0.0946 -0.1052
 1046YOPC   C3A14837  10.495   9.793   7.206 -0.1283 -0.1151  0.0447
 1046YOPC   C4A14838  10.212   9.774   7.556  0.1657 -0.1310 -0.1071
 1046YOPC   C1B14839  10.279   9.790   6.229  0.1840 -0.0564  0.1229
 1046YOPC   C2B14840  10.020   9.720   6.490 -0.0214 -0.1500 -0.0629
 1046YOPC   D3B14841   9.608   9.695   6.482  0.2260 -0.1743 -0.0127
 1046YOPC   C4B14842   9.292   9.517   6.507  0.0644 -0.0993 -0.3321
 1047YOPC   NC314843   9.943  14.903   5.633  0.3395  0.1425 -0.1524
 1047YOPC   PO414844   9.653  14.586   5.743 -0.1209 -0.4917  0.0876
 1047YOPC   GL114845   9.908  14.499   5.985 -0.0529  0.0089  0.0800
 1047YOPC   GL214846  10.319  14.542   6.032  0.2691 -0.0169  0.0501
 1047YOPC   C1A14847  10.006  14.220   6.297 -0.1552  0.1092 -0.1089
 1047YOPC   D2A14848   9.790  13.943   6.546  0.0900  0.0310 -0.0037
 1047YOPC   C3A14849  10.008  13.853   6.929 -0.0322 -0.1214  0.3921
 1047YOPC   C4A14850  10.255  13.869   7.253 -0.1895 -0.1326 -0.0083
 1047YOPC   C1B14851  10.156  14.743   6.435  0.1990 -0.0212 -0.3065
 1047YOPC   C2B14852  10.005  15.077   6.690 -0.3308 -0.1663  0.0803
 1047YOPC   D3B14853   9.588  15.026   6.937 -0.1282  0.1824  0.0192
 1047YOPC   C4B14854   9.308  14.942   7.322  0.1445  0.0537  0.1586
 1048YOPC   NC314855   3.653  11.195   4.549 -0.1726 -0.1342  0.1437
 1048YOPC   PO414856   3.351  11.196   4.795  0.0671 -0.3141  0.1831
 1048YOPC   GL114857   3.370  11.022   5.253  0.0557 -0.0287  0.0882
 1048YOPC   GL214858   3.572  11.246   5.499  0.1238  0.2857 -0.0067
 1048YOPC   C1A14859   3.623  10.763   5.544  0.0921  0.2646 -0.1765
 1048YOPC   D2A14860   3.681  10.743   5.972 -0.4361  0.0057  0.0454
 1048YOPC   C3A14861   3.995  10.745   6.417  0.0560 -0.3624 -0.4966
 1048YOPC   C4A14862   3.955  10.899   6.850  0.1199  0.2272 -0.1973
 1048YOPC   C1B14863   3.780  11.208   5.944  0.2102 -0.0591 -0.1382
 1048YOPC   C2B14864   3.687  11.357   6.435  0.2584  0.0822  0.3382
 1048YOPC   D3B14865   3.461  11.120   6.742 -0.0726 -0.0656 -0.0825
 1048YOPC   C4B14866   3.282  10.764   6.894  0.3687  0.1581  0.1529
 1049YOPC   NC314867   2.323   4.578   5.944 -0.2347  0.2529  0.0616
 1049YOPC   PO414868   2.238   4.270   6.180  0.0412  0.1911  0.0094
 1049YOPC   GL114869   1.793   4.312   6.477 -0.1472 -0.5048  0.3302
 1049YOPC   GL214870   1.652   4.034   6.423  0.0321  0.0344 -0.1515
 1049YOPC   C1A14871   1.540   4.436   6.893  0.3365  0.1839  0.0500
 1049YOPC   D2A14872   1.554   4.645   7.204  0.0005 -0.0443  0.0180
 1049YOPC   C3A14873   1.427   4.618   7.708 -0.0323 -0.1112 -0.1320
 1049YOPC   C4A14874   1.224   4.486   8.122 -0.5740  0.0521 -0.0119
 1049YOPC   C1B14875   1.793   3.965   6.874  0.0598  0.1677  0.1074
 1049YOPC   C2B14876   1.724   3.812   7.230 -0.1124  0.0916  0.0054
 1049YOPC   D3B14877   1.895   3.511   7.573 -0.0308  0.2650  0.3837
 1049YOPC   C4B14878   1.961   3.224   7.952  0.3957 -0.3224  0.2580
 1050YOPC   NC314879  18.004   9.254   4.560  0.0497 -0.0469  0.0087
 1050YOPC   PO414880  17.849   8.905   4.849 -0.2111  0.1292 -0.0063
 1050YOPC   GL114881  17.947   8.896   5.345  0.0910 -0.3426 -0.1795
 1050YOPC   GL214882  17.664   8.855   5.541  0.3196 -0.0221  0.1234
 1050YOPC   C1A14883  18.115   8.911   5.804 -0.6623 -0.3651  0.2479
 1050YOPC   D2A14884  18.190   8.980   6.257 -0.1219 -0.1593 -0.0868
 1050YOPC   C3A14885  18.611   9.026   6.467 -0.2500  0.0824  0.2398
 1050YOPC   C4A14886  18.926   9.363   6.235  0.1892 -0.0652  0.1961
 1050YOPC   C1B14887  17.560   9.031   5.956 -0.3150 -0.3467  0.0770
 1050YOPC   C2B14888  17.249   8.993   6.269  0.0896  0.1099 -0.0141
 1050YOPC   D3B14889  16.947   8.651   6.328  0.0918  0.0164  0.1097
 1050YOPC   C4B14890  16.897   8.243   6.375 -0.2073 -0.0224  0.1229
 1051YOPC   NC314891   6.274  15.982   5.168  0.2750  0.1891  0.2131
 1051YOPC   PO414892   6.305  15.934   5.605  0.3243 -0.2086  0.1182
 1051YOPC   GL114893   6.443  16.204   5.999  0.1248  0.0969  0.0530
 1051YOPC   GL214894   6.751  16.266   6.141  0.0539  0.0911  0.0325
 1051YOPC   C1A14895   6.229  16.231   6.316  0.0505  0.2328  0.1340
 1051YOPC   D2A14896   6.409  16.449   6.520 -0.1616  0.0160 -0.1358
 1051YOPC   C3A14897   6.446  16.399   6.945 -0.1016  0.0371 -0.1894
 1051YOPC   C4A14898   6.233  16.313   7.396  0.4167 -0.2828  0.2395
 1051YOPC   C1B14899   6.952  16.474   6.442 -0.0572  0.0439  0.1024
 1051YOPC   C2B14900   6.674  16.824   6.673 -0.0879  0.3746 -0.0725
 1051YOPC   D3B14901   6.671  16.994   7.084 -0.0597 -0.0027 -0.2407
 1051YOPC   C4B14902   6.859  16.810   7.490 -0.2514  0.0049 -0.1489
 1052YOPC   NC314903  13.981   2.585   5.903  0.1385 -0.1367  0.0185
 1052YOPC   PO414904  14.204   2.859   6.179  0.3299  0.0675  0.0611
 1052YOPC   GL114905  14.314   2.654   6.644 -0.1656  0.3703  0.2568
 1052YOPC   GL214906  14.565   2.517   6.573  0.3854 -0.0280 -0.1909
 1052YOPC   C1A14907  14.345   2.635   7.063 -0.2240  0.1899  0.2733
 1052YOPC   D2A14908  14.166   2.643   7.539  0.3063 -0.2329 -0.0270
 1052YOPC   C3A14909  14.434   2.762   7.871 -0.0617  0.0841 -0.0812
 1052YOPC   C4A14910  14.577   3.188   8.004  0.0365 -0.1021 -0.0197
 1052YOPC   C1B14911  14.803   2.647   6.811 -0.2953 -0.1535  0.3054
 1052YOPC   C2B14912  14.904   2.944   7.089 -0.3162  0.0630  0.0915
 1052YOPC   D3B14913  14.688   2.948   7.411  0.3141  0.0752  0.0530
 1052YOPC   C4B14914  14.392   3.091   7.552  0.0054 -0.0863 -0.0644
 1053YOPC   NC314915  14.618  11.897   5.129 -0.0694 -0.3315 -0.0677
 1053YOPC   PO414916  14.579  11.507   5.253  0.1229 -0.2010  0.4547
 1053YOPC   GL114917  14.702  11.744   5.645  0.0197 -0.1646  0.0078
 1053YOPC   GL214918  14.930  11.786   5.626 -0.0097  0.2985 -0.2660
 1053YOPC   C1A14919  14.500  12.054   6.034  0.0284 -0.0617 -0.1343
 1053YOPC   D2A14920  14.653  12.070   6.403 -0.1259  0.0494 -0.1488
 1053YOPC   C3A14921  14.406  11.958   6.768 -0.0917  0.2706  0.4585
 1053YOPC   C4A14922  14.312  11.816   7.141 -0.1292  0.1414  0.0049
 1053YOPC   C1B14923  15.000  11.978   6.066 -0.0086  0.0454  0.0424
 1053YOPC   C2B14924  15.098  11.833   6.461 -0.4463  0.1729 -0.0399
 1053YOPC   D3B14925  14.792  11.664   6.793  0.0392  0.0281  0.0450
 1053YOPC   C4B14926  14.722  11.284   6.895  0.0073 -0.0155 -0.2500
 1054YOPC   NC314927  17.324  18.010   5.586  0.0488 -0.0665  0.0649
 1054YOPC   PO414928  17.354  18.260   5.905 -0.2069 -0.0765 -0.2637
 1054YOPC   GL114929  17.554  18.120   6.262 -0.1095  0.2579 -0.0771
 1054YOPC   GL214930  17.829  17.910   6.271 -0.2012 -0.1578 -0.0861
 1054YOPC   C1A14931  17.410  17.987   6.603 -0.0459  0.0652 -0.0288
 1054YOPC   D2A14932  17.571  17.945   7.046  0.1882  0.0425 -0.3396
 1054YOPC   C3A14933  17.766  18.291   7.256 -0.1000  0.1811 -0.0870
 1054YOPC   C4A14934  18.018  18.590   7.140 -0.1108  0.1574 -0.2089
 1054YOPC   C1B14935  17.885  17.712   6.708 -0.1913  0.1326 -0.0076
 1054YOPC   C2B14936  17.814  17.451   7.019 -0.0195  0.2546 -0.3772
 1054YOPC   D3B14937  17.676  17.721   7.480  0.0490  0.3163  0.1226
 1054YOPC   C4B14938  17.530  17.683   7.938  0.2656  0.2572  0.0885
 1055YOPC   NC314939  12.482   3.194   6.071  0.1083  0.0033 -0.2501
 1055YOPC   PO414940  12.398   2.967   6.374  0.0487 -0.2302  0.0415
 1055YOPC   GL114941  12.491   2.947   6.790  0.0880  0.0783 -0.1444
 1055YOPC   GL214942  12.798   2.734   6.877 -0.0095 -0.1870 -0.2400
 1055YOPC   C1A14943  12.409   3.073   7.135 -0.0664  0.1126  0.0960
 1055YOPC   D2A14944  12.618   3.365   7.433 -0.3424 -0.2112  0.1255
 1055YOPC   C3A14945  13.111   3.397   7.463  0.1361  0.1138  0.1481
 1055YOPC   C4A14946  13.585   3.447   7.464 -0.0332 -0.2716  0.1553
 1055YOPC   C1B14947  12.832   2.902   7.269  0.0697 -0.1330  0.1826
 1055YOPC   C2B14948  12.926   2.913   7.711  0.0660  0.1702 -0.2747
 1055YOPC   D3B14949  12.730   3.161   7.972 -0.1659  0.0790  0.3506
 1055YOPC   C4B14950  12.698   3.159   8.402  0.0546 -0.0595  0.1630
 1056YOPC   NC314951  14.886  17.288   5.717 -0.3935  0.2298  0.0860
 1056YOPC   PO414952  14.664  17.000   5.962 -0.1692  0.0786 -0.0519
 1056YOPC   GL114953  14.691  17.107   6.436 -0.1225  0.0384 -0.3155
 1056YOPC   GL214954  14.754  16.883   6.715 -0.1252  0.0677  0.0427
 1056YOPC   C1A14955  14.271  17.228   6.642 -0.0320  0.0160 -0.2040
 1056YOPC   D2A14956  14.069  17.383   6.887  0.0548 -0.2710  0.0057
 1056YOPC   C3A14957  14.086  17.417   7.291  0.0860  0.1764  0.3345
 1056YOPC   C4A14958  14.312  17.342   7.722  0.0493  0.1651 -0.1886
 1056YOPC   C1B14959  14.616  17.217   6.942  0.2207 -0.1247  0.0682
 1056YOPC   C2B14960  14.475  17.128   7.273  0.2224  0.0044 -0.3610
 1056YOPC   D3B14961  14.616  16.923   7.672  0.2618 -0.1419 -0.2099
 1056YOPC   C4B14962  14.314  16.793   8.041 -0.0733  0.0832  0.3347
 1057YOPC   NC314963  13.692   4.041   6.297  0.0109 -0.0406 -0.1305
 1057YOPC   PO414964  14.106   3.902   6.054  0.0660 -0.1486 -0.2260
 1057YOPC   GL114965  14.169   3.882   6.533  0.1397  0.1458 -0.1023
 1057YOPC   GL214966  13.945   4.047   6.735  0.1508 -0.0884  0.0959
 1057YOPC   C1A14967  14.233   3.596   6.950  0.1873 -0.1277  0.1062
 1057YOPC   D2A14968  14.131   3.624   7.359  0.0033 -0.2574  0.0967
 1057YOPC   C3A14969  14.067   3.944   7.502  0.0255  0.1053  0.1939
 1057YOPC   C4A14970  14.315   4.192   7.709 -0.3282  0.3328 -0.0247
 1057YOPC   C1B14971  13.951   4.181   7.103 -0.0513  0.3317  0.0830
 1057YOPC   C2B14972  14.133   4.465   7.336 -0.3912  0.2203 -0.0186
 1057YOPC   D3B14973  14.142   4.675   7.785 -0.3704 -0.2366 -0.1232
 1057YOPC   C4B14974  14.288   5.031   8.078  0.1589 -0.3724  0.0438
 1058YOPC   NC314975   7.604  12.629   5.045 -0.2562 -0.2195  0.1822
 1058YOPC   PO414976   8.013  12.544   5.218  0.0555  0.1792  0.0062
 1058YOPC   GL114977   7.858  12.732   5.524  0.2341 -0.0544 -0.2608
 1058YOPC   GL214978   8.117  12.882   5.595  0.0397  0.0963  0.0546
 1058YOPC   C1A14979   7.570  12.762   5.939 -0.0276  0.2034 -0.0675
 1058YOPC   D2A14980   7.515  13.037   6.432  0.3515 -0.0371 -0.0657
 1058YOPC   C3A14981   7.311  13.219   6.661  0.0628  0.2405  0.2180
 1058YOPC   C4A14982   6.840  13.348   6.745 -0.0729 -0.2123 -0.3501
 1058YOPC   C1B14983   8.025  12.901   6.015 -0.0013 -0.1909  0.0129
 1058YOPC   C2B14984   7.939  12.782   6.413  0.0256  0.0036  0.4761
 1058YOPC   D3B14985   8.116  12.577   6.799  0.0492 -0.0204  0.0380
 1058YOPC   C4B14986   8.095  12.495   7.270  0.1450  0.1429 -0.2665
 1059YOPC   NC314987  13.746  13.808   5.580 -0.1002 -0.2726  0.1340
 1059YOPC   PO414988  13.917  13.340   5.504  0.0137  0.2909  0.0095
 1059YOPC   GL114989  14.003  13.381   5.925 -0.0275  0.3199 -0.1498
 1059YOPC   GL214990  13.977  13.103   6.155  0.4986 -0.1735 -0.1378
 1059YOPC   C1A14991  14.211  13.596   6.313  0.2547 -0.0726  0.0338
 1059YOPC   D2A14992  14.160  13.760   6.655  0.0725  0.1392  0.1824
 1059YOPC   C3A14993  14.354  13.988   7.043 -0.0971 -0.0183  0.1395
 1059YOPC   C4A14994  14.400  13.912   7.437  0.3201 -0.0749 -0.2902
 1059YOPC   C1B14995  13.640  13.023   6.255 -0.0313  0.2008  0.0818
 1059YOPC   C2B14996  13.406  12.957   6.676 -0.0577 -0.1132 -0.0818
 1059YOPC   D3B14997  12.961  12.803   6.807 -0.1502  0.3720  0.2137
 1059YOPC   C4B14998  12.530  12.965   6.621 -0.2173  0.0228  0.1158
 1060YOPC   NC314999   7.799  10.969   4.923  0.2926  0.1351 -0.1428
 1060YOPC   PO415000   7.717  11.212   5.211 -0.0556  0.2588 -0.3205
 1060YOPC   GL115001   7.524  10.899   5.554  0.1065  0.0727  0.3413
 1060YOPC   GL215002   7.745  11.098   5.736  0.0658 -0.0567  0.1778
 1060YOPC   C1A15003   7.365  10.790   5.933 -0.0092 -0.0174 -0.2592
 1060YOPC   D2A15004   7.033  11.062   5.968 -0.0372  0.1967  0.1352
 1060YOPC   C3A15005   6.630  10.880   5.910  0.3223 -0.0442 -0.0015
 1060YOPC   C4A15006   6.302  10.624   5.981 -0.2943  0.0137 -0.5245
 1060YOPC   C1B15007   7.971  11.251   6.099 -0.1760  0.0089  0.0429
 1060YOPC   C2B15008   8.156  11.329   6.452  0.1494  0.0825  0.0248
 1060YOPC   D3B15009   8.091  11.465   6.845  0.0228  0.0511  0.1492
 1060YOPC   C4B15010   7.881  11.153   7.204  0.2979 -0.0216  0.2769
 1061YOPC   NC315011   9.326  17.693   5.627  0.3428  0.2162  0.1182
 1061YOPC   PO415012   9.637  17.666   5.947  0.2692 -0.1140 -0.1503
 1061YOPC   GL115013   9.565  17.520   6.314 -0.3042 -0.1441 -0.1170
 1061YOPC   GL215014   9.781  17.718   6.415 -0.4016  0.3918 -0.1379
 1061YOPC   C1A15015   9.590  17.114   6.441  0.2594 -0.2272 -0.5052
 1061YOPC   D2A15016   9.525  16.778   6.243 -0.0826  0.1367  0.0810
 1061YOPC   C3A15017   9.500  16.343   6.038  0.0711 -0.1927 -0.2337
 1061YOPC   C4A15018   9.210  15.983   5.979  0.0659  0.2257 -0.0762
 1061YOPC   C1B15019   9.902  17.791   6.874 -0.0160  0.1704 -0.0344
 1061YOPC   C2B15020  10.297  17.767   6.909 -0.1129  0.0903 -0.2429
 1061YOPC   D3B15021  10.460  17.393   7.027  0.1479 -0.3643 -0.0139
 1061YOPC   C4B15022  10.620  17.114   7.343  0.0121  0.1257  0.1890
 1062YOPC   NC315023   0.212   4.566   5.677  0.0923 -0.0527 -0.3674
 1062YOPC   PO415024   0.103   4.163   5.875  0.2818 -0.2671  0.1027
 1062YOPC   GL115025  -0.040   4.338   6.262  0.0226  0.1653  0.0949
 1062YOPC   GL215026   0.080   4.599   6.145  0.3513 -0.0096 -0.0450
 1062YOPC   C1A15027  -0.031   4.371   6.698  0.2908  0.1001 -0.2813
 1062YOPC   D2A15028   0.169   4.618   7.020  0.3285  0.0520 -0.0878
 1062YOPC   C3A15029   0.047   4.495   7.355  0.2915  0.0411  0.2602
 1062YOPC   C4A15030   0.252   4.488   7.805 -0.4673  0.2029  0.2899
 1062YOPC   C1B15031   0.400   4.566   6.528 -0.1120 -0.1961 -0.0055
 1062YOPC   C2B15032   0.598   4.423   6.891 -0.1318 -0.0904 -0.1823
 1062YOPC   D3B15033   0.543   4.505   7.284 -0.0489  0.0044  0.1244
 1062YOPC   C4B15034   0.465   4.801   7.451  0.1193  0.0037 -0.0800
 1063YOPC   NC315035  12.941   4.605   6.040 -0.1804  0.0703 -0.0685
 1063YOPC   PO415036  12.622   4.560   5.796 -0.0748  0.3222 -0.2887
 1063YOPC   GL115037  12.489   4.684   6.246 -0.1038  0.3695 -0.0334
 1063YOPC   GL215038  12.387   4.980   6.414 -0.0615  0.0034  0.1854
 1063YOPC   C1A15039  12.488   4.559   6.664  0.0441  0.1067 -0.0447
 1063YOPC   D2A15040  12.726   4.266   6.950  0.2606  0.4428 -0.0815
 1063YOPC   C3A15041  12.709   4.344   7.343 -0.3884  0.0631 -0.1261
 1063YOPC   C4A15042  12.767   4.510   7.763 -0.1510 -0.0473  0.0220
 1063YOPC   C1B15043  12.393   5.190   6.705 -0.0269  0.0473 -0.0173
 1063YOPC   C2B15044  12.515   5.369   7.096  0.0921  0.0159  0.1814
 1063YOPC   D3B15045  12.815   5.190   7.391 -0.0275 -0.1519 -0.0680
 1063YOPC   C4B15046  12.873   4.987   7.736  0.0378  0.0095  0.2376
 1064YOPC   NC315047  12.800  16.679   5.582 -0.0485  0.3009  0.0559
 1064YOPC   PO415048  12.901  16.221   5.738  0.3411 -0.1592  0.1756
 1064YOPC   GL115049  12.649  16.060   6.083  0.2323  0.1953  0.1499
 1064YOPC   GL215050  12.500  16.289   6.218  0.0979  0.6239  0.0347
 1064YOPC   C1A15051  12.313  15.950   6.520 -0.0459  0.0488  0.0563
 1064YOPC   D2A15052  12.078  15.801   6.813 -0.3342  0.0246 -0.1436
 1064YOPC   C3A15053  11.945  15.484   7.044 -0.1785 -0.0591  0.0451
 1064YOPC   C4A15054  11.739  15.594   7.414 -0.0235 -0.2850  0.0671
 1064YOPC   C1B15055  12.550  16.414   6.593  0.0772  0.3110 -0.0386
 1064YOPC   C2B15056  12.590  16.828   6.799  0.0634  0.0194  0.2586
 1064YOPC   D3B15057  12.590  16.921   7.241  0.1353  0.0613 -0.1250
 1064YOPC   C4B15058  12.537  16.713   7.529  0.1990  0.3492 -0.0600
 1065YOPC   NC315059   5.450   4.399   6.312 -0.1377  0.1302  0.2523
 1065YOPC   PO415060   5.366   4.923   6.436 -0.2060  0.3349  0.0820
 1065YOPC   GL115061   5.199   4.690   6.719  0.1352 -0.1337 -0.0659
 1065YOPC   GL215062   5.419   4.524   6.879 -0.1650  0.0214 -0.1742
 1065YOPC   C1A15063   4.977   4.731   7.055 -0.1286 -0.0866 -0.1105
 1065YOPC   D2A15064   4.637   4.911   7.380  0.0974  0.1356  0.0349
 1065YOPC   C3A15065   4.743   4.798   7.889  0.1984 -0.0156  0.1620
 1065YOPC   C4A15066   5.123   4.680   8.066  0.1902  0.0697  0.0682
 1065YOPC   C1B15067   5.755   4.365   7.242 -0.0853 -0.2505 -0.0681
 1065YOPC   C2B15068   5.720   4.203   7.646 -0.0390  0.1328 -0.0808
 1065YOPC   D3B15069   5.620   4.307   7.924  0.0646  0.0398 -0.2416
 1065YOPC   C4B15070   5.591   4.032   8.369  0.0972  0.3212 -0.0265
 1066YOPC   NC315071  17.884   0.805   5.719 -0.0472  0.1403 -0.2994
 1066YOPC   PO415072  17.971   1.022   6.177 -0.2591 -0.2480 -0.3184
 1066YOPC   GL115073  17.908   1.241   6.565 -0.0851  0.0286  0.1633
 1066YOPC   GL215074  17.964   1.648   6.704 -0.2854 -0.1179  0.1486
 1066YOPC   C1A15075  17.811   1.319   7.026 -0.2646  0.0928  0.1667
 1066YOPC   D2A15076  17.666   1.193   7.336  0.0244 -0.1717 -0.4260
 1066YOPC   C3A15077  17.982   1.164   7.725 -0.1744  0.2555  0.0538
 1066YOPC   C4A15078  17.918   1.316   8.087  0.2607 -0.0047  0.1001
 1066YOPC   C1B15079  17.762   1.908   7.003 -0.0497 -0.2399  0.0700
 1066YOPC   C2B15080  17.745   2.242   7.271 -0.1648  0.2684 -0.1039
 1066YOPC   D3B15081  17.987   2.034   7.507 -0.1957  0.1251 -0.0265
 1066YOPC   C4B15082  18.018   1.625   7.473 -0.1657 -0.1022 -0.2977
 1067YOPC   NC315083  16.448  14.285   5.260  0.0473 -0.0617 -0.3151
 1067YOPC   PO415084  16.466  14.666   5.571 -0.1700 -0.0869  0.0258
 1067YOPC   GL115085  16.586  14.787   5.978  0.0084  0.1540 -0.2192
 1067YOPC   GL215086  16.792  14.594   6.034  0.3680 -0.1286  0.3429
 1067YOPC   C1A15087  16.708  15.094   6.240  0.1738  0.0380  0.0069
 1067YOPC   D2A15088  16.993  15.155   6.572  0.1484 -0.0886 -0.2609
 1067YOPC   C3A15089  16.854  15.339   7.002 -0.2503  0.0156  0.0685
 1067YOPC   C4A15090  16.881  15.507   7.401  0.1175  0.0931 -0.2396
 1067YOPC   C1B15091  16.639  14.614   6.417  0.0610  0.1642 -0.3737
 1067YOPC   C2B15092  16.773  14.802   6.877  0.0454 -0.0895  0.1000
 1067YOPC   D3B15093  16.715  14.714   7.266  0.1547 -0.0972  0.2144
 1067YOPC   C4B15094  16.533  14.498   7.505 -0.0016  0.1033 -0.1804
 1068YOPC   NC315095   0.609   7.484   5.008  0.0264  0.1071 -0.0110
 1068YOPC   PO415096   0.746   7.199   5.253 -0.0087  0.1917  0.3336
 1068YOPC   GL115097   0.721   7.035   5.734  0.0326 -0.0634  0.3664
 1068YOPC   GL215098   0.823   6.741   5.730 -0.2461  0.0555  0.1094
 1068YOPC   C1A15099   0.976   7.124   6.149  0.0700  0.1844 -0.0924
 1068YOPC   D2A15100   0.968   6.893   6.501 -0.2591 -0.1015  0.1972
 1068YOPC   C3A15101   0.987   7.067   6.945 -0.3551 -0.3292  0.1062
 1068YOPC   C4A15102   0.975   7.409   7.265  0.3191  0.0767  0.0176
 1068YOPC   C1B15103   1.008   6.587   6.086  0.2979 -0.0201  0.0679
 1068YOPC   C2B15104   1.079   6.296   6.421 -0.1101  0.3027  0.0260
 1068YOPC   D3B15105   1.031   6.454   6.840  0.0850  0.2161 -0.0849
 1068YOPC   C4B15106   1.068   6.626   7.163 -0.0746  0.0745  0.1328
 1069YOPC   NC315107   4.324  17.169   5.292 -0.0431 -0.0607 -0.0722
 1069YOPC   PO415108   4.645  17.347   5.669 -0.1542 -0.0673 -0.2895
 1069YOPC   GL115109   4.864  17.385   6.004  0.0211  0.0982 -0.0646
 1069YOPC   GL215110   4.854  17.072   6.104  0.1345 -0.0726 -0.2768
 1069YOPC   C1A15111   4.958  17.348   6.490 -0.0917  0.2794  0.1756
 1069YOPC   D2A15112   4.973  17.386   6.927 -0.2019  0.0241 -0.0547
 1069YOPC   C3A15113   5.050  17.522   7.468  0.1277  0.3762 -0.3232
 1069YOPC   C4A15114   4.900  17.596   7.887  0.0328  0.0323  0.0719
 1069YOPC   C1B15115   4.968  16.860   6.527  0.1078  0.1607 -0.0052
 1069YOPC   C2B15116   5.101  16.774   6.969 -0.2430 -0.1424  0.1587
 1069YOPC   D3B15117   4.807  16.831   7.234 -0.0744  0.1557  0.2932
 1069YOPC   C4B15118   4.438  16.621   7.127 -0.0096  0.0167  0.0319
 1070YOPC   NC315119   7.243   3.430   5.879 -0.0525 -0.0171  0.2986
 1070YOPC   PO415120   7.197   3.727   6.149 -0.2863 -0.2909 -0.0262
 1070YOPC   GL115121   7.399   3.656   6.444  0.1482 -0.0734 -0.3897
 1070YOPC   GL215122   7.585   3.271   6.475  0.1373 -0.0538 -0.3203
 1070YOPC   C1A15123   7.529   3.560   6.957 -0.2462 -0.0777 -0.1002
 1070YOPC   D2A15124   7.549   3.308   7.316 -0.0410 -0.2228 -0.1139
 1070YOPC   C3A15125   7.619   3.418   7.794  0.1744  0.0704  0.0832
 1070YOPC   C4A15126   7.375   3.511   8.098 -0.1339 -0.1149 -0.1126
 1070YOPC   C1B15127   7.654   3.076   6.850  0.2551  0.1109 -0.0000
 1070YOPC   C2B15128   7.819   2.880   7.190 -0.0349 -0.2418  0.2918
 1070YOPC   D3B15129   7.945   2.991   7.614 -0.0625 -0.2433  0.1421
 1070YOPC   C4B15130   7.891   3.136   8.099  0.1002  0.4072 -0.1833
 1071YOPC   NC315131  14.384  10.578   5.487 -0.1594 -0.2324 -0.2818
 1071YOPC   PO415132  14.122  10.882   5.491 -0.1475  0.1379 -0.1717
 1071YOPC   GL115133  14.367  10.978   5.811  0.0763  0.0517 -0.1679
 1071YOPC   GL215134  14.711  10.854   5.813 -0.1819  0.0045  0.0198
 1071YOPC   C1A15135  14.459  10.994   6.253 -0.2861  0.0463  0.0585
 1071YOPC   D2A15136  14.204  10.942   6.629 -0.0259 -0.0416 -0.0563
 1071YOPC   C3A15137  14.298  10.781   6.909 -0.0323  0.1578  0.0297
 1071YOPC   C4A15138  14.523  10.566   7.262  0.2392 -0.0559 -0.3064
 1071YOPC   C1B15139  14.970  10.877   6.257 -0.0683  0.1124 -0.1979
 1071YOPC   C2B15140  14.715  10.801   6.624 -0.1841 -0.0633 -0.2096
 1071YOPC   D3B15141  14.777  10.466   6.693  0.2131  0.2063  0.0879
 1071YOPC   C4B15142  14.886  10.315   7.061 -0.3406  0.0239  0.0780
 1072YOPC   NC315143   1.453  17.585   5.471  0.2283  0.1810 -0.1262
 1072YOPC   PO415144   1.000  17.455   5.374  0.3432 -0.1393  0.1184
 1072YOPC   GL115145   1.016  17.665   5.794  0.3498 -0.0838  0.3800
 1072YOPC   GL215146   1.262  17.813   5.918 -0.3088  0.1047 -0.1213
 1072YOPC   C1A15147   0.915  17.422   6.069  0.2913 -0.1139 -0.0223
 1072YOPC   D2A15148   0.776  17.409   6.470  0.0256 -0.1601  0.1280
 1072YOPC   C3A15149   0.883  17.539   6.813 -0.1348  0.2001  0.2254
 1072YOPC   C4A15150   0.755  17.367   7.160  0.0086  0.3019 -0.0914
 1072YOPC   C1B15151   1.142  17.986   6.277  0.1237  0.0548 -0.0874
 1072YOPC   C2B15152   1.022  18.409   6.263  0.1393 -0.1139  0.2071
 1072YOPC   D3B15153   1.106  18.679   6.508 -0.3546 -0.1118  0.0588
 1072YOPC   C4B15154   1.143  18.605   6.867 -0.0790 -0.0372  0.3014
 1073YOPC   NC315155   9.684  13.655   5.148  0.0780  0.0469 -0.4312
 1073YOPC   PO415156   9.409  13.760   5.439 -0.0960 -0.0883  0.2955
 1073YOPC   GL115157   9.329  13.744   5.869 -0.1899  0.1632  0.4474
 1073YOPC   GL215158   9.495  14.059   5.939 -0.0005  0.4187 -0.1276
 1073YOPC   C1A15159   9.609  13.614   6.125  0.0835 -0.0475  0.1465
 1073YOPC   D2A15160   9.742  13.267   6.429 -0.0112 -0.0220  0.2335
 1073YOPC   C3A15161   9.753  13.378   6.909 -0.0868  0.0438  0.1165
 1073YOPC   C4A15162   9.566  13.488   7.257  0.0491  0.0512  0.0452
 1073YOPC   C1B15163   9.283  14.011   6.344  0.0240 -0.0670 -0.2379
 1073YOPC   C2B15164   9.241  14.088   6.806  0.2023 -0.1503 -0.2020
 1073YOPC   D3B15165   9.549  14.003   6.984  0.0951  0.0141  0.0530
 1073YOPC   C4B15166   9.787  13.967   7.392  0.3244  0.5115 -0.0231
 1074YOPC   NC315167  14.358   6.990   5.832  0.0115  0.1234 -0.0942
 1074YOPC   PO415168  14.195   6.483   5.974  0.2355  0.0411 -0.0550
 1074YOPC   GL115169  14.191   6.712   6.279 -0.1287  0.2976 -0.0270
 1074YOPC   GL215170  14.044   6.981   6.339 -0.0421 -0.1232  0.0271
 1074YOPC   C1A15171  14.282   6.652   6.794 -0.0264 -0.2110  0.2236
 1074YOPC   D2A15172  14.388   6.704   7.149 -0.1592 -0.2757  0.1533
 1074YOPC   C3A15173  14.521   7.073   7.390 -0.0335  0.0426 -0.2225
 1074YOPC   C4A15174  14.756   7.237   7.509 -0.1086  0.1465 -0.0880
 1074YOPC   C1B15175  13.658   7.153   6.306  0.2825 -0.4671 -0.7176
 1074YOPC   C2B15176  13.284   7.339   6.484  0.0080 -0.1781 -0.1693
 1074YOPC   D3B15177  13.359   7.312   6.950  0.0641  0.2583 -0.1031
 1074YOPC   C4B15178  13.777   7.492   7.123  0.1493  0.0691  0.0684
 1075YOPC   NC315179   4.789  17.908   5.656  0.0585 -0.0725 -0.4629
 1075YOPC   PO415180   5.045  18.344   5.555 -0.1731 -0.1206  0.2142
 1075YOPC   GL115181   4.961  18.220   5.995  0.1199 -0.2375 -0.1087
 1075YOPC   GL215182   4.637  18.238   6.209 -0.1754  0.1873  0.0162
 1075YOPC   C1A15183   5.090  18.487   6.354  0.2172  0.0772 -0.0795
 1075YOPC   D2A15184   5.132  18.859   6.566  0.2207 -0.0009  0.0017
 1075YOPC   C3A15185   5.489  18.888   6.857  0.0681  0.3380  0.1476
 1075YOPC   C4A15186   5.586  18.567   7.145 -0.1314  0.0793 -0.2913
 1075YOPC   C1B15187   4.596  18.243   6.664  0.4178 -0.0876 -0.1993
 1075YOPC   C2B15188   4.348  18.214   6.981  0.0625 -0.2507 -0.2132
 1075YOPC   D3B15189   4.371  18.083   7.417  0.0512  0.0875 -0.2328
 1075YOPC   C4B15190   4.266  17.776   7.747  0.0343  0.2060  0.1239
 1076YOPC   NC315191   7.220  14.339   5.398  0.0769  0.1038  0.0481
 1076YOPC   PO415192   7.034  13.948   5.359 -0.1651  0.2476 -0.1125
 1076YOPC   GL115193   6.734  13.940   5.687 -0.1091  0.2518 -0.0442
 1076YOPC   GL215194   6.406  14.012   5.745  0.0441 -0.0714  0.1402
 1076YOPC   C1A15195   6.720  14.001   6.133  0.0634  0.2181 -0.0133
 1076YOPC   D2A15196   6.940  14.095   6.597  0.2371 -0.3954 -0.1008
 1076YOPC   C3A15197   7.105  13.811   6.795 -0.1685 -0.0873  0.1569
 1076YOPC   C4A15198   7.394  13.659   6.946  0.1557  0.1886 -0.1337
 1076YOPC   C1B15199   6.165  13.798   6.148 -0.3118  0.4212 -0.2235
 1076YOPC   C2B15200   6.039  13.414   6.343 -0.3725 -0.2300  0.1146
 1076YOPC   D3B15201   5.831  13.188   6.102 -0.1709 -0.2582  0.1296
 1076YOPC   C4B15202   5.769  12.938   5.810  0.0258 -0.0006 -0.1465
 1077YOPC   NC315203   3.221   2.580   5.844  0.1804  0.2958 -0.0501
 1077YOPC   PO415204   3.372   2.998   5.799 -0.0377  0.0811  0.0159
 1077YOPC   GL115205   3.356   2.844   6.244  0.0790 -0.3331 -0.2666
 1077YOPC   GL215206   3.258   2.430   6.396  0.0121 -0.3645  0.1616
 1077YOPC   C1A15207   3.331   2.915   6.662 -0.1684  0.1149  0.0197
 1077YOPC   D2A15208   3.639   2.860   7.007 -0.1221 -0.0145  0.1540
 1077YOPC   C3A15209   3.620   2.427   7.074  0.0290  0.0681 -0.0885
 1077YOPC   C4A15210   3.550   2.018   6.968  0.0989  0.0169  0.0179
 1077YOPC   C1B15211   3.119   2.449   6.757  0.1098 -0.2051  0.0618
 1077YOPC   C2B15212   3.172   2.680   7.123  0.0478  0.5014 -0.0512
 1077YOPC   D3B15213   3.103   2.428   7.476  0.1036 -0.2012  0.0212
 1077YOPC   C4B15214   3.265   2.402   7.844  0.2721  0.0089  0.1271
 1078YOPC   NC315215   9.182   1.755   5.832  0.0642 -0.1926 -0.0613
 1078YOPC   PO415216   9.448   1.628   6.097  0.1352  0.0180 -0.1715
 1078YOPC   GL115217   9.335   1.447   6.564 -0.2090  0.3051 -0.1719
 1078YOPC   GL215218   9.204   1.589   6.647  0.3931  0.0159  0.0405
 1078YOPC   C1A15219   9.552   1.229   6.883  0.0662 -0.1553  0.1255
 1078YOPC   D2A15220   9.553   1.197   7.255  0.0197 -0.3802  0.0017
 1078YOPC   C3A15221   9.633   0.856   7.517  0.0768  0.0084 -0.0160
 1078YOPC   C4A15222   9.580   0.568   7.989 -0.0271  0.1976  0.1678
 1078YOPC   C1B15223   9.220   1.629   7.092 -0.0178 -0.1103 -0.1383
 1078YOPC   C2B15224   9.044   1.560   7.496  0.0982 -0.1580  0.4076
 1078YOPC   D3B15225   9.187   1.638   7.978  0.2612  0.0148  0.2302
 1078YOPC   C4B15226   9.502   1.745   8.408 -0.2111 -0.0455 -0.0870
 1079YOPC   NC315227   3.126   3.334   6.076 -0.1341  0.0358  0.0341
 1079YOPC   PO415228   3.400   3.821   6.131  0.3371  0.2107  0.1289
 1079YOPC   GL115229   3.341   3.986   6.540 -0.1560  0.0834  0.1328
 1079YOPC   GL215230   3.399   4.314   6.608 -0.1331  0.0861 -0.2510
 1079YOPC   C1A15231   3.410   4.052   7.052  0.2323 -0.0764 -0.2389
 1079YOPC   D2A15232   3.711   4.016   7.433 -0.0032  0.1254  0.2435
 1079YOPC   C3A15233   3.843   4.291   7.899 -0.1635  0.2456  0.0104
 1079YOPC   C4A15234   3.961   4.143   8.237  0.2309  0.0489  0.2476
 1079YOPC   C1B15235   3.777   4.460   6.913  0.0643 -0.2061 -0.0362
 1079YOPC   C2B15236   3.937   4.525   7.220  0.2227 -0.2199 -0.1562
 1079YOPC   D3B15237   4.441   4.470   7.254  0.2494 -0.1804 -0.0053
 1079YOPC   C4B15238   4.796   4.463   7.545  0.0423 -0.2084 -0.0622
 1080YOPC   NC315239   2.765   2.371   5.968 -0.2288 -0.1737  0.1020
 1080YOPC   PO415240   3.075   2.057   5.907 -0.4622 -0.0770 -0.2423
 1080YOPC   GL115241   3.070   1.949   6.276 -0.0376 -0.1827  0.0803
 1080YOPC   GL215242   3.274   1.755   6.270  0.0388 -0.2106 -0.1005
 1080YOPC   C1A15243   3.096   1.978   6.702 -0.1683 -0.1741  0.0313
 1080YOPC   D2A15244   3.023   2.063   7.151 -0.3160 -0.0311 -0.5777
 1080YOPC   C3A15245   3.407   2.031   7.507  0.0819  0.1136 -0.0061
 1080YOPC   C4A15246   3.756   1.986   7.792  0.2484 -0.0707 -0.1851
 1080YOPC   C1B15247   3.329   1.581   6.741 -0.0664 -0.1596 -0.0349
 1080YOPC   C2B15248   3.100   1.600   7.085  0.1064  0.0847 -0.0374
 1080YOPC   D3B15249   2.903   1.599   7.478 -0.0218  0.1296  0.3472
 1080YOPC   C4B15250   3.017   1.597   7.959 -0.1021 -0.1599 -0.1004
 1081YOPC   NC315251  12.270   5.459   6.204  0.1584 -0.1511  0.2303
 1081YOPC   PO415252  12.595   5.642   6.043 -0.1096 -0.2230  0.2902
 1081YOPC   GL115253  12.790   5.570   6.427  0.2069  0.0230  0.2237
 1081YOPC   GL215254  12.869   5.367   6.404 -0.0073 -0.3496 -0.0708
 1081YOPC   C1A15255  12.804   5.584   6.798  0.1354  0.1244  0.1347
 1081YOPC   D2A15256  12.727   5.789   7.312 -0.1236  0.0151 -0.3074
 1081YOPC   C3A15257  12.647   6.039   7.596  0.2622 -0.1018  0.4969
 1081YOPC   C4A15258  12.755   6.021   7.962  0.2179  0.2519 -0.2624
 1081YOPC   C1B15259  12.850   4.979   6.586  0.0906  0.0084 -0.1396
 1081YOPC   C2B15260  12.684   4.853   7.001 -0.3420 -0.1310 -0.3115
 1081YOPC   D3B15261  12.408   4.884   7.330 -0.3847 -0.0483 -0.1281
 1081YOPC   C4B15262  12.416   4.820   7.802  0.3386 -0.2522 -0.0339
 1082YOPC   NC315263  12.615  13.477   5.714  0.4465 -0.1714 -0.1210
 1082YOPC   PO415264  12.524  13.075   5.522  0.2861  0.2456  0.0377
 1082YOPC   GL115265  12.184  13.068   5.917  0.1447  0.1147 -0.0502
 1082YOPC   GL215266  12.224  13.257   6.054  0.2465 -0.0731  0.0574
 1082YOPC   C1A15267  12.248  12.751   6.205  0.2269 -0.2920  0.0528
 1082YOPC   D2A15268  12.350  12.397   6.452  0.0153  0.1752 -0.5042
 1082YOPC   C3A15269  12.462  12.504   6.813 -0.2406 -0.1044  0.0228
 1082YOPC   C4A15270  12.575  12.782   7.120  0.0913 -0.0910 -0.1392
 1082YOPC   C1B15271  12.121  13.216   6.504  0.1434 -0.0025 -0.2021
 1082YOPC   C2B15272  12.022  13.078   6.851 -0.0639  0.2332  0.1451
 1082YOPC   D3B15273  11.698  13.198   7.095  0.0987 -0.0109  0.0029
 1082YOPC   C4B15274  11.375  13.269   7.379 -0.0435 -0.0123  0.0059
 1083YOPC   NC315275  13.755   8.440   5.680 -0.2664 -0.1431 -0.0719
 1083YOPC   PO415276  14.061   8.839   5.638  0.0534 -0.0418 -0.1612
 1083YOPC   GL115277  14.071   8.743   5.998  0.1483  0.2682  0.0951
 1083YOPC   GL215278  14.098   8.437   6.051 -0.0692 -0.2736 -0.3305
 1083YOPC   C1A15279  14.073   8.907   6.495  0.2263  0.1355 -0.5571
 1083YOPC   D2A15280  13.995   9.073   6.863  0.0459  0.0019 -0.0697
 1083YOPC   C3A15281  13.920   8.807   7.158  0.2283 -0.1760 -0.0388
 1083YOPC   C4A15282  13.619   8.429   7.324 -0.1095 -0.0246  0.2840
 1083YOPC   C1B15283  14.235   8.479   6.475 -0.2079  0.0194  0.0698
 1083YOPC   C2B15284  14.346   8.531   6.976 -0.0983 -0.2058  0.0973
 1083YOPC   D3B15285  14.081   8.372   7.254 -0.0719  0.0920  0.1066
 1083YOPC   C4B15286  14.096   8.356   7.592  0.2431  0.2568  0.4278
 1084ERGO   ROH15287  11.475   4.871   6.508 -0.0908 -0.1123 -0.0806
 1084ERGO    R115288  11.544   4.848   6.781 -0.1244 -0.1771 -0.0760
 1084ERGO    R215289  11.605   5.067   6.938 -0.0294 -0.2194 -0.0414
 1084ERGO    R315290  11.410   4.967   7.098 -0.0961 -0.1457 -0.0780
 1084ERGO    R415291  11.598   5.096   7.282  0.0127 -0.3986 -0.0257
 1084ERGO    R515292  11.526   4.890   7.293 -0.1499 -0.3413 -0.1271
 1084ERGO    C115293  11.411   5.018   7.634 -0.0253 -0.4338 -0.0509
 1084ERGO    C215294  11.668   5.314   7.995  0.2382  0.1740  0.0873
 1085ERGO   ROH15295   9.777   6.476   6.573  0.1301 -0.0516 -0.1774
 1085ERGO    R115296   9.760   6.375   6.837 -0.0409 -0.0490 -0.1857
 1085ERGO    R215297   9.886   6.497   7.051 -0.0587 -0.1159 -0.1330
 1085ERGO    R315298   9.636   6.496   7.158 -0.1186  0.0227 -0.2387
 1085ERGO    R415299   9.805   6.610   7.368 -0.1359 -0.0525 -0.1747
 1085ERGO    R515300   9.669   6.441   7.388 -0.2431  0.0128 -0.2177
 1085ERGO    C115301   9.523   6.675   7.652 -0.2370  0.1146 -0.2982
 1085ERGO    C215302   9.546   6.994   7.746 -0.1929 -0.2383 -0.1155
 1086ERGO   ROH15303   0.552   0.717   6.349 -0.1669 -0.2026 -0.1849
 1086ERGO    R115304   0.461   0.551   6.559 -0.0599 -0.1165 -0.0693
 1086ERGO    R215305   0.615   0.348   6.666  0.0146 -0.0403 -0.0282
 1086ERGO    R315306   0.565   0.476   6.900  0.0825  0.0657 -0.0710
 1086ERGO    R415307   0.623   0.199   6.978 -0.0117  0.0746  0.0276
 1086ERGO    R515308   0.446   0.315   7.032  0.0359  0.1588  0.0007
 1086ERGO    C115309   0.580   0.234   7.380  0.0368  0.2410  0.0198
 1086ERGO    C215310   0.744   0.072   7.687 -0.0665 -0.1795  0.1528
 1087ERGO   ROH15311   5.127   3.380   6.349  0.3029  0.0285 -0.1045
 1087ERGO    R115312   5.270   3.434   6.587  0.2867 -0.0410 -0.0796
 1087ERGO    R215313   5.155   3.559   6.805  0.3414  0.1278 -0.1498
 1087ERGO    R315314   5.246   3.339   6.937  0.0987  0.0784 -0.0577
 1087ERGO    R415315   5.211   3.542   7.146  0.2752  0.1986 -0.1346
 1087ERGO    R515316   5.392   3.427   7.105  0.1681 -0.0049 -0.0694
 1087ERGO    C115317   5.330   3.327   7.468  0.0087  0.1935 -0.0392
 1087ERGO    C215318   5.362   3.313   7.801 -0.1824 -0.0255  0.0035
 1088ERGO   ROH15319  13.649   1.982   6.505 -0.1147  0.0962  0.1768
 1088ERGO    R115320  13.612   1.948   6.784  0.0551  0.0232  0.1920
 1088ERGO    R215321  13.756   1.764   6.932  0.1349 -0.0293  0.0546
 1088ERGO    R315322  13.816   1.981   7.084  0.2449 -0.0738  0.0752
 1088ERGO    R415323  13.776   1.765   7.277  0.0998 -0.0596  0.0566
 1088ERGO    R515324  13.677   1.959   7.277  0.2129 -0.0039  0.0585
 1088ERGO    C115325  13.843   1.970   7.620  0.1824 -0.1189  0.0771
 1088ERGO    C215326  13.788   1.961   7.939 -0.0993  0.0818 -0.0328
 1089ERGO   ROH15327  17.896  16.630   6.078  0.1596 -0.0989  0.0437
 1089ERGO    R115328  17.839  16.611   6.355  0.0892 -0.0112  0.0348
 1089ERGO    R215329  17.757  16.376   6.474 -0.0200  0.0486  0.0721
 1089ERGO    R315330  17.968  16.425   6.640 -0.0427  0.0135  0.1129
 1089ERGO    R415331  17.871  16.159   6.717 -0.0776  0.0039  0.0599
 1089ERGO    R515332  17.901  16.330   6.850 -0.0875 -0.0126  0.0903
 1089ERGO    C115333  18.135  16.077   7.014 -0.1328 -0.0552  0.0912
 1089ERGO    C215334  18.371  15.827   7.224  0.0931  0.0203  0.0301
 1090ERGO   ROH15335  16.030  14.451   6.293  0.0959 -0.1972  0.0409
 1090ERGO    R115336  15.992  14.588   6.537  0.1083 -0.1749  0.0303
 1090ERGO    R215337  15.767  14.740   6.589  0.1390 -0.1206  0.0078
 1090ERGO    R315338  15.750  14.581   6.809  0.0878 -0.1037  0.0125
 1090ERGO    R415339  15.638  14.838   6.895  0.1377 -0.0802 -0.0059
 1090ERGO    R515340  15.798  14.727   6.992  0.1035 -0.1080  0.0091
 1090ERGO    C115341  15.547  14.745   7.279  0.0887 -0.0406 -0.0095
 1090ERGO    C215342  15.507  14.798   7.657  0.1183  0.0427 -0.0431
 1091ERGO   ROH15343   5.761   2.262   6.351 -0.1974  0.0250  0.0183
 1091ERGO    R115344   5.844   2.147   6.596 -0.1320  0.0585  0.0089
 1091ERGO    R215345   5.774   1.891   6.671 -0.1908  0.1159  0.1033
 1091ERGO    R315346   6.043   1.860   6.700 -0.1919  0.0124  0.0058
 1091ERGO    R415347   5.928   1.763   6.953 -0.1312  0.4228  0.2165
 1091ERGO    R515348   6.084   1.915   6.930 -0.0535  0.3173 -0.0788
 1091ERGO    C115349   6.270   1.660   7.144 -0.0973  0.5044  0.1907
 1091ERGO    C215350   6.222   1.394   7.398 -0.0197  0.1721 -0.3096
 1092ERGO   ROH15351   3.874  10.583   9.033 -0.1466  0.0300 -0.1794
 1092ERGO    R115352   3.874  10.453   8.782 -0.1469 -0.0433 -0.1418
 1092ERGO    R215353   4.080  10.289   8.699 -0.1099 -0.0084 -0.1256
 1092ERGO    R315354   3.879  10.110   8.662 -0.0648 -0.0769 -0.0404
 1092ERGO    R415355   4.079  10.042   8.458 -0.0922 -0.0758 -0.0573
 1092ERGO    R515356   3.867  10.083   8.424 -0.1063 -0.1469 -0.0276
 1092ERGO    C115357   3.890   9.729   8.282 -0.0396 -0.1793  0.0624
 1092ERGO    C215358   4.139   9.566   8.194  0.1577  0.0633 -0.1035
 1093ERGO   ROH15359  17.795   4.942   6.053  0.1148  0.0901  0.0211
 1093ERGO    R115360  17.741   4.878   6.323  0.3456  0.0230  0.0531
 1093ERGO    R215361  17.901   4.965   6.531  0.2388  0.4139 -0.0169
 1093ERGO    R315362  17.667   5.061   6.629  0.0523 -0.0713  0.0400
 1093ERGO    R415363  17.853   5.075   6.855  0.1634  0.5608 -0.0770
 1093ERGO    R515364  17.658   4.978   6.853  0.3866  0.0807  0.1135
 1093ERGO    C115365  17.605   5.229   7.136 -0.0556  0.1908 -0.0585
 1093ERGO    C215366  17.511   5.510   7.360  0.0118  0.0294 -0.0527
 1094ERGO   ROH15367   4.634   8.085   5.876 -0.2681 -0.2926  0.1171
 1094ERGO    R115368   4.719   8.198   6.121 -0.2017 -0.3059  0.0998
 1094ERGO    R215369   4.606   8.426   6.228 -0.0013 -0.1658  0.0161
 1094ERGO    R315370   4.571   8.268   6.446 -0.1912 -0.0719  0.0558
 1094ERGO    R415371   4.541   8.542   6.547  0.1671 -0.0045 -0.0060
 1094ERGO    R515372   4.676   8.389   6.624 -0.0222 -0.1623  0.0205
 1094ERGO    C115373   4.470   8.461   6.938  0.0868  0.1776  0.0185
 1094ERGO    C215374   4.281   8.645   7.203  0.0776  0.0638 -0.3100
 1095ERGO   ROH15375  17.287   4.730   9.416  0.1435 -0.0685 -0.0916
 1095ERGO    R115376  17.329   4.603   9.166  0.3480  0.0836 -0.1363
 1095ERGO    R215377  17.136   4.597   8.968  0.2859 -0.3064 -0.0678
 1095ERGO    R315378  17.334   4.704   8.816 -0.0011  0.1880 -0.1164
 1095ERGO    R415379  17.111   4.664   8.630  0.0650 -0.4722 -0.0867
 1095ERGO    R515380  17.315   4.591   8.606  0.2763  0.0615 -0.0815
 1095ERGO    C115381  17.282   4.804   8.291 -0.3329 -0.1047 -0.1434
 1095ERGO    C215382  17.274   4.903   8.017 -0.0984 -0.3549  0.1783
 1096ERGO   ROH15383  18.436   6.015   5.587 -0.3073  0.1333  0.1709
 1096ERGO    R115384  18.638   6.105   5.763 -0.1648  0.1085  0.0248
 1096ERGO    R215385  18.679   6.373   5.818 -0.0800  0.1110 -0.0124
 1096ERGO    R315386  18.652   6.290   6.076  0.0834  0.1197  0.0065
 1096ERGO    R415387  18.732   6.571   6.096 -0.1219  0.1711 -0.0483
 1096ERGO    R515388  18.829   6.402   6.193  0.0399  0.2592 -0.0704
 1096ERGO    C115389  18.739   6.609   6.500  0.0072  0.2143 -0.0515
 1096ERGO    C215390  18.838   6.739   6.782  0.2095 -0.3383  0.0896
 1097ERGO   ROH15391  15.850   7.443   5.451  0.0193 -0.4699 -0.0868
 1097ERGO    R115392  15.957   7.279   5.655  0.2824 -0.3695 -0.1393
 1097ERGO    R215393  16.226   7.274   5.716  0.2752  0.2193  0.0178
 1097ERGO    R315394  16.138   7.328   5.967 -0.0172 -0.1554  0.0047
 1097ERGO    R415395  16.387   7.178   6.006  0.3512  0.4435  0.0510
 1097ERGO    R515396  16.192   7.132   6.093  0.4065 -0.1056 -0.0891
 1097ERGO    C115397  16.398   7.174   6.411  0.1210  0.2222  0.0579
 1097ERGO    C215398  16.644   7.309   6.609 -0.0655  0.0242 -0.1434
 1098ERGO   ROH15399  17.324   5.296   9.511  0.3009  0.0389 -0.1388
 1098ERGO    R115400  17.400   5.192   9.259  0.1064 -0.0020 -0.1850
 1098ERGO    R215401  17.218   5.086   9.079 -0.0563  0.0879 -0.0924
 1098ERGO    R315402  17.329   5.268   8.910 -0.0562  0.0389 -0.1401
 1098ERGO    R415403  17.153   5.108   8.740  0.0309 -0.0448 -0.1165
 1098ERGO    R515404  17.364   5.147   8.707  0.0172 -0.0188 -0.0820
 1098ERGO    C115405  17.220   5.291   8.384  0.0816 -0.1680 -0.1752
 1098ERGO    C215406  17.109   5.378   8.050  0.0034  0.0987 -0.1993
 1099ERGO   ROH15407  15.725   9.395   7.570 -0.0720  0.1153  0.0187
 1099ERGO    R115408  15.667   9.301   7.831 -0.2092  0.0860 -0.0213
 1099ERGO    R215409  15.827   9.359   8.048 -0.1507 -0.1947  0.0141
 1099ERGO    R315410  15.594   9.449   8.155 -0.0500  0.0564  0.0291
 1099ERGO    R415411  15.790   9.479   8.370  0.0020 -0.1423  0.0127
 1099ERGO    R515412  15.600   9.374   8.382 -0.1100  0.0578  0.0316
 1099ERGO    C115413  15.550   9.634   8.658  0.1855  0.1238  0.0261
 1099ERGO    C215414  15.501   9.856   8.806  0.1657 -0.1741  0.0802
 1100ERGO   ROH15415  13.665  11.561   5.837 -0.2642 -0.2585 -0.1321
 1100ERGO    R115416  13.700  11.501   6.111 -0.1690 -0.0618 -0.0996
 1100ERGO    R215417  13.706  11.696   6.306 -0.1659  0.0743 -0.2343
 1100ERGO    R315418  13.509  11.546   6.418 -0.0931  0.0956 -0.0746
 1100ERGO    R415419  13.601  11.722   6.635  0.0516  0.1348 -0.1679
 1100ERGO    R515420  13.586  11.504   6.641  0.0549  0.1365 -0.1173
 1100ERGO    C115421  13.355  11.596   6.931  0.2466  0.1902  0.0206
 1100ERGO    C215422  13.063  11.556   7.163  0.1210 -0.2000 -0.3762
 1101ERGO   ROH15423  10.072  16.187   9.494 -0.1225  0.1239  0.1871
 1101ERGO    R115424  10.084  16.365   9.273 -0.0520  0.0755  0.1510
 1101ERGO    R215425  10.303  16.379   9.106  0.0216  0.0665  0.2386
 1101ERGO    R315426  10.117  16.336   8.912  0.1070 -0.0058  0.1727
 1101ERGO    R415427  10.336  16.477   8.776  0.0279  0.2073  0.2806
 1101ERGO    R515428  10.125  16.534   8.777 -0.0121  0.0445  0.2448
 1101ERGO    C115429  10.181  16.493   8.402  0.1118  0.2213  0.2430
 1101ERGO    C215430  10.138  16.480   8.070 -0.1691 -0.2408 -0.3273
 1102ERGO   ROH15431   2.672  17.977   6.188  0.0309  0.0304 -0.1869
 1102ERGO    R115432   2.656  18.137   6.421 -0.0980  0.0775 -0.2281
 1102ERGO    R215433   2.438  18.132   6.590 -0.0343 -0.1594 -0.1575
 1102ERGO    R315434   2.627  18.080   6.779  0.0973  0.1414 -0.1990
 1102ERGO    R415435   2.423  18.239   6.918 -0.3751 -0.5413 -0.0391
 1102ERGO    R515436   2.637  18.281   6.909 -0.4657  0.0525  0.0201
 1102ERGO    C115437   2.592  18.253   7.287 -0.4500 -0.4814 -0.0091
 1102ERGO    C215438   2.451  18.436   7.634  0.2236 -0.1027 -0.1281
 1103ERGO   ROH15439   1.568   6.582   9.471  0.0317 -0.0044 -0.0642
 1103ERGO    R115440   1.804   6.491   9.344  0.0678  0.0588 -0.0433
 1103ERGO    R215441   1.799   6.318   9.128  0.1358 -0.0058  0.0064
 1103ERGO    R315442   1.949   6.511   9.011  0.0509  0.0248 -0.0528
 1103ERGO    R415443   1.981   6.276   8.837  0.0629  0.0193 -0.0431
 1103ERGO    R515444   2.141   6.394   8.927  0.0578  0.0689 -0.0988
 1103ERGO    C115445   2.228   6.434   8.557 -0.0594  0.0627 -0.1274
 1103ERGO    C215446   2.411   6.475   8.241  0.2817  0.0149 -0.0665
 1104ERGO   ROH15447   2.641   2.361   6.523 -0.0867  0.0198  0.0369
 1104ERGO    R115448   2.671   2.261   6.787 -0.1646 -0.2232 -0.0420
 1104ERGO    R215449   2.625   2.417   7.011  0.2149 -0.2819  0.0913
 1104ERGO    R315450   2.458   2.213   7.077 -0.1466 -0.0214  0.0038
 1104ERGO    R415451   2.518   2.345   7.331  0.2092 -0.3336  0.0771
 1104ERGO    R515452   2.541   2.133   7.287 -0.2116 -0.3451 -0.0938
 1104ERGO    C115453   2.299   2.113   7.581 -0.1336 -0.1192 -0.0133
 1104ERGO    C215454   2.285   2.260   7.931  0.0206 -0.0555 -0.1893
 1105ERGO   ROH15455   2.346  15.465   6.077  0.1267 -0.2701 -0.0097
 1105ERGO    R115456   2.471  15.683   6.208 -0.0376 -0.3034  0.2070
 1105ERGO    R215457   2.594  15.657   6.455  0.1713 -0.5139  0.0870
 1105ERGO    R315458   2.806  15.765   6.324 -0.0460 -0.0731  0.0730
 1105ERGO    R415459   2.868  15.801   6.608  0.1211 -0.4081  0.0784
 1105ERGO    R515460   2.866  15.956   6.455 -0.1742 -0.1855  0.2976
 1105ERGO    C115461   3.227  15.986   6.574 -0.1121  0.0672  0.0602
 1105ERGO    C215462   3.575  16.132   6.489  0.4095  0.0938  0.1616
 1106ERGO   ROH15463  15.742   4.727   9.644 -0.2023  0.0281 -0.1339
 1106ERGO    R115464  15.841   4.628   9.397 -0.0511  0.1188 -0.1112
 1106ERGO    R215465  15.676   4.524   9.202  0.0895 -0.0298 -0.1549
 1106ERGO    R315466  15.799   4.708   9.045 -0.0368  0.0860 -0.1198
 1106ERGO    R415467  15.639   4.547   8.859  0.0190  0.0626 -0.1415
 1106ERGO    R515468  15.853   4.589   8.844 -0.0076  0.1807 -0.1669
 1106ERGO    C115469  15.734   4.733   8.512 -0.1405  0.2251 -0.1008
 1106ERGO    C215470  15.641   4.493   8.242 -0.1142 -0.0698  0.0644
 1107ERGO   ROH15471  13.674   6.682   6.189  0.0595  0.1368 -0.0121
 1107ERGO    R115472  13.576   6.690   6.455  0.3074 -0.1976  0.0942
 1107ERGO    R215473  13.735   6.631   6.673  0.7158  0.2090 -0.0875
 1107ERGO    R315474  13.651   6.875   6.759  0.0953 -0.0308  0.0502
 1107ERGO    R415475  13.787   6.757   6.991  0.7466  0.2922 -0.1239
 1107ERGO    R515476  13.585   6.839   6.986  0.4725 -0.2885  0.1354
 1107ERGO    C115477  13.740   7.059   7.256  0.1821  0.1156 -0.0158
 1107ERGO    C215478  13.984   7.129   7.501 -0.4717  0.3608  0.1835
 1108ERGO   ROH15479  12.012   3.064   6.797 -0.3362 -0.1638 -0.1453
 1108ERGO    R115480  11.857   2.951   7.005 -0.0338 -0.2342  0.0479
 1108ERGO    R215481  11.969   2.853   7.237  0.2669  0.1528  0.0755
 1108ERGO    R315482  11.793   3.023   7.356  0.0574 -0.0226  0.0227
 1108ERGO    R415483  11.908   2.868   7.577  0.3885  0.3121  0.0915
 1108ERGO    R515484  11.696   2.893   7.533  0.3266 -0.0418  0.1604
 1108ERGO    C115485  11.707   3.037   7.886  0.2626  0.2402  0.0513
 1108ERGO    C215486  11.859   3.144   8.186 -0.1109  0.0679 -0.2014
 1109ERGO   ROH15487   4.785  17.787   9.513 -0.0357  0.2092  0.1124
 1109ERGO    R115488   4.834  17.679   9.256  0.1789  0.4121  0.0640
 1109ERGO    R215489   5.089  17.624   9.165  0.2430 -0.0578  0.4684
 1109ERGO    R315490   4.986  17.376   9.122 -0.2685  0.2149 -0.0130
 1109ERGO    R415491   5.172  17.418   8.900  0.2889  0.0405  0.4061
 1109ERGO    R515492   4.962  17.362   8.884  0.1693  0.5430 -0.0868
 1109ERGO    C115493   5.123  17.066   8.706 -0.1646  0.3538 -0.0822
 1109ERGO    C215494   5.162  16.889   8.528  0.0199 -0.1800  0.1397
 1110ERGO   ROH15495   8.744  13.639   6.191  0.0116 -0.1380 -0.0266
 1110ERGO    R115496   8.941  13.468   6.301  0.0012 -0.1371 -0.0054
 1110ERGO    R215497   9.133  13.557   6.478  0.0450 -0.1139 -0.0601
 1110ERGO    R315498   9.038  13.356   6.633  0.0324 -0.0508  0.0138
 1110ERGO    R415499   9.291  13.431   6.758  0.0759 -0.0880 -0.0661
 1110ERGO    R515500   9.232  13.231   6.696  0.0116 -0.0854 -0.0004
 1110ERGO    C115501   9.294  13.169   7.067  0.0819 -0.0137 -0.0001
 1110ERGO    C215502   9.564  12.935   7.285  0.1800 -0.1999 -0.1711
 1111ERGO   ROH15503   0.166   7.996   5.541  0.0968 -0.1723  0.0134
 1111ERGO    R115504   0.295   7.896   5.772  0.1944 -0.0671  0.0046
 1111ERGO    R215505   0.534   8.000   5.865  0.1565  0.0753 -0.0575
 1111ERGO    R315506   0.394   8.027   6.097  0.1867  0.0362 -0.0340
 1111ERGO    R415507   0.669   7.972   6.182  0.1889 -0.0317 -0.0798
 1111ERGO    R515508   0.490   7.864   6.244  0.1776 -0.0198 -0.0883
 1111ERGO    C115509   0.617   7.982   6.584  0.2362 -0.1306 -0.0707
 1111ERGO    C215510   0.651   8.227   6.918  0.0673  0.0024 -0.0449
 1112ERGO   ROH15511  14.376   7.959   5.913  0.1665  0.0245  0.1251
 1112ERGO    R115512  14.345   8.026   6.187  0.0831  0.0159  0.1185
 1112ERGO    R215513  14.107   7.992   6.322  0.0244  0.0606  0.0330
 1112ERGO    R315514  14.262   7.849   6.494 -0.0665  0.0152  0.0773
 1112ERGO    R415515  14.070   7.990   6.666 -0.0238  0.1240  0.0280
 1112ERGO    R515516  14.287   7.993   6.684 -0.0281  0.0277  0.0598
 1112ERGO    C115517  14.194   7.855   7.027 -0.1372  0.1184  0.0668
 1112ERGO    C215518  14.266   7.530   7.338  0.0988 -0.3158  0.0430
 1113ERGO   ROH15519  15.178   0.895   6.734  0.1341 -0.2165  0.1073
 1113ERGO    R115520  15.049   0.979   6.971  0.0406 -0.0020 -0.0173
 1113ERGO    R215521  15.136   0.905   7.222 -0.2439 -0.0383  0.0747
 1113ERGO    R315522  15.139   1.173   7.266  0.0331 -0.0248 -0.0006
 1113ERGO    R415523  15.129   1.055   7.534  0.0167  0.0655  0.0343
 1113ERGO    R515524  14.992   1.205   7.453  0.1324  0.1746  0.0443
 1113ERGO    C115525  15.126   1.394   7.755  0.4287  0.1386 -0.0599
 1113ERGO    C215526  15.437   1.494   7.953  0.1568 -0.1671 -0.2888
 1114ERGO   ROH15527   6.559   2.681   6.336 -0.1740 -0.0327 -0.0332
 1114ERGO    R115528   6.614   2.597   6.601 -0.0783 -0.0269 -0.0513
 1114ERGO    R215529   6.725   2.766   6.790 -0.0354 -0.0160 -0.0888
 1114ERGO    R315530   6.507   2.692   6.935  0.0208 -0.0400 -0.0149
 1114ERGO    R415531   6.681   2.828   7.127  0.0611  0.0064 -0.0798
 1114ERGO    R515532   6.596   2.628   7.148  0.0996 -0.0077 -0.0362
 1114ERGO    C115533   6.452   2.794   7.460  0.1701 -0.0031 -0.0052
 1114ERGO    C215534   6.427   2.710   7.796  0.1276  0.1031  0.2785
 1115ERGO   ROH15535  10.373  13.908   5.730  0.0953  0.1884  0.2008
 1115ERGO    R115536  10.322  13.900   6.008  0.1113  0.0856  0.2013
 1115ERGO    R215537  10.175  13.697   6.126  0.0648  0.0754  0.1263
 1115ERGO    R315538  10.395  13.674   6.284  0.0685 -0.0504  0.1029
 1115ERGO    R415539  10.174  13.580   6.451  0.0375  0.0146  0.1041
 1115ERGO    R515540  10.319  13.735   6.502  0.1110 -0.0569  0.1209
 1115ERGO    C115541  10.380  13.490   6.788  0.0251 -0.1387  0.0692
 1115ERGO    C215542  10.492  13.444   7.057 -0.0240 -0.1236 -0.3432
 1116ERGO   ROH15543   5.944  15.592   6.063  0.2180  0.2416  0.0301
 1116ERGO    R115544   6.006  15.748   6.291  0.2286  0.2162  0.0453
 1116ERGO    R215545   5.943  15.668   6.548 -0.0189  0.3178  0.0227
 1116ERGO    R315546   6.208  15.709   6.591 -0.0015  0.0562  0.1812
 1116ERGO    R415547   6.078  15.798   6.839 -0.0731  0.3484  0.0342
 1116ERGO    R515548   6.217  15.913   6.717  0.1361  0.1221  0.0606
 1116ERGO    C115549   6.406  15.911   7.049 -0.0885  0.1206  0.1897
 1116ERGO    C215550   6.549  15.853   7.359  0.0313  0.1122 -0.2225
 1117ERGO   ROH15551  16.040   3.403   6.511  0.3075 -0.0527 -0.3582
 1117ERGO    R115552  16.278   3.318   6.638  0.1863 -0.0504 -0.1279
 1117ERGO    R215553  16.396   3.461   6.843  0.0740  0.0331 -0.1311
 1117ERGO    R315554  16.379   3.224   6.975 -0.0882  0.1199  0.0074
 1117ERGO    R415555  16.582   3.376   7.122  0.2566 -0.0378 -0.2716
 1117ERGO    R515556  16.604   3.175   7.040 -0.0715 -0.1171 -0.1962
 1117ERGO    C115557  16.675   3.104   7.408  0.2108  0.0024 -0.2233
 1117ERGO    C215558  16.898   3.110   7.640  0.0182 -0.0191  0.0814
 1118ERGO   ROH15559  17.459  12.067   5.907  0.0929 -0.1164  0.0356
 1118ERGO    R115560  17.464  12.066   6.190  0.2160 -0.1405  0.0345
 1118ERGO    R215561  17.698  12.084   6.335  0.2696  0.0289 -0.0632
 1118ERGO    R315562  17.571  12.293   6.453  0.1539 -0.0799  0.0062
 1118ERGO    R415563  17.757  12.194   6.657  0.0061 -0.2059  0.0701
 1118ERGO    R515564  17.543  12.224   6.681 -0.0118 -0.2545 -0.0681
 1118ERGO    C115565  17.672  12.455   6.955 -0.2560 -0.4446  0.2128
 1118ERGO    C215566  17.523  12.692   7.193  0.1304  0.0023  0.2250
 1119ERGO   ROH15567   9.187   2.215   6.774 -0.0370  0.0318  0.0390
 1119ERGO    R115568   9.233   2.158   7.047 -0.1663 -0.2186  0.0133
 1119ERGO    R215569   9.154   2.329   7.249  0.3033 -0.0791  0.0982
 1119ERGO    R315570   9.029   2.108   7.345 -0.3014  0.1984 -0.0033
 1119ERGO    R415571   9.070   2.277   7.581  0.3338 -0.0874  0.1039
 1119ERGO    R515572   9.131   2.069   7.558 -0.2851 -0.2650 -0.0883
 1119ERGO    C115573   8.903   2.039   7.863 -0.2161  0.1682  0.0120
 1119ERGO    C215574   8.547   1.944   8.131 -0.2173  0.1778 -0.2428
 1120ERGO   ROH15575   7.442   6.480   6.637 -0.2357  0.0926  0.1635
 1120ERGO    R115576   7.292   6.516   6.874 -0.1328  0.0761  0.2307
 1120ERGO    R215577   7.289   6.329   7.078 -0.1294  0.0132  0.1712
 1120ERGO    R315578   7.364   6.541   7.230  0.0095 -0.0643  0.2133
 1120ERGO    R415579   7.311   6.328   7.423 -0.1942 -0.0507  0.1759
 1120ERGO    R515580   7.226   6.528   7.425 -0.0386  0.0181  0.1861
 1120ERGO    C115581   7.394   6.527   7.767 -0.1015 -0.1606  0.2181
 1120ERGO    C215582   7.503   6.437   8.046  0.3845  0.1785  0.0189
 1121ERGO   ROH15583  11.031   9.086   6.379  0.1760  0.1052  0.1999
 1121ERGO    R115584  11.157   9.310   6.498  0.2968  0.0784  0.1242
 1121ERGO    R215585  11.121   9.378   6.763  0.2402  0.2539  0.0719
 1121ERGO    R315586  11.392   9.369   6.769  0.2323  0.0536  0.1860
 1121ERGO    R415587  11.316   9.477   7.031  0.2032  0.2652  0.0950
 1121ERGO    R515588  11.456   9.566   6.889  0.3289  0.0789  0.0968
 1121ERGO    C115589  11.685   9.526   7.192  0.1743  0.0836  0.2155
 1121ERGO    C215590  11.735   9.526   7.584  0.3585  0.0093  0.1042
 1122ERGO   ROH15591  18.464  14.368   9.317  0.1070  0.0632  0.0037
 1122ERGO    R115592  18.353  14.448   9.069  0.2843  0.3017 -0.0042
 1122ERGO    R215593  18.509  14.520   8.853  0.4650 -0.1131 -0.0285
 1122ERGO    R315594  18.363  14.330   8.725 -0.0205  0.2112  0.0159
 1122ERGO    R415595  18.499  14.477   8.510  0.4014 -0.2059 -0.0143
 1122ERGO    R515596  18.285  14.438   8.526  0.2877  0.3543 -0.0305
 1122ERGO    C115597  18.357  14.272   8.191 -0.0913  0.0445  0.0357
 1122ERGO    C215598  18.500  14.185   7.859  0.1588 -0.0802 -0.3077
 1123ERGO   ROH15599  10.587   5.988   6.755 -0.0433  0.0859 -0.1672
 1123ERGO    R115600  10.680   6.060   7.012 -0.0865  0.1268 -0.1628
 1123ERGO    R215601  10.733   5.874   7.210 -0.2135  0.1647 -0.0909
 1123ERGO    R315602  10.976   5.994   7.214 -0.1674  0.0714 -0.0620
 1123ERGO    R415603  10.961   5.849   7.468 -0.1997 -0.0201 -0.1196
 1123ERGO    R515604  11.006   6.060   7.442 -0.1223 -0.0282 -0.0399
 1123ERGO    C115605  11.323   5.947   7.622 -0.1483 -0.2152 -0.1092
 1123ERGO    C215606  11.308   5.766   7.878 -0.1599  0.2099  0.1894
 1124ERGO   ROH15607  16.726   7.051   5.725  0.1005  0.0711 -0.0864
 1124ERGO    R115608  16.895   6.973   5.939 -0.0493 -0.2205 -0.0700
 1124ERGO    R215609  17.015   7.157   6.106  0.2835 -0.4228 -0.0927
 1124ERGO    R315610  16.896   7.008   6.301  0.0019 -0.1814 -0.0712
 1124ERGO    R415611  17.085   7.182   6.444  0.2806 -0.4354 -0.0900
 1124ERGO    R515612  17.072   6.964   6.458 -0.0799 -0.4266 -0.0329
 1124ERGO    C115613  17.014   7.057   6.823  0.0145 -0.2161 -0.0681
 1124ERGO    C215614  17.029   7.285   7.021 -0.0293 -0.1482  0.2198
 1125ERGO   ROH15615  17.493   2.618   7.977 -0.1726  0.1023 -0.1691
 1125ERGO    R115616  17.409   2.352   7.927 -0.1183  0.0755 -0.1216
 1125ERGO    R215617  17.453   2.225   7.685  0.0880 -0.0280 -0.0353
 1125ERGO    R315618  17.569   2.036   7.842 -0.0277  0.0464  0.1473
 1125ERGO    R415619  17.434   1.885   7.631  0.2504 -0.0489  0.0336
 1125ERGO    R515620  17.411   1.857   7.845  0.0194  0.0011  0.0192
 1125ERGO    C115621  17.532   1.509   7.746  0.2366  0.0088  0.2451
 1125ERGO    C215622  17.497   1.177   7.812  0.0839 -0.1868  0.1441
 1126ERGO   ROH15623   1.476  13.056   5.856  0.0956 -0.1563  0.0640
 1126ERGO    R115624   1.458  13.033   6.138  0.0759  0.0588  0.0826
 1126ERGO    R215625   1.411  13.251   6.302 -0.0981  0.1644 -0.0958
 1126ERGO    R315626   1.206  13.097   6.392 -0.0030  0.0909 -0.0048
 1126ERGO    R415627   1.225  13.317   6.585  0.0925  0.0082  0.0684
 1126ERGO    R515628   1.228  13.103   6.631  0.1662 -0.0048 -0.0196
 1126ERGO    C115629   0.924  13.210   6.835  0.2927 -0.1517  0.2494
 1126ERGO    C215630   0.616  13.188   6.971 -0.0773  0.1965 -0.0676
 1127ERGO   ROH15631   0.026  14.517   5.858  0.0671  0.0520 -0.0163
 1127ERGO    R115632  -0.009  14.720   6.051 -0.0098  0.0190  0.0048
 1127ERGO    R215633  -0.139  14.677   6.290  0.1397 -0.0966  0.0659
 1127ERGO    R315634   0.091  14.777   6.396  0.1096  0.0924 -0.0410
 1127ERGO    R415635  -0.119  14.854   6.587  0.1118  0.0659 -0.0275
 1127ERGO    R515636   0.026  14.987   6.492  0.0107  0.1040 -0.1311
 1127ERGO    C115637   0.109  15.050   6.859  0.0674  0.3379 -0.1821
 1127ERGO    C215638   0.071  15.296   7.146 -0.1536  0.0669 -0.1219
 1128ERGO   ROH15639   7.627   0.272   6.175 -0.0919 -0.1767  0.0592
 1128ERGO    R115640   7.558   0.409   6.413 -0.1532 -0.1943  0.0525
 1128ERGO    R215641   7.398   0.295   6.608 -0.1040 -0.2570  0.0618
 1128ERGO    R315642   7.607   0.359   6.770 -0.1291 -0.1548  0.0537
 1128ERGO    R415643   7.373   0.363   6.946 -0.1168 -0.2768  0.0642
 1128ERGO    R515644   7.519   0.523   6.920 -0.2012 -0.2048  0.0619
 1128ERGO    C115645   7.555   0.461   7.295 -0.1478 -0.1925  0.0580
 1128ERGO    C215646   7.707   0.315   7.551  0.0160 -0.0360 -0.2806
 1129ERGO   ROH15647  12.440  11.166   6.083 -0.0815 -0.0360 -0.0212
 1129ERGO    R115648  12.512  11.123   6.354 -0.1670 -0.0650 -0.0025
 1129ERGO    R215649  12.446  10.892   6.490  0.0173 -0.1940 -0.1271
 1129ERGO    R315650  12.714  10.884   6.539  0.0058  0.0799 -0.0014
 1129ERGO    R415651  12.600  10.674   6.710  0.1768 -0.3209 -0.3610
 1129ERGO    R515652  12.730  10.837   6.774 -0.0639 -0.2398 -0.0553
 1129ERGO    C115653  12.940  10.539   6.883  0.2588 -0.1378 -0.3793
 1129ERGO    C215654  13.161  10.237   6.861 -0.0047 -0.0985 -0.0599
 1130ERGO   ROH15655  15.583   3.789   6.423 -0.1063  0.0010  0.0454
 1130ERGO    R115656  15.460   3.927   6.637 -0.0612  0.0013  0.0711
 1130ERGO    R215657  15.482   3.842   6.900  0.0230  0.0215  0.0714
 1130ERGO    R315658  15.570   4.096   6.940  0.0054  0.0346  0.0284
 1130ERGO    R415659  15.443   4.020   7.194  0.1048  0.0316  0.0764
 1130ERGO    R515660  15.399   4.198   7.075  0.0406  0.0199  0.0837
 1130ERGO    C115661  15.503   4.362   7.403  0.1360  0.0497  0.0390
 1130ERGO    C215662  15.582   4.502   7.674  0.1247  0.0097  0.0832
 1131ERGO   ROH15663  10.936   1.727   8.519  0.1637 -0.1503 -0.2934
 1131ERGO    R115664  11.013   1.520   8.695 -0.0982 -0.2531 -0.2949
 1131ERGO    R215665  11.064   1.262   8.609  0.1446 -0.1769 -0.3919
 1131ERGO    R315666  11.301   1.301   8.736 -0.0974 -0.1875  0.0812
 1131ERGO    R415667  11.308   1.021   8.650  0.2141 -0.0837 -0.2544
 1131ERGO    R515668  11.340   1.095   8.852 -0.1880 -0.3073 -0.0969
 1131ERGO    C115669  11.672   0.916   8.794  0.0275 -0.0395  0.2697
 1131ERGO    C215670  11.991   0.957   8.896 -0.1530  0.3976  0.2273
 1132ERGO   ROH15671   9.138  12.769   5.735 -0.0405  0.0077 -0.1437
 1132ERGO    R115672   9.089  12.693   6.003 -0.1070  0.0261 -0.1517
 1132ERGO    R215673   8.897  12.508   6.072 -0.1030  0.0144 -0.1918
 1132ERGO    R315674   9.104  12.385   6.198 -0.1278  0.0453 -0.1172
 1132ERGO    R415675   8.868  12.315   6.357 -0.1806  0.0160 -0.1969
 1132ERGO    R515676   9.053  12.406   6.431 -0.2151  0.0451 -0.1330
 1132ERGO    C115677   9.047  12.088   6.642 -0.2491  0.0459 -0.1299
 1132ERGO    C215678   9.093  11.690   6.742  0.3327  0.3084  0.3092
 1133ERGO   ROH15679   9.244   9.730   7.387  0.0725 -0.2180 -0.0287
 1133ERGO    R115680   9.047   9.930   7.349  0.0898 -0.1758  0.1014
 1133ERGO    R215681   8.789   9.870   7.271  0.1251 -0.0927 -0.0763
 1133ERGO    R315682   8.724  10.012   7.493  0.0257 -0.3320  0.0510
 1133ERGO    R415683   8.476  10.003   7.336  0.1506  0.0222 -0.1839
 1133ERGO    R515684   8.574  10.182   7.414  0.2017 -0.1336  0.1292
 1133ERGO    C115685   8.233  10.214   7.582  0.0722 -0.1356 -0.1271
 1133ERGO    C215686   8.045  10.389   7.791  0.0188  0.2428  0.2038
 1134ERGO   ROH15687   0.026   0.557   6.336  0.0124 -0.1517  0.0086
 1134ERGO    R115688  -0.012   0.426   6.585 -0.3371 -0.1185 -0.0226
 1134ERGO    R215689   0.123   0.501   6.814  0.0202 -0.6453 -0.0491
 1134ERGO    R315690  -0.127   0.519   6.917  0.0961  0.1750  0.0547
 1134ERGO    R415691   0.047   0.483   7.151  0.0891 -0.6690 -0.0340
 1134ERGO    R515692  -0.128   0.364   7.100 -0.3900 -0.0073 -0.0844
 1134ERGO    C115693  -0.233   0.491   7.444  0.2002  0.0873  0.0720
 1134ERGO    C215694  -0.360   0.315   7.690 -0.0715  0.2362  0.3612
 1135ERGO   ROH15695   2.067   9.731   5.843 -0.1401 -0.0371 -0.0541
 1135ERGO    R115696   2.130   9.748   6.118 -0.1494  0.0699 -0.0578
 1135ERGO    R215697   1.983   9.618   6.313 -0.0916  0.0536 -0.0204
 1135ERGO    R315698   2.225   9.517   6.383 -0.0428  0.1868  0.0058
 1135ERGO    R415699   2.071   9.523   6.633  0.0080  0.2979  0.0270
 1135ERGO    R515700   2.268   9.611   6.599 -0.0327  0.3443 -0.0666
 1135ERGO    C115701   2.350   9.372   6.885  0.1119  0.5651  0.0790
 1135ERGO    C215702   2.467   9.229   7.219 -0.3829 -0.0800  0.3366
 1136ERGO   ROH15703   6.947   7.709   6.798 -0.1429 -0.2065 -0.0883
 1136ERGO    R115704   6.781   7.771   7.018 -0.0070 -0.1697  0.0055
 1136ERGO    R215705   6.508   7.807   6.994  0.0016  0.0159  0.1361
 1136ERGO    R315706   6.498   7.616   7.188 -0.0335 -0.0429  0.0770
 1136ERGO    R415707   6.228   7.729   7.181  0.0613  0.2031  0.3069
 1136ERGO    R515708   6.356   7.709   7.356  0.1682  0.0275  0.2107
 1136ERGO    C115709   6.056   7.504   7.471  0.0631  0.2567  0.3508
 1136ERGO    C215710   5.769   7.340   7.602  0.0469  0.2151  0.1581
 1137ERGO   ROH15711  14.754   9.351   6.111  0.2453  0.2058  0.0479
 1137ERGO    R115712  14.528   9.459   6.242  0.0863 -0.0337 -0.0200
 1137ERGO    R215713  14.422   9.348   6.472  0.1840 -0.1014 -0.0038
 1137ERGO    R315714  14.455   9.599   6.570 -0.1387 -0.0286 -0.0716
 1137ERGO    R415715  14.359   9.442   6.799  0.1409 -0.1060 -0.0110
 1137ERGO    R515716  14.273   9.628   6.723 -0.1374 -0.2428 -0.0312
 1137ERGO    C115717  14.353   9.734   7.081 -0.1871 -0.0403 -0.0788
 1137ERGO    C215718  14.255   9.723   7.365  0.1012 -0.2942 -0.1620
 1138ERGO   ROH15719  11.873   7.342   6.492 -0.1048 -0.1321  0.0897
 1138ERGO    R115720  11.846   7.471   6.743 -0.0335 -0.0188  0.0395
 1138ERGO    R215721  12.009   7.413   6.958 -0.0484 -0.0056  0.0527
 1138ERGO    R315722  12.053   7.682   6.955  0.0726 -0.0252 -0.0558
 1138ERGO    R415723  12.156   7.592   7.215 -0.0278  0.0394  0.0101
 1138ERGO    R515724  12.010   7.751   7.181  0.0500  0.0916 -0.0938
 1138ERGO    C115725  12.282   7.947   7.363  0.0977  0.0473 -0.1164
 1138ERGO    C215726  12.668   8.082   7.400  0.0934 -0.2633 -0.1462
 1139ERGO   ROH15727  16.964  18.106  10.004 -0.1117 -0.1688  0.0086
 1139ERGO    R115728  17.124  18.056   9.776 -0.0576 -0.0361  0.0165
 1139ERGO    R215729  17.058  17.867   9.586  0.1129 -0.0998  0.0180
 1139ERGO    R315730  17.085  18.076   9.415 -0.0609 -0.0791  0.0149
 1139ERGO    R415731  17.055  17.841   9.242  0.0709 -0.0944  0.0177
 1139ERGO    R515732  17.216  17.989   9.235 -0.0325  0.0154 -0.0091
 1139ERGO    C115733  17.079  18.023   8.880 -0.1169 -0.0717  0.0145
 1139ERGO    C215734  16.971  17.944   8.644 -0.0182 -0.2428  0.1252
 1140ERGO   ROH15735   0.035   9.843   6.326 -0.0536 -0.0600 -0.0343
 1140ERGO    R115736  -0.083   9.941   6.564 -0.0777 -0.0720 -0.0412
 1140ERGO    R215737  -0.352   9.913   6.620 -0.0962 -0.0153 -0.1008
 1140ERGO    R315738  -0.260   9.800   6.849 -0.1705 -0.0777 -0.1012
 1140ERGO    R415739  -0.534   9.883   6.912 -0.1606 -0.0128 -0.1405
 1140ERGO    R515740  -0.354   9.935   7.024 -0.1673 -0.0798 -0.0975
 1140ERGO    C115741  -0.554   9.759   7.298 -0.2679 -0.0699 -0.1639
 1140ERGO    C215742  -0.800   9.686   7.454  0.1210  0.1075  0.0943
 1141ERGO   ROH15743  12.939  18.288   9.694 -0.1291 -0.2173 -0.0619
 1141ERGO    R115744  12.897  18.201   9.428 -0.3638 -0.2007 -0.0326
 1141ERGO    R215745  12.653  18.225   9.300 -0.3593  0.2382  0.0252
 1141ERGO    R315746  12.801  18.353   9.111 -0.1536 -0.0824 -0.0410
 1141ERGO    R415747  12.525  18.379   9.018 -0.1511  0.5219  0.0804
 1141ERGO    R515748  12.693  18.301   8.904 -0.3639  0.1481  0.0062
 1141ERGO    C115749  12.588  18.589   8.678  0.1632  0.3860  0.0505
 1141ERGO    C215750  12.671  18.775   8.373 -0.1040  0.3119 -0.1260
 1142ERGO   ROH15751   6.254  10.975   6.347  0.0575 -0.0968 -0.0237
 1142ERGO    R115752   6.047  11.110   6.485  0.0610 -0.0497 -0.0654
 1142ERGO    R215753   5.791  11.132   6.383  0.0208 -0.2193  0.0027
 1142ERGO    R315754   5.722  11.023   6.623  0.1353 -0.0415  0.1196
 1142ERGO    R415755   5.466  11.089   6.494  0.0682 -0.2577  0.1296
 1142ERGO    R515756   5.531  11.150   6.693  0.1013 -0.0564  0.0615
 1142ERGO    C115757   5.212  10.961   6.783  0.2031 -0.1131  0.3132
 1142ERGO    C215758   5.003  10.998   7.007 -0.3273  0.0336 -0.1500
 1143ERGO   ROH15759  10.755   3.754   6.560 -0.0242 -0.1894  0.1925
 1143ERGO    R115760  10.886   3.888   6.773 -0.0389 -0.1150  0.1544
 1143ERGO    R215761  10.789   4.122   6.884 -0.0852 -0.1177  0.1138
 1143ERGO    R315762  10.807   3.981   7.115 -0.0313 -0.0639  0.1432
 1143ERGO    R415763  10.798   4.261   7.200 -0.1080 -0.0428  0.0820
 1143ERGO    R515764  10.949   4.114   7.255 -0.0599  0.0104  0.1058
 1143ERGO    C115765  10.821   4.210   7.601 -0.0706  0.0513  0.0911
 1143ERGO    C215766  10.846   4.260   7.900  0.3442 -0.1116  0.1094
 1144ERGO   ROH15767   0.944  11.694   6.001  0.2518  0.3304 -0.0174
 1144ERGO    R115768   1.040  11.722   6.265  0.1548  0.1303  0.0412
 1144ERGO    R215769   0.875  11.781   6.479  0.0794 -0.0163  0.0225
 1144ERGO    R315770   0.988  11.557   6.586  0.0247 -0.1023 -0.0968
 1144ERGO    R415771   1.034  11.767   6.785  0.0552 -0.2223  0.0278
 1144ERGO    R515772   1.185  11.637   6.696  0.0349 -0.2045 -0.0370
 1144ERGO    C115773   1.233  11.550   7.064 -0.0102 -0.4231 -0.0812
 1144ERGO    C215774   1.331  11.440   7.431 -0.2695 -0.1705  0.3890
 1145ERGO   ROH15775  10.802  17.278   6.661 -0.2680 -0.0689  0.0324
 1145ERGO    R115776  10.863  17.057   6.828 -0.1329 -0.0110  0.0595
 1145ERGO    R215777  11.118  16.955   6.852 -0.0785  0.1304  0.0481
 1145ERGO    R315778  11.074  16.996   7.117 -0.0694  0.1429  0.0485
 1145ERGO    R415779  11.304  16.814   7.107  0.0257  0.2519  0.0407
 1145ERGO    R515780  11.120  16.783   7.218  0.0494  0.1729  0.0676
 1145ERGO    C115781  11.372  16.770   7.504  0.0951  0.3342  0.0369
 1145ERGO    C215782  11.590  16.865   7.723 -0.0351  0.0451  0.2619
 1146ERGO   ROH15783  12.610  16.184   9.932 -0.2391  0.1512  0.0105
 1146ERGO    R115784  12.519  16.303   9.692 -0.1777  0.2538  0.0376
 1146ERGO    R215785  12.582  16.563   9.621  0.1725  0.1554 -0.0261
 1146ERGO    R315786  12.670  16.445   9.392 -0.1064 -0.0088 -0.0527
 1146ERGO    R415787  12.650  16.729   9.326  0.2993  0.0175 -0.0764
 1146ERGO    R515788  12.559  16.564   9.217 -0.0027  0.1409 -0.0174
 1146ERGO    C115789  12.772  16.716   8.940  0.1113 -0.2172 -0.1308
 1146ERGO    C215790  12.975  16.915   8.734 -0.2600 -0.1179 -0.1092
 1147ERGO   ROH15791  17.141  18.375   6.417 -0.0792 -0.0751  0.1783
 1147ERGO    R115792  17.225  18.470   6.670  0.0652 -0.1822  0.1713
 1147ERGO    R215793  17.049  18.513   6.878  0.1147  0.1612  0.1449
 1147ERGO    R315794  17.220  18.349   7.013 -0.1833 -0.1226  0.1908
 1147ERGO    R415795  17.103  18.522   7.220  0.1939  0.2233  0.1317
 1147ERGO    R515796  17.315  18.489   7.182  0.1328 -0.2239  0.1051
 1147ERGO    C115797  17.294  18.373   7.545 -0.0399 -0.0073  0.1672
 1147ERGO    C215798  17.106  18.446   7.759  0.1151 -0.0280 -0.1873
 1148ERGO   ROH15799  11.302  10.597   6.203  0.0764  0.0104 -0.0811
 1148ERGO    R115800  11.345  10.665   6.474 -0.0783 -0.0600 -0.0383
 1148ERGO    R215801  11.591  10.744   6.571 -0.1062 -0.1989  0.1476
 1148ERGO    R315802  11.451  10.960   6.659 -0.0605 -0.1457  0.0906
 1148ERGO    R415803  11.699  10.962   6.817 -0.0423 -0.1386  0.0669
 1148ERGO    R515804  11.495  10.967   6.894 -0.0357 -0.0779  0.0854
 1148ERGO    C115805  11.630  11.292   7.042  0.0377 -0.0534 -0.0336
 1148ERGO    C215806  11.572  11.705   7.063 -0.0516  0.2003 -0.1776
 1149ERGO   ROH15807  12.407   5.919   6.379  0.3025 -0.0642  0.0209
 1149ERGO    R115808  12.333   5.983   6.645  0.1555  0.0711 -0.0500
 1149ERGO    R215809  12.143   5.840   6.785  0.0184  0.1883 -0.1053
 1149ERGO    R315810  12.342   5.818   6.969 -0.0992  0.2012  0.0241
 1149ERGO    R415811  12.096   5.757   7.117 -0.2028  0.3974 -0.0823
 1149ERGO    R515812  12.247   5.906   7.170 -0.1705  0.3556 -0.0801
 1149ERGO    C115813  12.255   5.688   7.483 -0.4418  0.5314  0.0527
 1149ERGO    C215814  12.024   5.591   7.785  0.1663 -0.0890 -0.2156
 1150ERGO   ROH15815   6.879   4.006   6.534 -0.1715  0.0566 -0.0521
 1150ERGO    R115816   6.766   4.050   6.790  0.1464  0.1371  0.0810
 1150ERGO    R215817   6.591   3.871   6.909 -0.0946  0.3873  0.1252
 1150ERGO    R315818   6.770   3.883   7.113  0.1425 -0.0659 -0.0172
 1150ERGO    R415819   6.527   3.773   7.233 -0.0082  0.4012  0.1478
 1150ERGO    R515820   6.639   3.946   7.303  0.4372  0.1566  0.1281
 1150ERGO    C115821   6.657   3.727   7.614  0.2647 -0.0162  0.0272
 1150ERGO    C215822   6.790   3.515   7.901  0.0550 -0.1743 -0.3922
 1151ERGO   ROH15823   4.466  16.747   6.246 -0.1710 -0.2258  0.2795
 1151ERGO    R115824   4.455  16.957   6.435 -0.2890 -0.2419  0.2919
 1151ERGO    R215825   4.325  16.932   6.678  0.0272 -0.4657  0.4437
 1151ERGO    R315826   4.566  17.011   6.777  0.0348 -0.0740  0.1700
 1151ERGO    R415827   4.370  17.107   6.973  0.0716 -0.4313  0.4165
 1151ERGO    R515828   4.523  17.226   6.874 -0.2260 -0.1451  0.2423
 1151ERGO    C115829   4.622  17.283   7.237  0.1046 -0.0439  0.1437
 1151ERGO    C215830   4.581  17.356   7.546 -0.5121 -0.0770 -0.0637
 1152ERGO   ROH15831  14.114  12.343   8.727 -0.1959 -0.0811 -0.1504
 1152ERGO    R115832  13.938  12.454   8.536 -0.1083 -0.0530 -0.2147
 1152ERGO    R215833  13.996  12.460   8.266 -0.0526 -0.1476 -0.2027
 1152ERGO    R315834  13.757  12.334   8.243 -0.1025 -0.0456 -0.2211
 1152ERGO    R415835  13.828  12.406   7.969 -0.0334 -0.1112 -0.2206
 1152ERGO    R515836  13.642  12.454   8.071 -0.0259 -0.0178 -0.2530
 1152ERGO    C115837  13.505  12.257   7.775 -0.0691  0.0057 -0.2483
 1152ERGO    C215838  13.399  12.313   7.387  0.0435 -0.0268  0.2710
 1153ERGO   ROH15839   1.752   3.541   6.493 -0.0636  0.0395 -0.0034
 1153ERGO    R115840   1.582   3.495   6.714 -0.1433 -0.0007 -0.0713
 1153ERGO    R215841   1.495   3.243   6.786  0.1621 -0.0656  0.0954
 1153ERGO    R315842   1.599   3.311   7.028 -0.0809  0.2976  0.1043
 1153ERGO    R415843   1.375   3.133   7.091  0.2533 -0.1444  0.1023
 1153ERGO    R515844   1.408   3.333   7.170 -0.1992 -0.0180  0.0042
 1153ERGO    C115845   1.403   3.133   7.495  0.0782  0.1507  0.1146
 1153ERGO    C215846   1.395   3.136   7.842  0.0505 -0.0943 -0.1860
 1154ERGO   ROH15847   4.251  15.337   5.887  0.3034 -0.0605 -0.0405
 1154ERGO    R115848   4.319  15.402   6.154  0.2364 -0.0090 -0.0364
 1154ERGO    R215849   4.141  15.373   6.363  0.2093 -0.0361 -0.0684
 1154ERGO    R315850   4.342  15.224   6.471  0.2333  0.0372 -0.0088
 1154ERGO    R415851   4.175  15.301   6.700  0.0938 -0.0701 -0.0630
 1154ERGO    R515852   4.390  15.332   6.679  0.0942  0.0318  0.0314
 1154ERGO    C115853   4.383  15.120   6.997  0.0490 -0.0213 -0.0040
 1154ERGO    C215854   4.469  14.920   7.387  0.1097  0.1186 -0.1852
 1155ERGO   ROH15855   0.705   1.813   7.939  0.0698 -0.0050  0.0094
 1155ERGO    R115856   0.711   1.540   7.864  0.2223 -0.0255  0.0905
 1155ERGO    R215857   0.664   1.335   8.044  0.1033  0.0125  0.1034
 1155ERGO    R315858   0.476   1.262   7.862  0.3024 -0.0932 -0.0634
 1155ERGO    R415859   0.562   1.010   7.986  0.0429 -0.0067  0.3124
 1155ERGO    R515860   0.558   1.055   7.773  0.3341 -0.2236  0.2539
 1155ERGO    C115861   0.326   0.752   7.782  0.1947 -0.1171  0.2775
 1155ERGO    C215862   0.221   0.524   7.606  0.0973  0.0914 -0.4958
 1156ERGO   ROH15863   6.700  17.617   7.973 -0.1309 -0.0789 -0.0168
 1156ERGO    R115864   6.430  17.701   7.977 -0.1132 -0.0190 -0.0382
 1156ERGO    R215865   6.226  17.552   7.862 -0.1535 -0.0310  0.0452
 1156ERGO    R315866   6.115  17.574   8.110 -0.1312  0.1100  0.0436
 1156ERGO    R415867   5.887  17.556   7.928 -0.1481  0.0979  0.0687
 1156ERGO    R515868   5.922  17.710   8.077 -0.0927  0.1526 -0.0018
 1156ERGO    C115869   5.585  17.577   8.198 -0.1239  0.3054  0.0808
 1156ERGO    C215870   5.257  17.366   8.374  0.1125 -0.1461  0.1269
 1157ERGO   ROH15871  10.799  14.771   5.887  0.0394 -0.2601 -0.0349
 1157ERGO    R115872  10.874  14.769   6.160  0.2153 -0.1398 -0.0795
 1157ERGO    R215873  10.702  14.687   6.361  0.1604  0.4168  0.1251
 1157ERGO    R315874  10.908  14.520   6.423 -0.1402  0.0405  0.1444
 1157ERGO    R415875  10.810  14.618   6.682  0.0546  0.2717  0.1301
 1157ERGO    R515876  11.016  14.626   6.609  0.0703 -0.1243  0.1177
 1157ERGO    C115877  11.066  14.422   6.927 -0.2891 -0.1660  0.1511
 1157ERGO    C215878  11.100  14.262   7.115  0.1535  0.1383  0.0910
 1158ERGO   ROH15879  16.932   5.877   5.923  0.0503  0.3143 -0.1018
 1158ERGO    R115880  16.846   5.917   6.190 -0.0139  0.3722 -0.1311
 1158ERGO    R215881  16.954   5.778   6.403 -0.2691  0.2046 -0.1097
 1158ERGO    R315882  16.996   6.028   6.503 -0.0092  0.1389 -0.0473
 1158ERGO    R415883  17.000   5.851   6.738 -0.3710  0.0832 -0.0683
 1158ERGO    R515884  16.877   6.029   6.711 -0.1338  0.2510 -0.1149
 1158ERGO    C115885  17.067   6.128   7.026 -0.1864 -0.0491  0.0144
 1158ERGO    C215886  17.278   6.009   7.304  0.0220 -0.0142 -0.2275
 1159ERGO   ROH15887  18.049  13.470   6.056 -0.0064  0.3291 -0.2592
 1159ERGO    R115888  18.104  13.665   6.253 -0.0920  0.2542 -0.1585
 1159ERGO    R215889  17.913  13.842   6.344 -0.2214  0.0136  0.0638
 1159ERGO    R315890  17.985  13.745   6.587  0.0041 -0.0861 -0.0406
 1159ERGO    R415891  17.932  14.029   6.634  0.0633 -0.1077  0.1261
 1159ERGO    R515892  18.114  13.921   6.686  0.1057 -0.1367 -0.0890
 1159ERGO    C115893  18.010  14.046   7.031  0.4410 -0.2719  0.0642
 1159ERGO    C215894  17.967  14.429   7.156  0.2508 -0.3805 -0.3027
 1160ERGO   ROH15895   9.381   2.841   9.852  0.2226 -0.1614  0.0437
 1160ERGO    R115896   9.530   2.706   9.653  0.0582 -0.1235 -0.1070
 1160ERGO    R215897   9.421   2.631   9.410 -0.0573  0.2090 -0.1612
 1160ERGO    R315898   9.631   2.771   9.309  0.0639  0.0991 -0.0651
 1160ERGO    R415899   9.542   2.602   9.087  0.0505  0.1745 -0.1186
 1160ERGO    R515900   9.744   2.615   9.167  0.0289  0.0484 -0.0385
 1160ERGO    C115901   9.809   2.716   8.805  0.2272  0.0511 -0.0035
 1160ERGO    C215902   9.837   2.761   8.442 -0.1414  0.1001 -0.2011
 1161ERGO   ROH15903   7.496  17.211   5.879 -0.0685 -0.0941 -0.1407
 1161ERGO    R115904   7.434  17.011   6.069 -0.0186 -0.0535 -0.0809
 1161ERGO    R215905   7.548  17.005   6.321  0.0590 -0.0071 -0.1121
 1161ERGO    R315906   7.289  16.999   6.402  0.0827  0.0213 -0.0340
 1161ERGO    R415907   7.444  16.958   6.647  0.1436 -0.1278 -0.1017
 1161ERGO    R515908   7.283  16.831   6.573  0.0908 -0.0526 -0.1086
 1161ERGO    C115909   7.140  16.925   6.914  0.2151 -0.1714 -0.0224
 1161ERGO    C215910   7.128  17.134   7.147 -0.1341 -0.1655 -0.0228
 1162ERGO   ROH15911   0.171  16.144   5.911  0.2638  0.1551 -0.1272
 1162ERGO    R115912   0.022  16.176   6.150  0.1839  0.0236 -0.1575
 1162ERGO    R215913   0.047  16.004   6.364  0.1824 -0.0419 -0.2049
 1162ERGO    R315914   0.096  16.234   6.501  0.0658 -0.0690 -0.1178
 1162ERGO    R415915  -0.016  16.050   6.701  0.0818 -0.1667 -0.2065
 1162ERGO    R515916  -0.087  16.251   6.655  0.0239 -0.1802 -0.1586
 1162ERGO    C115917  -0.007  16.292   7.026 -0.0861 -0.2649 -0.1256
 1162ERGO    C215918  -0.001  16.275   7.439 -0.1962  0.1854 -0.3025
 1163ERGO   ROH15919   4.234   7.734  10.002 -0.0198 -0.0938 -0.0148
 1163ERGO    R115920   4.088   7.581   9.814 -0.1037 -0.0236 -0.0073
 1163ERGO    R215921   3.944   7.697   9.608 -0.0372  0.0443 -0.0182
 1163ERGO    R315922   4.094   7.530   9.454 -0.1274 -0.0489 -0.0030
 1163ERGO    R415923   3.973   7.718   9.265  0.0913  0.0791 -0.0059
 1163ERGO    R515924   3.964   7.500   9.255 -0.0848  0.0927 -0.0485
 1163ERGO    C115925   4.130   7.573   8.920  0.0815  0.0120  0.0156
 1163ERGO    C215926   4.358   7.741   8.744  0.0516  0.0721  0.1285
 1164ERGO   ROH15927  14.944  13.350   9.496  0.1617 -0.2490  0.0852
 1164ERGO    R115928  14.896  13.184   9.272 -0.2111 -0.2504  0.1596
 1164ERGO    R215929  14.658  13.190   9.131 -0.1685  0.3124  0.0842
 1164ERGO    R315930  14.822  13.232   8.918  0.0276 -0.2347  0.1105
 1164ERGO    R415931  14.563  13.166   8.799 -0.0659  0.1925  0.0628
 1164ERGO    R515932  14.754  13.070   8.756 -0.2386 -0.2543  0.2385
 1164ERGO    C115933  14.661  13.192   8.407  0.1780 -0.3909  0.0749
 1164ERGO    C215934  14.383  13.367   8.277 -0.1986 -0.2764 -0.2059
 1165ERGO   ROH15935   8.381  15.266   9.131  0.0788 -0.0350 -0.0198
 1165ERGO    R115936   8.364  15.137   8.880 -0.0329 -0.0050 -0.0275
 1165ERGO    R215937   8.124  15.103   8.746 -0.0553  0.2620 -0.0560
 1165ERGO    R315938   8.257  15.226   8.543  0.1022  0.1270 -0.0372
 1165ERGO    R415939   8.034  15.088   8.413 -0.0420  0.3707 -0.0650
 1165ERGO    R515940   8.245  15.071   8.361 -0.0499  0.1421 -0.0441
 1165ERGO    C115941   8.106  15.195   8.028  0.1135  0.3074 -0.0527
 1165ERGO    C215942   7.971  15.413   7.773 -0.2743 -0.3735 -0.6077
 1166ERGO   ROH15943   3.054   0.405   6.341  0.2445 -0.1081 -0.1093
 1166ERGO    R115944   3.237   0.373   6.555  0.1252 -0.0822 -0.0018
 1166ERGO    R215945   3.440   0.554   6.605  0.2021 -0.1629 -0.0151
 1166ERGO    R315946   3.329   0.558   6.854  0.0834  0.0475 -0.0692
 1166ERGO    R415947   3.589   0.690   6.886  0.0532  0.0957 -0.0574
 1166ERGO    R515948   3.514   0.521   7.002  0.0134  0.1924  0.0548
 1166ERGO    C115949   3.573   0.773   7.282 -0.1450  0.4438 -0.1328
 1166ERGO    C215950   3.762   0.954   7.565  0.1449  0.1287  0.0705
 1167ERGO   ROH15951   9.651   4.853   6.625 -0.1448  0.0819 -0.0441
 1167ERGO    R115952   9.490   4.808   6.854 -0.0273 -0.0850  0.0077
 1167ERGO    R215953   9.579   4.662   7.071  0.1901 -0.0042 -0.0225
 1167ERGO    R315954   9.508   4.885   7.209  0.0112 -0.0758  0.0036
 1167ERGO    R415955   9.452   4.664   7.393  0.1305 -0.1453 -0.0446
 1167ERGO    R515956   9.313   4.820   7.332  0.0337 -0.2307 -0.0421
 1167ERGO    C115957   9.312   4.875   7.710 -0.0720 -0.2945 -0.0330
 1167ERGO    C215958   9.124   4.975   7.999  0.1043 -0.0735  0.2851
 1168ERGO   ROH15959   7.103  10.359   5.811  0.2344 -0.0597 -0.0462
 1168ERGO    R115960   7.219  10.271   6.054  0.1478 -0.0246  0.0090
 1168ERGO    R215961   7.492  10.266   6.095  0.1379 -0.0836  0.0836
 1168ERGO    R315962   7.430  10.415   6.314  0.1153 -0.0078  0.0253
 1168ERGO    R415963   7.719  10.373   6.333  0.0708 -0.2308  0.2149
 1168ERGO    R515964   7.571  10.329   6.487 -0.0612 -0.0964  0.1265
 1168ERGO    C115965   7.792  10.575   6.676  0.0105 -0.2454  0.2366
 1168ERGO    C215966   7.906  10.777   6.898  0.1360  0.2915 -0.1948
 1169ERGO   ROH15967   0.867  18.306   7.831 -0.0774  0.2286  0.0075
 1169ERGO    R115968   1.108  18.164   7.879 -0.1030  0.2206  0.1121
 1169ERGO    R215969   1.220  17.995   7.693 -0.1283  0.0704  0.2332
 1169ERGO    R315970   1.440  18.150   7.732 -0.1014  0.0595  0.1295
 1169ERGO    R415971   1.546  17.893   7.636 -0.1447 -0.0288  0.3107
 1169ERGO    R515972   1.605  17.998   7.818 -0.1303  0.0889  0.2399
 1169ERGO    C115973   1.942  17.980   7.639 -0.1290 -0.0968  0.2585
 1169ERGO    C215974   2.176  18.027   7.349 -0.1244  0.1641  0.1403
 1170ERGO   ROH15975   6.506  14.483   9.327  0.0605  0.1229  0.1167
 1170ERGO    R115976   6.572  14.647   9.106  0.2837  0.0563  0.1305
 1170ERGO    R215977   6.770  14.583   8.926  0.0300 -0.3333 -0.0238
 1170ERGO    R315978   6.571  14.616   8.744 -0.0288  0.1702  0.1182
 1170ERGO    R415979   6.819  14.626   8.586 -0.1058 -0.4112 -0.0540
 1170ERGO    R515980   6.660  14.775   8.588  0.2484 -0.0194  0.0779
 1170ERGO    C115981   6.661  14.682   8.218 -0.2401  0.0161  0.0616
 1170ERGO    C215982   6.781  14.518   7.874 -0.2185 -0.0423 -0.0599
 1171ERGO   ROH15983  14.228   4.649   6.709  0.0861 -0.0819 -0.1156
 1171ERGO    R115984  14.277   4.404   6.841  0.0254 -0.0505 -0.0344
 1171ERGO    R215985  14.506   4.255   6.798 -0.0009 -0.1087  0.0321
 1171ERGO    R315986  14.528   4.271   7.069 -0.0214 -0.0299  0.0299
 1171ERGO    R415987  14.541   3.984   7.010 -0.0867 -0.0521  0.1204
 1171ERGO    R515988  14.405   4.082   7.150 -0.0758  0.0250  0.0782
 1171ERGO    C115989  14.582   3.842   7.387 -0.1559  0.0550  0.1697
 1171ERGO    C215990  14.560   3.575   7.655 -0.1209  0.1191  0.1412
 1172ERGO   ROH15991  15.023  11.297   5.515 -0.1754  0.0503  0.0656
 1172ERGO    R115992  15.011  11.264   5.796 -0.2414 -0.0315  0.0519
 1172ERGO    R215993  14.964  11.474   5.969 -0.1703 -0.0664  0.1042
 1172ERGO    R315994  14.763  11.314   6.058 -0.2633  0.0031  0.0268
 1172ERGO    R415995  14.755  11.549   6.234 -0.1057 -0.0814  0.1615
 1172ERGO    R515996  14.768  11.340   6.296 -0.2274 -0.1301  0.0454
 1172ERGO    C115997  14.445  11.442   6.472 -0.1552 -0.0247  0.1223
 1172ERGO    C215998  14.098  11.570   6.581 -0.0673  0.0986  0.0029
 1173ERGO   ROH15999   9.672   7.924   6.571  0.2348 -0.2380  0.1295
 1173ERGO    R116000   9.497   7.967   6.790  0.2785  0.0090  0.1177
 1173ERGO    R216001   9.320   7.775   6.878 -0.0899  0.3007  0.0240
 1173ERGO    R316002   9.442   7.818   7.117 -0.0439 -0.0057  0.0617
 1173ERGO    R416003   9.159   7.780   7.184 -0.0584  0.0141  0.0483
 1173ERGO    R516004   9.285   7.949   7.242  0.0095 -0.0859  0.2237
 1173ERGO    C116005   9.180   7.823   7.587  0.0032 -0.4404  0.0978
 1173ERGO    C216006   9.112   7.726   7.826 -0.2935 -0.1630  0.0141
 1174ERGO   ROH16007   1.927   7.837   5.900 -0.0302  0.0072 -0.0716
 1174ERGO    R116008   1.932   7.672   6.129 -0.0585 -0.1047 -0.1507
 1174ERGO    R216009   2.163   7.553   6.222 -0.0309  0.0150 -0.0643
 1174ERGO    R316010   2.094   7.676   6.455 -0.2677 -0.1491 -0.0436
 1174ERGO    R416011   2.267   7.454   6.537  0.0511  0.0819 -0.0699
 1174ERGO    R516012   2.067   7.497   6.611 -0.0342 -0.2377 -0.0996
 1174ERGO    C116013   2.263   7.512   6.938 -0.1234 -0.0332 -0.0538
 1174ERGO    C216014   2.300   7.537   7.279  0.2227  0.1053  0.4586
 1175ERGO   ROH16015   8.304  14.479   5.804  0.1511 -0.0584  0.0509
 1175ERGO    R116016   8.266  14.596   6.059  0.0491 -0.0008  0.0086
 1175ERGO    R216017   8.264  14.447   6.293 -0.1406  0.0420  0.0293
 1175ERGO    R316018   8.456  14.624   6.368 -0.1183 -0.0173  0.1164
 1175ERGO    R416019   8.324  14.549   6.618 -0.2851  0.0407  0.0578
 1175ERGO    R516020   8.355  14.751   6.544 -0.1762  0.0300  0.0558
 1175ERGO    C116021   8.539  14.773   6.878 -0.3482 -0.0157  0.1561
 1175ERGO    C216022   8.534  14.713   7.196 -0.3039  0.1523  0.0114
 1176ERGO   ROH16023  17.230   1.416  10.110  0.0271 -0.1079 -0.0783
 1176ERGO    R116024  17.102   1.262   9.910 -0.0103 -0.1328 -0.0349
 1176ERGO    R216025  16.949   1.376   9.710 -0.0778 -0.1613  0.0030
 1176ERGO    R316026  17.116   1.236   9.547 -0.1085 -0.1510 -0.0381
 1176ERGO    R416027  16.903   1.335   9.370 -0.0507  0.0143 -0.0234
 1176ERGO    R516028  16.969   1.128   9.392 -0.1323 -0.0239 -0.1085
 1176ERGO    C116029  17.033   1.179   9.019 -0.0636  0.1261 -0.0774
 1176ERGO    C216030  17.093   1.102   8.656  0.2490 -0.2132 -0.1169
 1177ERGO   ROH16031  13.511   8.847   5.893 -0.2452  0.2221  0.0377
 1177ERGO    R116032  13.593   8.807   6.161 -0.0579  0.1589 -0.0263
 1177ERGO    R216033  13.548   8.993   6.359  0.0364  0.0939  0.0629
 1177ERGO    R316034  13.431   8.783   6.486  0.1608  0.0322  0.0744
 1177ERGO    R416035  13.502   8.970   6.701  0.0767  0.0667  0.0656
 1177ERGO    R516036  13.557   8.759   6.688  0.1883  0.0989  0.0624
 1177ERGO    C116037  13.366   8.759   7.019  0.2170 -0.0072  0.0779
 1177ERGO    C216038  13.447   8.935   7.320 -0.0143  0.2147 -0.3931
 1178ERGO   ROH16039   8.227  16.559   9.323  0.0283  0.0974  0.0005
 1178ERGO    R116040   8.320  16.469   9.072 -0.1096 -0.0662  0.0089
 1178ERGO    R216041   8.209  16.552   8.833  0.0436  0.1238  0.0191
 1178ERGO    R316042   8.465  16.620   8.774  0.1749 -0.3157  0.0079
 1178ERGO    R416043   8.333  16.597   8.513 -0.0797  0.4553  0.0115
 1178ERGO    R516044   8.516  16.496   8.575 -0.2298 -0.0792 -0.2759
 1178ERGO    C116045   8.647  16.688   8.273 -0.0282  0.2356 -0.0035
 1178ERGO    C216046   8.638  16.822   7.977 -0.2688 -0.0978  0.2001
 1179ERGO   ROH16047   9.765   9.212   6.414  0.1575  0.1675  0.0595
 1179ERGO    R116048   9.626   9.160   6.655  0.0684  0.1990  0.0163
 1179ERGO    R216049   9.648   8.920   6.791 -0.1651  0.1251 -0.0656
 1179ERGO    R316050   9.715   9.081   6.999 -0.0580 -0.0062  0.0024
 1179ERGO    R416051   9.640   8.827   7.124 -0.1092 -0.0408 -0.1099
 1179ERGO    R516052   9.560   9.023   7.172 -0.0299 -0.0411  0.0127
 1179ERGO    C116053   9.699   8.924   7.513  0.0239 -0.2608 -0.0718
 1179ERGO    C216054   9.646   8.919   7.807  0.2806 -0.2951 -0.3696
 1180ERGO   ROH16055   7.735   8.075   6.367  0.1179  0.1515 -0.0164
 1180ERGO    R116056   7.920   8.180   6.555  0.2623 -0.0699 -0.0295
 1180ERGO    R216057   7.845   8.354   6.756  0.5356  0.2876 -0.2210
 1180ERGO    R316058   7.965   8.170   6.915  0.0647  0.1620  0.0032
 1180ERGO    R416059   7.997   8.423   7.058  0.1709  0.1453  0.0005
 1180ERGO    R516060   8.155   8.283   7.005  0.0779 -0.0654  0.2693
 1180ERGO    C116061   8.198   8.290   7.384 -0.4834 -0.0554  0.3401
 1180ERGO    C216062   8.417   8.290   7.618 -0.2265  0.3211 -0.1292
 1181ERGO   ROH16063   7.053  14.245   5.908  0.0258 -0.1085 -0.0483
 1181ERGO    R116064   7.222  14.354   6.107  0.0695 -0.0812 -0.0994
 1181ERGO    R216065   7.199  14.615   6.195  0.1041 -0.0585 -0.1452
 1181ERGO    R316066   7.182  14.496   6.439  0.1363 -0.0131 -0.1214
 1181ERGO    R416067   7.296  14.761   6.493  0.1549 -0.0164 -0.1827
 1181ERGO    R516068   7.379  14.569   6.555  0.1534 -0.0052 -0.1621
 1181ERGO    C116069   7.337  14.734   6.896  0.2147  0.0508 -0.1822
 1181ERGO    C216070   7.242  14.861   7.124 -0.1618  0.2094  0.0745
 1182ERGO   ROH16071  15.614  17.916   6.585 -0.0523  0.0588 -0.1008
 1182ERGO    R116072  15.612  17.728   6.796  0.2965 -0.1286 -0.2576
 1182ERGO    R216073  15.842  17.652   6.929  0.4087  0.4443 -0.1037
 1182ERGO    R316074  15.700  17.725   7.149 -0.0395 -0.1461 -0.1704
 1182ERGO    R416075  15.909  17.547   7.251  0.5799  0.5671 -0.0977
 1182ERGO    R516076  15.694  17.528   7.285  0.5943 -0.2423 -0.2517
 1182ERGO    C116077  15.815  17.554   7.646  0.2588  0.0842 -0.1567
 1182ERGO    C216078  15.923  17.305   7.885 -0.4946  0.0803 -0.1771
 1183ERGO   ROH16079   1.076  10.590   6.318 -0.0679  0.0197 -0.0379
 1183ERGO    R116080   1.192  10.636   6.572  0.0257  0.2850 -0.1240
 1183ERGO    R216081   1.224  10.889   6.677 -0.5182  0.3752 -0.1309
 1183ERGO    R316082   1.087  10.784   6.887 -0.1061  0.0036 -0.0342
 1183ERGO    R416083   1.209  11.028   6.993 -0.3552  0.1019  0.0003
 1183ERGO    R516084   1.226  10.828   7.077  0.0539  0.0639 -0.1690
 1183ERGO    C116085   1.071  11.010   7.375  0.1266 -0.4062  0.1676
 1183ERGO    C216086   0.737  11.110   7.570 -0.0533  0.0589  0.2743
 1184ERGO   ROH16087  15.630   6.032   9.424  0.0940  0.0031 -0.0206
 1184ERGO    R116088  15.487   5.958   9.192  0.0691 -0.0423  0.0091
 1184ERGO    R216089  15.337   6.139   9.046  0.0781 -0.0648 -0.0260
 1184ERGO    R316090  15.490   6.050   8.839  0.0523 -0.1346 -0.0158
 1184ERGO    R416091  15.300   6.237   8.717  0.2720  0.1102  0.0018
 1184ERGO    R516092  15.337   6.030   8.656  0.0832  0.0941 -0.0708
 1184ERGO    C116093  15.421   6.210   8.331  0.3607  0.1467  0.0276
 1184ERGO    C216094  15.540   6.279   8.008  0.0118  0.1885  0.2256
 1185ERGO   ROH16095   6.079   4.668   6.909  0.2594 -0.0775 -0.1070
 1185ERGO    R116096   6.222   4.804   7.111  0.1163  0.1142 -0.1313
 1185ERGO    R216097   6.130   5.039   7.226 -0.1622  0.0153 -0.1354
 1185ERGO    R316098   6.163   4.900   7.458  0.0335  0.0645 -0.1324
 1185ERGO    R416099   6.044   5.155   7.540 -0.1390 -0.0272 -0.1138
 1185ERGO    R516100   6.227   5.066   7.618 -0.0410  0.1283 -0.1720
 1185ERGO    C116101   6.024   5.092   7.940  0.0583 -0.0057 -0.0985
 1185ERGO    C216102   5.926   5.174   8.308  0.2618 -0.2344  0.1065
 1186ERGO   ROH16103   3.201  14.963   6.205 -0.0993  0.3458  0.1035
 1186ERGO    R116104   3.218  14.890   6.478 -0.1132  0.1736  0.0583
 1186ERGO    R216105   3.286  14.635   6.560 -0.0028  0.1568 -0.1017
 1186ERGO    R316106   3.477  14.766   6.702 -0.0936  0.1533  0.0277
 1186ERGO    R416107   3.420  14.527   6.860  0.0495 -0.0453 -0.1951
 1186ERGO    R516108   3.415  14.732   6.931 -0.0892 -0.1047 -0.0012
 1186ERGO    C116109   3.676  14.587   7.168 -0.0054 -0.1665 -0.1281
 1186ERGO    C216110   3.640  14.358   7.496 -0.4411  0.3383  0.2442
 1187ERGO   ROH16111   3.888   7.275   6.146  0.2303  0.3010 -0.0395
 1187ERGO    R116112   4.051   7.423   6.323  0.1171  0.2091  0.1468
 1187ERGO    R216113   3.972   7.489   6.580 -0.0208  0.0135  0.1610
 1187ERGO    R316114   4.206   7.370   6.648 -0.0323  0.0069  0.1853
 1187ERGO    R416115   4.149   7.552   6.869  0.0214  0.0971  0.1167
 1187ERGO    R516116   4.333   7.543   6.754  0.0051  0.0247  0.1045
 1187ERGO    C116117   4.472   7.477   7.103  0.0352  0.1394  0.1137
 1187ERGO    C216118   4.626   7.547   7.364 -0.1366 -0.0684 -0.2886
 1188ERGO   ROH16119   8.252  13.554   6.163 -0.0503 -0.1744 -0.0620
 1188ERGO    R116120   8.033  13.487   6.330 -0.0776 -0.1393 -0.0825
 1188ERGO    R216121   8.040  13.273   6.505 -0.0747 -0.0539  0.0267
 1188ERGO    R316122   7.972  13.463   6.688 -0.1586  0.0243 -0.0855
 1188ERGO    R416123   7.901  13.209   6.815  0.0917  0.0632  0.1271
 1188ERGO    R516124   7.770  13.380   6.787 -0.0551 -0.0635  0.0500
 1188ERGO    C116125   7.756  13.349   7.166  0.1099  0.2047  0.0804
 1188ERGO    C216126   7.901  13.373   7.506 -0.1084  0.2276  0.0252
 1189ERGO   ROH16127  10.206   0.352  10.043 -0.0998  0.1116  0.2905
 1189ERGO    R116128  10.212   0.558   9.849 -0.0975  0.0104  0.1832
 1189ERGO    R216129  10.233   0.508   9.578 -0.0471 -0.1295  0.2174
 1189ERGO    R316130  10.008   0.661   9.565 -0.0656 -0.1634  0.0946
 1189ERGO    R416131  10.081   0.611   9.285 -0.0502 -0.3767  0.1277
 1189ERGO    R516132  10.046   0.806   9.378 -0.0745 -0.3030 -0.0215
 1189ERGO    C116133   9.783   0.816   9.103 -0.0695 -0.5525 -0.0397
 1189ERGO    C216134   9.509   0.843   8.872 -0.0864 -0.0722  0.1605
 1190ERGO   ROH16135   7.434  17.927   6.055  0.0522  0.0796  0.0513
 1190ERGO    R116136   7.418  17.923   6.338 -0.0607  0.2593  0.0490
 1190ERGO    R216137   7.641  17.926   6.500 -0.1085 -0.0017  0.1271
 1190ERGO    R316138   7.517  18.141   6.612  0.1796  0.2604 -0.0361
 1190ERGO    R416139   7.722  18.063   6.807 -0.0813 -0.0399  0.1365
 1190ERGO    R516140   7.509  18.090   6.846 -0.0749  0.3466 -0.0204
 1190ERGO    C116141   7.653  18.345   7.090  0.2050  0.1840 -0.0111
 1190ERGO    C216142   7.692  18.613   7.230  0.1557 -0.0323  0.0927
 1191ERGO   ROH16143   9.061  10.343   6.064  0.1024  0.2067 -0.0051
 1191ERGO    R116144   9.015  10.436   6.327  0.0353  0.0681  0.0326
 1191ERGO    R216145   8.861  10.296   6.509  0.0863 -0.0874 -0.0421
 1191ERGO    R316146   9.083  10.317   6.665  0.0634 -0.0495 -0.0141
 1191ERGO    R416147   8.859  10.311   6.855  0.0485 -0.2034 -0.0366
 1191ERGO    R516148   9.017  10.462   6.844 -0.0114 -0.1359  0.0286
 1191ERGO    C116149   9.067  10.339   7.202  0.0052 -0.2351 -0.0070
 1191ERGO    C216150   9.005  10.453   7.571  0.2190 -0.2754 -0.1566
 1192ERGO   ROH16151  18.652   7.672   7.254  0.1761  0.4460 -0.0531
 1192ERGO    R116152  18.848   7.481   7.327 -0.0940  0.1413 -0.1039
 1192ERGO    R216153  19.059   7.542   7.495  0.1751 -0.1143 -0.3442
 1192ERGO    R316154  18.965   7.329   7.636 -0.0801  0.1468 -0.1055
 1192ERGO    R416155  19.236   7.373   7.739 -0.0280 -0.0444 -0.1441
 1192ERGO    R516156  19.155   7.186   7.662 -0.2403 -0.0465  0.0618
 1192ERGO    C116157  19.251   7.075   8.014 -0.3859  0.2414  0.1965
 1192ERGO    C216158  19.441   6.957   8.306 -0.0122  0.1885  0.1728
 1193ERGO   ROH16159  17.216   6.282   9.229  0.1575  0.1457 -0.0263
 1193ERGO    R116160  17.305   6.368   8.975  0.1794  0.0923 -0.0368
 1193ERGO    R216161  17.566   6.338   8.891  0.1653 -0.0095 -0.0442
 1193ERGO    R316162  17.451   6.213   8.679  0.1124  0.0151 -0.0300
 1193ERGO    R416163  17.595   6.441   8.562  0.1664 -0.0273 -0.0497
 1193ERGO    R516164  17.384   6.391   8.534  0.1494  0.0299 -0.0299
 1193ERGO    C116165  17.503   6.383   8.172  0.1172 -0.0146 -0.0396
 1193ERGO    C216166  17.661   6.177   7.955  0.1847  0.0648 -0.0410
 1194ERGO   ROH16167  17.907  10.603   9.363 -0.4697  0.0688  0.0021
 1194ERGO    R116168  17.748  10.742   9.174 -0.2158  0.1935 -0.1271
 1194ERGO    R216169  17.847  10.950   9.022  0.1253 -0.0025 -0.2016
 1194ERGO    R316170  17.755  10.799   8.815  0.0044  0.0067 -0.1527
 1194ERGO    R416171  17.786  11.069   8.703  0.2601 -0.0787 -0.2551
 1194ERGO    R516172  17.606  10.946   8.697  0.1529  0.0904 -0.2241
 1194ERGO    C116173  17.664  10.998   8.323  0.2249 -0.1145 -0.2405
 1194ERGO    C216174  17.700  10.976   7.947 -0.0287  0.0075 -0.1410
 1195ERGO   ROH16175   5.028   5.212   6.726  0.1356 -0.0094  0.1108
 1195ERGO    R116176   5.084   5.489   6.712 -0.1700  0.0437 -0.2442
 1195ERGO    R216177   4.908   5.671   6.601 -0.6893 -0.1982  0.1240
 1195ERGO    R316178   4.936   5.795   6.840 -0.1136 -0.0232 -0.0185
 1195ERGO    R416179   4.784   5.985   6.675 -0.4860 -0.1345  0.1951
 1195ERGO    R516180   4.968   6.026   6.784 -0.2206 -0.0678 -0.2622
 1195ERGO    C116181   4.738   6.284   6.944  0.1726  0.0667  0.1027
 1195ERGO    C216182   4.602   6.502   7.113 -0.1575 -0.2197 -0.1394
 1196ERGO   ROH16183   6.128   8.504   6.434 -0.0746  0.1912 -0.1090
 1196ERGO    R116184   6.117   8.697   6.641  0.0143  0.1053 -0.0229
 1196ERGO    R216185   5.923   8.692   6.840  0.0470  0.0718  0.0100
 1196ERGO    R316186   6.139   8.696   7.004  0.0789 -0.0591 -0.0271
 1196ERGO    R416187   5.910   8.719   7.184  0.1318  0.2308  0.0020
 1196ERGO    R516188   6.081   8.853   7.176  0.2544  0.0679 -0.0825
 1196ERGO    C116189   6.104   8.739   7.539  0.2111  0.2005 -0.0375
 1196ERGO    C216190   6.258   8.529   7.812  0.1279  0.1523  0.1150
 1197ERGO   ROH16191  13.778   0.544   6.696  0.0166  0.1082 -0.0755
 1197ERGO    R116192  13.631   0.653   6.912 -0.0346  0.0245 -0.0672
 1197ERGO    R216193  13.626   0.535   7.163 -0.0672 -0.0548 -0.1035
 1197ERGO    R316194  13.707   0.782   7.244 -0.1080 -0.0713 -0.0127
 1197ERGO    R416195  13.646   0.640   7.492 -0.2065 -0.1305 -0.0707
 1197ERGO    R516196  13.567   0.833   7.430 -0.1868 -0.1191 -0.0588
 1197ERGO    C116197  13.733   0.932   7.759 -0.3260 -0.1900  0.0336
 1197ERGO    C216198  13.700   1.088   8.000 -0.1269  0.1314 -0.2057
 1198ERGO   ROH16199   2.701  17.493   6.063  0.3888 -0.1524  0.1082
 1198ERGO    R116200   2.755  17.451   6.337  0.1073 -0.1595  0.1656
 1198ERGO    R216201   2.853  17.649   6.502  0.1036 -0.2127  0.2271
 1198ERGO    R316202   2.637  17.585   6.654 -0.0841 -0.0340  0.0448
 1198ERGO    R416203   2.821  17.718   6.839 -0.1282 -0.1628  0.1971
 1198ERGO    R516204   2.730  17.522   6.866 -0.3096 -0.0954  0.1330
 1198ERGO    C116205   2.601  17.697   7.179 -0.4393  0.0340  0.0085
 1198ERGO    C216206   2.595  17.823   7.553  0.3717 -0.3327 -0.2327
 1199ERGO   ROH16207  11.242   8.130   6.288  0.0625  0.2401 -0.0232
 1199ERGO    R116208  11.366   8.120   6.543  0.0897  0.2434 -0.0338
 1199ERGO    R216209  11.450   8.346   6.677 -0.0623  0.2743  0.0301
 1199ERGO    R316210  11.294   8.246   6.877  0.0078  0.0891  0.0100
 1199ERGO    R416211  11.497   8.407   7.014 -0.1519  0.2652  0.0445
 1199ERGO    R516212  11.448   8.198   7.054  0.0424  0.2035  0.0139
 1199ERGO    C116213  11.379   8.348   7.397 -0.1383  0.0860  0.0341
 1199ERGO    C216214  11.362   8.663   7.481  0.3489  0.0194 -0.3023
 1200ERGO   ROH16215   7.536  15.582   6.076 -0.1049  0.0129  0.1667
 1200ERGO    R116216   7.594  15.540   6.350  0.0857 -0.0948  0.1132
 1200ERGO    R216217   7.849  15.488   6.443  0.2142  0.2104 -0.0440
 1200ERGO    R316218   7.798  15.701   6.604 -0.0240  0.0316  0.1215
 1200ERGO    R416219   8.042  15.582   6.714  0.1055  0.2189  0.0301
 1200ERGO    R516220   7.859  15.625   6.823  0.0556 -0.0683  0.0632
 1200ERGO    C116221   8.107  15.835   7.023 -0.1815  0.0560  0.2285
 1200ERGO    C216222   8.280  16.090   7.235  0.0168  0.1382 -0.3153
 1201ERGO   ROH16223  12.206   9.733   5.704 -0.0421 -0.2550  0.0110
 1201ERGO    R116224  12.350   9.701   5.946  0.0122 -0.2357 -0.0187
 1201ERGO    R216225  12.233   9.735   6.194  0.0807 -0.1704  0.0030
 1201ERGO    R316226  12.331   9.485   6.238  0.0486 -0.1783  0.0269
 1201ERGO    R416227  12.434   9.648   6.461  0.2047 -0.1262 -0.0748
 1201ERGO    R516228  12.551   9.523   6.325  0.1055 -0.1960 -0.1022
 1201ERGO    C116229  12.642   9.362   6.659  0.2467 -0.1079 -0.0976
 1201ERGO    C216230  12.520   9.186   6.970 -0.0327  0.0426 -0.0224
 1202ERGO   ROH16231   8.922   1.158   6.625 -0.1267 -0.2202 -0.0972
 1202ERGO    R116232   9.088   1.061   6.834 -0.0634 -0.3521 -0.2067
 1202ERGO    R216233   9.069   1.154   7.094  0.3552 -0.1465 -0.2401
 1202ERGO    R316234   9.039   0.890   7.151 -0.0183 -0.0684 -0.0433
 1202ERGO    R416235   9.138   1.008   7.400  0.4462 -0.0634 -0.2207
 1202ERGO    R516236   9.223   0.838   7.294  0.0571 -0.2767 -0.2110
 1202ERGO    C116237   9.149   0.675   7.631  0.1485  0.0583 -0.0246
 1202ERGO    C216238   9.031   0.407   7.796  0.0102  0.3056  0.0084
 1203ERGO   ROH16239   2.816  13.595   5.820 -0.2357 -0.1705  0.0750
 1203ERGO    R116240   2.754  13.587   6.096  0.0775 -0.0865  0.1513
 1203ERGO    R216241   2.947  13.614   6.293  0.2534  0.3821 -0.0717
 1203ERGO    R316242   2.783  13.813   6.380  0.0030  0.1671 -0.0391
 1203ERGO    R416243   2.906  13.705   6.624  0.2283  0.3537 -0.0668
 1203ERGO    R516244   2.693  13.729   6.586  0.1792  0.0569 -0.0041
 1203ERGO    C116245   2.729  13.945   6.898 -0.0214  0.1352 -0.0332
 1203ERGO    C216246   2.629  14.084   7.211 -0.0245  0.1874  0.0498
 1204ERGO   ROH16247  12.770   0.927   6.470 -0.1178  0.0318  0.0962
 1204ERGO    R116248  12.838   0.949   6.743 -0.2224 -0.0319  0.1279
 1204ERGO    R216249  12.956   1.176   6.849  0.0338 -0.1771  0.1592
 1204ERGO    R316250  12.746   1.165   7.022 -0.0710  0.1257  0.0584
 1204ERGO    R416251  12.974   1.252   7.186  0.0164 -0.3225  0.1942
 1204ERGO    R516252  12.842   1.083   7.226 -0.3011 -0.1144  0.0771
 1204ERGO    C116253  12.788   1.287   7.544 -0.0922 -0.1229  0.1200
 1204ERGO    C216254  12.911   1.519   7.770  0.0035  0.1125 -0.0215
 1205ERGO   ROH16255   2.080   4.774   6.534 -0.0600 -0.0499 -0.2235
 1205ERGO    R116256   1.987   4.760   6.800 -0.2792  0.1396 -0.2898
 1205ERGO    R216257   2.156   4.725   7.015 -0.5033 -0.2125 -0.1815
 1205ERGO    R316258   2.035   4.950   7.108 -0.1084  0.0423 -0.2497
 1205ERGO    R416259   2.162   4.829   7.345 -0.5856 -0.3379 -0.1381
 1205ERGO    R516260   1.952   4.886   7.324 -0.4673  0.1382 -0.3389
 1205ERGO    C116261   2.051   5.100   7.624 -0.2628 -0.1717 -0.1769
 1205ERGO    C216262   2.099   5.154   8.008 -0.2408 -0.3232  0.0902
 1206ERGO   ROH16263  16.831   0.827   6.900 -0.0951  0.1416 -0.1046
 1206ERGO    R116264  16.823   0.640   7.112 -0.1783  0.0483 -0.1868
 1206ERGO    R216265  16.956   0.680   7.352 -0.0146 -0.1967 -0.2249
 1206ERGO    R316266  16.710   0.638   7.458 -0.0103  0.0083 -0.1334
 1206ERGO    R416267  16.887   0.661   7.690  0.0896 -0.1803 -0.2035
 1206ERGO    R516268  16.749   0.498   7.648 -0.0682 -0.0484 -0.1700
 1206ERGO    C116269  16.615   0.611   7.986  0.1541  0.0216 -0.1052
 1206ERGO    C216270  16.288   0.621   8.265 -0.0361 -0.0561 -0.0759
 1207ERGO   ROH16271  15.977  11.145   5.956  0.0569 -0.2737 -0.0592
 1207ERGO    R116272  15.889  10.999   6.182 -0.0444 -0.1669 -0.0286
 1207ERGO    R216273  15.979  11.053   6.438  0.0750 -0.2433 -0.0522
 1207ERGO    R316274  15.713  11.072   6.492  0.1055  0.0423  0.0088
 1207ERGO    R416275  15.844  11.102   6.753  0.2020  0.1534 -0.0549
 1207ERGO    R516276  15.687  10.960   6.702  0.0602  0.2495  0.1147
 1207ERGO    C116277  15.517  11.150   6.986  0.3046  0.6527  0.0007
 1207ERGO    C216278  15.628  11.407   7.142  0.1109  0.0932 -0.0672
 1208ERGO   ROH16279   4.233   9.929   5.891 -0.2032 -0.4213  0.1434
 1208ERGO    R116280   4.073   9.888   6.121 -0.0779 -0.3125  0.2509
 1208ERGO    R216281   4.139   9.708   6.319  0.0619 -0.1721  0.3305
 1208ERGO    R316282   4.113   9.925   6.481  0.0955 -0.0769  0.2111
 1208ERGO    R416283   4.210   9.711   6.657 -0.0935 -0.0464  0.3634
 1208ERGO    R516284   4.032   9.834   6.688 -0.0486  0.0618  0.2203
 1208ERGO    C116285   4.226   9.916   7.006 -0.1523  0.1162  0.2705
 1208ERGO    C216286   4.244   9.845   7.366 -0.2072 -0.1094  0.3149
 1209ERGO   ROH16287   8.602  17.227   5.984  0.0598  0.2965 -0.0350
 1209ERGO    R116288   8.619  17.322   6.250  0.0537  0.1183  0.0311
 1209ERGO    R216289   8.397  17.345   6.414  0.0183  0.1809 -0.0184
 1209ERGO    R316290   8.546  17.191   6.582 -0.1423 -0.0404 -0.0723
 1209ERGO    R416291   8.368  17.343   6.758  0.1515  0.2359 -0.0070
 1209ERGO    R516292   8.585  17.331   6.772  0.1444 -0.0901 -0.0913
 1209ERGO    C116293   8.490  17.197   7.116  0.0783  0.0604 -0.0510
 1209ERGO    C216294   8.514  17.077   7.536 -0.1134 -0.0877 -0.1193
 1210ERGO   ROH16295   6.219   6.917   6.462 -0.0328  0.0582 -0.1299
 1210ERGO    R116296   6.277   6.753   6.685 -0.1038  0.1972 -0.0083
 1210ERGO    R216297   6.128   6.760   6.918 -0.3471  0.1506 -0.1626
 1210ERGO    R316298   6.105   6.493   6.874 -0.0535  0.1079 -0.0826
 1210ERGO    R416299   6.052   6.525   7.160 -0.1909  0.1554 -0.1072
 1210ERGO    R516300   6.199   6.392   7.069 -0.0153  0.2727 -0.0107
 1210ERGO    C116301   5.987   6.137   7.259  0.1757  0.1182  0.0001
 1210ERGO    C216302   5.731   5.896   7.455 -0.0989  0.1118  0.2554
 1211ERGO   ROH16303  15.869  13.151   6.296  0.0611 -0.0268 -0.0531
 1211ERGO    R116304  15.835  13.257   6.556 -0.0933 -0.1179 -0.0336
 1211ERGO    R216305  15.819  13.097   6.781  0.0412 -0.1894 -0.0670
 1211ERGO    R316306  16.022  13.255   6.868 -0.1361  0.0100 -0.0081
 1211ERGO    R416307  15.960  13.084   7.096  0.0805 -0.1608 -0.0843
 1211ERGO    R516308  15.969  13.301   7.097 -0.1723 -0.1518  0.0129
 1211ERGO    C116309  16.232  13.224   7.362 -0.0628  0.0430 -0.0390
 1211ERGO    C216310  16.432  13.318   7.662 -0.0372 -0.1152  0.2791
 1212ERGO   ROH16311  17.738  11.077   6.234  0.2308 -0.4008  0.0512
 1212ERGO    R116312  17.688  11.123   6.509  0.1342 -0.2285  0.0063
 1212ERGO    R216313  17.440  11.199   6.605  0.1241 -0.0750 -0.1381
 1212ERGO    R316314  17.471  10.983   6.766 -0.0303  0.0006 -0.0036
 1212ERGO    R416315  17.235  11.121   6.872 -0.1472  0.0438 -0.3070
 1212ERGO    R516316  17.412  11.062   6.984 -0.2565  0.1016 -0.0976
 1212ERGO    C116317  17.145  10.871   7.178 -0.4499  0.1837 -0.2791
 1212ERGO    C216318  16.943  10.599   7.282  0.0391 -0.2826  0.3058
 1213ERGO   ROH16319  10.852   9.896   6.714 -0.0918 -0.0088  0.0539
 1213ERGO    R116320  11.057   9.817   6.892 -0.0898 -0.0317  0.0422
 1213ERGO    R216321  11.240   9.995   6.995 -0.0314 -0.0585 -0.0061
 1213ERGO    R316322  11.155   9.895   7.233 -0.0323 -0.0007  0.0175
 1213ERGO    R416323  11.416  10.016   7.292  0.0854 -0.2269 -0.0623
 1213ERGO    R516324  11.355   9.812   7.337 -0.0698 -0.1749 -0.0542
 1213ERGO    C116325  11.439   9.934   7.688  0.1525 -0.2707 -0.0727
 1213ERGO    C216326  11.587   9.952   7.978 -0.0284 -0.2344 -0.0182
 1214ERGO   ROH16327   2.985  12.433   9.338  0.1049  0.0919 -0.0381
 1214ERGO    R116328   3.002  12.522   9.070  0.1014 -0.0484 -0.0856
 1214ERGO    R216329   3.167  12.402   8.883 -0.0211 -0.2464 -0.0662
 1214ERGO    R316330   2.937  12.383   8.740 -0.0667 -0.1649 -0.0057
 1214ERGO    R416331   3.151  12.377   8.539 -0.1271  0.0731 -0.0880
 1214ERGO    R516332   2.979  12.512   8.542 -0.1609  0.0337  0.0980
 1214ERGO    C116333   2.926  12.344   8.204 -0.2317  0.3355 -0.0439
 1214ERGO    C216334   2.962  12.353   7.919 -0.1183  0.1479 -0.0088
 1215ERGO   ROH16335   1.310   6.913   5.812  0.0164  0.1795  0.1183
 1215ERGO    R116336   1.488   6.848   6.023  0.0576 -0.0973  0.0012
 1215ERGO    R216337   1.417   6.869   6.289  0.2556 -0.0118  0.0440
 1215ERGO    R316338   1.497   6.609   6.297 -0.1161 -0.1340 -0.0220
 1215ERGO    R416339   1.445   6.680   6.577  0.5735  0.0823  0.0790
 1215ERGO    R516340   1.629   6.593   6.497  0.2901 -0.2341 -0.2805
 1215ERGO    C116341   1.536   6.327   6.753  0.4096  0.0224  0.0376
 1215ERGO    C216342   1.810   6.103   7.067 -0.1423  0.2620  0.0086
 1216ERGO   ROH16343  11.525  16.672   6.441 -0.0883 -0.0481 -0.0404
 1216ERGO    R116344  11.526  16.650   6.723  0.0367  0.0761 -0.0298
 1216ERGO    R216345  11.447  16.419   6.854  0.0212  0.1595  0.1083
 1216ERGO    R316346  11.691  16.441   6.971  0.0841  0.1301 -0.0153
 1216ERGO    R416347  11.506  16.398   7.194  0.1818  0.2199  0.0853
 1216ERGO    R516348  11.650  16.561   7.174  0.2097  0.1841 -0.0198
 1216ERGO    C116349  11.770  16.406   7.501  0.3344  0.2275 -0.0442
 1216ERGO    C216350  12.017  16.494   7.849  0.0527 -0.3413 -0.2725
 1217ERGO   ROH16351   0.970   8.252   5.952  0.2088  0.0396 -0.1414
 1217ERGO    R116352   1.141   8.158   6.157  0.3198  0.2635 -0.1279
 1217ERGO    R216353   1.208   8.311   6.377 -0.0728  0.2824 -0.0138
 1217ERGO    R316354   1.115   8.096   6.514  0.2961  0.0119 -0.1715
 1217ERGO    R416355   1.192   8.288   6.721 -0.2263  0.0853 -0.0320
 1217ERGO    R516356   1.258   8.081   6.706  0.2215  0.2224 -0.0974
 1217ERGO    C116357   1.096   8.073   7.051  0.0306 -0.2834 -0.1908
 1217ERGO    C216358   1.146   8.112   7.259 -0.0084 -0.2402  0.0478
 1218ERGO   ROH16359   6.047  15.163   6.124 -0.1301  0.3297 -0.0313
 1218ERGO    R116360   5.886  15.224   6.348 -0.1292  0.2335 -0.0044
 1218ERGO    R216361   5.806  15.033   6.531 -0.1090  0.1591 -0.0741
 1218ERGO    R316362   5.918  15.205   6.710 -0.1188  0.1019 -0.0120
 1218ERGO    R416363   5.721  15.052   6.865 -0.2130  0.1367 -0.0986
 1218ERGO    R516364   5.735  15.270   6.851 -0.1464  0.1343 -0.0626
 1218ERGO    C116365   5.775  15.225   7.228 -0.2827  0.0699 -0.0545
 1218ERGO    C216366   5.698  14.897   7.460 -0.1177  0.0471  0.0982
 1219ERGO   ROH16367  17.102  13.222   5.901  0.0971 -0.1550  0.0570
 1219ERGO    R116368  17.096  13.315   6.168  0.0723 -0.0483  0.0200
 1219ERGO    R216369  16.930  13.205   6.360  0.0003  0.0768  0.0316
 1219ERGO    R316370  17.162  13.176   6.498 -0.0353  0.0598  0.0875
 1219ERGO    R416371  16.953  13.188   6.704 -0.0986 -0.0810  0.0309
 1219ERGO    R516372  17.132  13.312   6.694 -0.1213 -0.0388  0.1433
 1219ERGO    C116373  17.185  13.150   7.035 -0.1897 -0.1889  0.0831
 1219ERGO    C216374  17.328  13.101   7.364 -0.2807  0.0029  0.3020
 1220ERGO   ROH16375   2.010  15.167   9.640 -0.2140  0.1935 -0.0414
 1220ERGO    R116376   2.014  14.963   9.443 -0.2348  0.0652  0.0867
 1220ERGO    R216377   1.831  14.952   9.236 -0.1477  0.0399 -0.0012
 1220ERGO    R316378   2.055  14.945   9.082 -0.0715 -0.1778  0.1167
 1220ERGO    R416379   1.841  14.848   8.907 -0.0478 -0.0444  0.0295
 1220ERGO    R516380   2.030  14.747   8.949 -0.1549 -0.1842  0.1509
 1220ERGO    C116381   2.057  14.781   8.570  0.0818 -0.2976  0.1581
 1220ERGO    C216382   2.078  14.720   8.254 -0.1713 -0.3456  0.0338
 1221ERGO   ROH16383  15.866   5.952   6.183  0.4888 -0.1169  0.0835
 1221ERGO    R116384  15.966   6.077   6.417  0.1797  0.1874  0.0618
 1221ERGO    R216385  15.838   6.291   6.537 -0.2367  0.0570 -0.1141
 1221ERGO    R316386  15.850   6.132   6.757 -0.0707  0.1903 -0.0244
 1221ERGO    R416387  15.823   6.402   6.864 -0.5530  0.1959 -0.1723
 1221ERGO    R516388  15.977   6.257   6.916 -0.3420  0.4732 -0.0308
 1221ERGO    C116389  15.825   6.317   7.261 -0.5813  0.4020 -0.1222
 1221ERGO    C216390  15.893   6.452   7.596 -0.1672  0.1338 -0.1230
 1222ERGO   ROH16391  17.535   9.688   5.787  0.1224 -0.3059  0.0533
 1222ERGO    R116392  17.348   9.609   5.984  0.1139 -0.3084  0.0442
 1222ERGO    R216393  17.420   9.459   6.205  0.1663 -0.0472  0.2088
 1222ERGO    R316394  17.303   9.663   6.341 -0.0861 -0.0340 -0.0190
 1222ERGO    R416395  17.344   9.453   6.542  0.0852  0.1992  0.1971
 1222ERGO    R516396  17.156   9.554   6.497 -0.0125 -0.0405  0.0468
 1222ERGO    C116397  17.190   9.641   6.867 -0.1992  0.3553 -0.0235
 1222ERGO    C216398  17.255   9.631   7.189 -0.1148  0.0599  0.2239
 1223ERGO   ROH16399  16.267  10.109   6.067  0.0865 -0.0702 -0.0143
 1223ERGO    R116400  16.477  10.031   6.240  0.1237 -0.1056 -0.0738
 1223ERGO    R216401  16.450  10.028   6.514  0.2610  0.1008 -0.0540
 1223ERGO    R316402  16.533   9.770   6.487  0.0617  0.0149  0.0711
 1223ERGO    R416403  16.590   9.838   6.767  0.1210  0.1200  0.0385
 1223ERGO    R516404  16.731   9.758   6.622  0.0597 -0.0674  0.0710
 1223ERGO    C116405  16.749   9.486   6.889 -0.1475  0.0508  0.2098
 1223ERGO    C216406  16.767   9.580   7.229 -0.0729 -0.1578  0.0821
 1224ERGO   ROH16407  14.231   0.804   6.734  0.1808  0.1137  0.0595
 1224ERGO    R116408  14.128   0.794   6.997 -0.0546  0.0096 -0.0345
 1224ERGO    R216409  14.096   0.558   7.135  0.3527 -0.0058  0.0441
 1224ERGO    R316410  14.245   0.684   7.324 -0.1097  0.4358  0.1353
 1224ERGO    R416411  14.109   0.468   7.469  0.5548 -0.1014  0.0124
 1224ERGO    R516412  14.107   0.680   7.520 -0.1703 -0.1002  0.0974
 1224ERGO    C116413  14.256   0.535   7.840  0.2382  0.2574  0.0795
 1224ERGO    C216414  14.341   0.235   7.960  0.2194 -0.3273 -0.1922
 1225ERGO   ROH16415  11.899   1.194   6.799  0.1661 -0.0464 -0.0585
 1225ERGO    R116416  11.761   1.219   7.045  0.1153  0.0535 -0.0970
 1225ERGO    R216417  11.861   1.116   7.282 -0.0759 -0.1164 -0.0898
 1225ERGO    R316418  11.826   1.371   7.369  0.1876 -0.0937 -0.0408
 1225ERGO    R416419  11.887   1.218   7.611 -0.2956 -0.2742 -0.0207
 1225ERGO    R516420  11.715   1.348   7.580 -0.0838 -0.0166 -0.1696
 1225ERGO    C116421  11.870   1.516   7.885 -0.1762 -0.3446  0.0656
 1225ERGO    C216422  11.972   1.597   8.173  0.1225  0.0225 -0.1515
 1226ERGO   ROH16423   1.812  16.850   5.860 -0.0692 -0.0684  0.0406
 1226ERGO    R116424   1.811  16.781   6.135 -0.1111 -0.0117  0.0547
 1226ERGO    R216425   1.947  16.928   6.325  0.0151 -0.0792  0.0186
 1226ERGO    R316426   1.704  16.937   6.446  0.0256  0.1384  0.0276
 1226ERGO    R416427   1.893  16.889   6.664 -0.0012  0.0890  0.0363
 1226ERGO    R516428   1.716  16.771   6.617 -0.0862  0.1957  0.0907
 1226ERGO    C116429   1.633  16.875   6.975 -0.0009  0.3914  0.0551
 1226ERGO    C216430   1.620  17.003   7.265  0.3101 -0.2839  0.0831
 1227ERGO   ROH16431  14.647   6.564   6.554  0.0282 -0.1575  0.0547
 1227ERGO    R116432  14.817   6.527   6.777 -0.0045 -0.0623  0.0954
 1227ERGO    R216433  14.992   6.722   6.864 -0.0314 -0.0194  0.0477
 1227ERGO    R316434  14.866   6.684   7.102 -0.0644  0.0637  0.0444
 1227ERGO    R416435  15.105   6.841   7.168 -0.0686  0.0828  0.0226
 1227ERGO    R516436  15.044   6.652   7.259 -0.0844  0.1133  0.0793
 1227ERGO    C116437  15.052   6.874   7.569 -0.1211  0.2203  0.0049
 1227ERGO    C216438  15.226   7.179   7.668  0.1120 -0.0472 -0.1316
 1228ERGO   ROH16439   3.786   6.266   6.401  0.1389 -0.1757  0.1256
 1228ERGO    R116440   3.900   6.455   6.579  0.2155 -0.1404  0.0402
 1228ERGO    R216441   3.781   6.523   6.818  0.2649 -0.0143  0.0279
 1228ERGO    R316442   4.023   6.454   6.921  0.2570 -0.0442  0.0265
 1228ERGO    R416443   3.891   6.605   7.135  0.2592 -0.0510  0.0393
 1228ERGO    R516444   4.089   6.644   7.051  0.2670 -0.0587  0.0463
 1228ERGO    C116445   4.183   6.588   7.416  0.2485 -0.1005  0.0447
 1228ERGO    C216446   4.262   6.786   7.777 -0.4864  0.1891 -0.1338
 1229ERGO   ROH16447   3.106   5.504   6.477 -0.0157  0.0764  0.1582
 1229ERGO    R116448   3.008   5.564   6.736 -0.1061  0.0726  0.1252
 1229ERGO    R216449   2.925   5.817   6.808 -0.0728  0.0850  0.1187
 1229ERGO    R316450   2.697   5.687   6.879 -0.1343  0.1342  0.0124
 1229ERGO    R416451   2.736   5.890   7.088 -0.0051 -0.0870  0.2104
 1229ERGO    R516452   2.707   5.675   7.118 -0.1149 -0.1052  0.0028
 1229ERGO    C116453   2.412   5.810   7.318 -0.0234 -0.1410  0.1640
 1229ERGO    C216454   2.177   6.097   7.491 -0.2862  0.2200 -0.0109
 1230ERGO   ROH16455   3.794   9.668   5.861 -0.1521 -0.0391  0.0962
 1230ERGO    R116456   3.570   9.702   6.032 -0.0850 -0.0112  0.1793
 1230ERGO    R216457   3.579   9.858   6.258 -0.0167  0.0878  0.1105
 1230ERGO    R316458   3.363   9.979   6.145 -0.0895 -0.0035  0.1507
 1230ERGO    R416459   3.340  10.037   6.432  0.0581  0.1753  0.1248
 1230ERGO    R516460   3.187   9.946   6.305 -0.0017  0.0811  0.2643
 1230ERGO    C116461   2.997  10.254   6.427  0.0334  0.1405  0.1708
 1230ERGO    C216462   2.688  10.385   6.488 -0.0872  0.1967  0.0354
 1231ERGO   ROH16463   6.046  13.481   9.347 -0.0703 -0.0428  0.1411
 1231ERGO    R116464   6.076  13.634   9.111 -0.1353 -0.1225  0.0812
 1231ERGO    R216465   6.320  13.670   8.986 -0.1309  0.0281  0.1346
 1231ERGO    R316466   6.187  13.574   8.770  0.0093 -0.1815  0.1373
 1231ERGO    R416467   6.345  13.799   8.667 -0.0283 -0.1904  0.0522
 1231ERGO    R516468   6.130  13.770   8.644 -0.0084 -0.2912 -0.0309
 1231ERGO    C116469   6.235  13.784   8.277  0.1631 -0.5144  0.0068
 1231ERGO    C216470   6.253  13.810   7.909 -0.0586 -0.2114 -0.2057
 1232ERGO   ROH16471   2.155   1.010   6.296 -0.0446  0.2903 -0.0072
 1232ERGO    R116472   2.294   1.023   6.542  0.0928  0.1403 -0.0748
 1232ERGO    R216473   2.172   0.976   6.785  0.1502  0.3119 -0.0096
 1232ERGO    R316474   2.372   0.794   6.814 -0.0572  0.0652 -0.0943
 1232ERGO    R416475   2.250   0.814   7.080  0.0342  0.1667 -0.0578
 1232ERGO    R516476   2.461   0.839   7.031  0.0542 -0.0777 -0.1089
 1232ERGO    C116477   2.483   0.550   7.280 -0.2280 -0.1494 -0.1653
 1232ERGO    C216478   2.378   0.412   7.613  0.0304  0.0961  0.2510
 1233ERGO   ROH16479  10.696  15.691   6.412  0.0905  0.1624 -0.0338
 1233ERGO    R116480  10.853  15.627   6.639  0.0651  0.2396  0.0053
 1233ERGO    R216481  10.783  15.706   6.894 -0.1202  0.0777  0.0054
 1233ERGO    R316482  10.805  15.441   6.948  0.1294  0.0781 -0.0800
 1233ERGO    R416483  10.764  15.567   7.210  0.0742 -0.0343 -0.0300
 1233ERGO    R516484  10.926  15.432   7.155  0.1856  0.1247 -0.1084
 1233ERGO    C116485  10.773  15.236   7.444  0.4217 -0.0993 -0.1308
 1233ERGO    C216486  10.593  15.137   7.795  0.4122 -0.1009  0.1148
 1234ERGO   ROH16487   9.299  14.570   6.178  0.0825  0.1728  0.1299
 1234ERGO    R116488   9.530  14.498   6.326  0.0779  0.0165  0.0602
 1234ERGO    R216489   9.645  14.666   6.514  0.2311 -0.0741  0.0368
 1234ERGO    R316490   9.614  14.451   6.677  0.1507 -0.0671  0.0342
 1234ERGO    R416491   9.850  14.589   6.781  0.0428  0.0128  0.2107
 1234ERGO    R516492   9.837  14.379   6.725  0.1398 -0.0036  0.2178
 1234ERGO    C116493   9.940  14.343   7.090 -0.1424  0.0700  0.3093
 1234ERGO    C216494  10.158  14.384   7.432  0.2824  0.3129  0.1854
 1235ERGO   ROH16495   1.110   5.091   6.309 -0.0029 -0.0778  0.1499
 1235ERGO    R116496   0.844   5.107   6.402 -0.0077 -0.2383  0.1627
 1235ERGO    R216497   0.732   4.917   6.569  0.2131 -0.1523  0.4044
 1235ERGO    R316498   0.678   5.133   6.725  0.0066 -0.0171  0.1558
 1235ERGO    R416499   0.492   4.926   6.817  0.3089 -0.1562  0.4999
 1235ERGO    R516500   0.440   5.128   6.753  0.0176 -0.2933  0.2621
 1235ERGO    C116501   0.301   5.134   7.108  0.1709 -0.0316  0.3221
 1235ERGO    C216502  -0.029   4.946   7.474  0.0336 -0.2538  0.3438
 1236ERGO   ROH16503  11.458  12.379   5.635 -0.2905  0.0636  0.0185
 1236ERGO    R116504  11.335  12.363   5.889 -0.1154 -0.1644  0.0936
 1236ERGO    R216505  11.473  12.290   6.117  0.1720  0.1200  0.0222
 1236ERGO    R316506  11.376  12.525   6.213 -0.2408 -0.0558  0.0552
 1236ERGO    R416507  11.459  12.377   6.451  0.2531  0.1491  0.0179
 1236ERGO    R516508  11.263  12.465   6.415  0.0360 -0.2563  0.1541
 1236ERGO    C116509  11.359  12.648   6.736 -0.0871  0.0009  0.0463
 1236ERGO    C216510  11.426  12.664   6.975 -0.0106 -0.1144  0.2659
 1237ERGO   ROH16511   3.301  11.501   5.795  0.3171 -0.1413  0.1370
 1237ERGO    R116512   3.318  11.608   6.056  0.3350 -0.2043  0.1613
 1237ERGO    R216513   3.095  11.689   6.198  0.3755  0.1332  0.0367
 1237ERGO    R316514   3.194  11.520   6.387 -0.0061 -0.0561  0.0779
 1237ERGO    R416515   3.018  11.703   6.534  0.2400  0.2535  0.0022
 1237ERGO    R516516   3.227  11.660   6.579  0.1509 -0.1185  0.0989
 1237ERGO    C116517   3.065  11.553   6.908 -0.1971  0.1458  0.0208
 1237ERGO    C216518   2.708  11.648   7.201 -0.1829  0.0796 -0.0526
 1238ERGO   ROH16519   3.035   7.791   5.839 -0.0559  0.1279 -0.0267
 1238ERGO    R116520   3.172   7.790   6.087 -0.0770 -0.0083 -0.0146
 1238ERGO    R216521   3.181   8.011   6.253  0.1156 -0.0203 -0.0077
 1238ERGO    R316522   3.086   7.835   6.437 -0.0648  0.0630 -0.0199
 1238ERGO    R416523   3.265   8.012   6.588  0.1506 -0.1454 -0.0159
 1238ERGO    R516524   3.272   7.794   6.582 -0.0919 -0.1585 -0.0412
 1238ERGO    C116525   3.224   7.848   6.956  0.0016 -0.1400 -0.0321
 1238ERGO    C216526   3.363   7.897   7.204 -0.0044 -0.1831 -0.1368
 1239ERGO   ROH16527  15.828  16.745   6.682 -0.0280 -0.1812 -0.0206
 1239ERGO    R116528  16.052  16.781   6.852  0.0478 -0.1464 -0.1274
 1239ERGO    R216529  16.033  16.767   7.127  0.1291  0.1219 -0.1088
 1239ERGO    R316530  16.230  16.582   7.100  0.0188 -0.0153  0.0009
 1239ERGO    R416531  16.199  16.615   7.390  0.0092  0.1511 -0.0146
 1239ERGO    R516532  16.384  16.633   7.276  0.0337 -0.0199 -0.0085
 1239ERGO    C116533  16.480  16.352   7.516 -0.1645  0.0391  0.1433
 1239ERGO    C216534  16.760  16.233   7.762 -0.1232  0.0824  0.0925
 1240ERGO   ROH16535   0.736   5.859   9.382  0.0067  0.1656 -0.0635
 1240ERGO    R116536   0.594   5.796   9.145  0.0133  0.2318 -0.0826
 1240ERGO    R216537   0.688   5.862   8.893  0.1974 -0.0260 -0.0733
 1240ERGO    R316538   0.652   5.597   8.847 -0.1443 -0.0073  0.0395
 1240ERGO    R416539   0.655   5.720   8.580  0.5052 -0.1466 -0.0556
 1240ERGO    R516540   0.501   5.589   8.661  0.1433  0.1380 -0.2231
 1240ERGO    C116541   0.603   5.387   8.354  0.3635 -0.1993  0.0606
 1240ERGO    C216542   0.488   5.276   8.179  0.0294 -0.0342 -0.1306
 1241ERGO   ROH16543   3.480   3.418   6.392  0.1687  0.2391 -0.0247
 1241ERGO    R116544   3.641   3.349   6.614  0.0041 -0.0411  0.0120
 1241ERGO    R216545   3.730   3.536   6.797  0.2402 -0.1988  0.0614
 1241ERGO    R316546   3.614   3.367   6.976 -0.0706 -0.0506  0.0073
 1241ERGO    R416547   3.763   3.558   7.141  0.3874 -0.4332  0.0653
 1241ERGO    R516548   3.778   3.341   7.149 -0.0668 -0.4812 -0.0475
 1241ERGO    C116549   3.673   3.413   7.508  0.1813 -0.4306  0.0167
 1241ERGO    C216550   3.405   3.361   7.781  0.1223 -0.3111  0.0646
 1242ERGO   ROH16551  17.605   6.092   5.398 -0.0660 -0.0701 -0.0223
 1242ERGO    R116552  17.535   6.278   5.599 -0.1207 -0.0340 -0.0725
 1242ERGO    R216553  17.628   6.260   5.859 -0.1541  0.0384 -0.0501
 1242ERGO    R316554  17.711   6.514   5.813 -0.1825  0.0363 -0.1001
 1242ERGO    R416555  17.739   6.478   6.103 -0.2151  0.1107 -0.0881
 1242ERGO    R516556  17.631   6.638   6.002 -0.2222  0.0705 -0.1406
 1242ERGO    C116557  17.881   6.844   6.202 -0.2771  0.1508 -0.1573
 1242ERGO    C216558  17.932   7.126   6.351  0.1190 -0.1024 -0.0737
 1243ERGO   ROH16559   9.436  18.142   6.450 -0.0322  0.0314 -0.1379
 1243ERGO    R116560   9.156  18.157   6.488 -0.0166 -0.0852  0.0346
 1243ERGO    R216561   9.032  18.068   6.719  0.1863  0.0723  0.2099
 1243ERGO    R316562   8.929  18.320   6.722  0.0540  0.0230  0.0278
 1243ERGO    R416563   8.793  18.181   6.941  0.2399  0.1545  0.2265
 1243ERGO    R516564   8.698  18.289   6.778  0.0986 -0.0481  0.1732
 1243ERGO    C116565   8.557  18.483   7.075  0.1469  0.1562  0.0652
 1243ERGO    C216566   8.233  18.532   7.216  0.0965 -0.0331  0.0454
 1244ERGO   ROH16567   0.283   3.871   6.256  0.1415 -0.1119  0.1413
 1244ERGO    R116568   0.193   3.956   6.511  0.1363  0.0097  0.0991
 1244ERGO    R216569   0.160   3.781   6.722 -0.1097  0.0690  0.1076
 1244ERGO    R316570   0.324   3.956   6.850  0.0193 -0.0759  0.1467
 1244ERGO    R416571   0.175   3.823   7.065  0.0585 -0.1639  0.1315
 1244ERGO    R516572   0.193   4.038   7.033  0.1277 -0.1430  0.2618
 1244ERGO    C116573   0.338   4.012   7.385  0.2775 -0.4356  0.1823
 1244ERGO    C216574   0.385   4.031   7.848  0.1613 -0.0082 -0.1249
 1245ERGO   ROH16575  18.325  12.865   5.928 -0.0168 -0.0423 -0.0535
 1245ERGO    R116576  18.425  13.011   6.149 -0.1448  0.0295 -0.0412
 1245ERGO    R216577  18.340  12.965   6.409 -0.0475 -0.1226 -0.0325
 1245ERGO    R316578  18.607  12.935   6.455 -0.0018  0.1727 -0.0904
 1245ERGO    R416579  18.490  12.967   6.721  0.0195  0.0119 -0.0654
 1245ERGO    R516580  18.653  13.083   6.637 -0.1286  0.2055 -0.0862
 1245ERGO    C116581  18.827  12.941   6.945  0.1015  0.3675 -0.1390
 1245ERGO    C216582  18.845  12.868   7.205  0.1931  0.1407  0.0752
 1246ERGO   ROH16583  15.561   0.159   6.527  0.3014 -0.3218  0.1861
 1246ERGO    R116584  15.559   0.297   6.773  0.2768 -0.1433  0.0864
 1246ERGO    R216585  15.761   0.471   6.848  0.2380 -0.0474 -0.0444
 1246ERGO    R316586  15.555   0.645   6.881  0.2033 -0.0638 -0.1611
 1246ERGO    R416587  15.759   0.734   7.072  0.0701 -0.0915  0.0088
 1246ERGO    R516588  15.551   0.688   7.117  0.0337 -0.1118 -0.1499
 1246ERGO    C116589  15.565   1.051   7.233 -0.0602 -0.1325 -0.0698
 1246ERGO    C216590  15.573   1.342   7.486  0.0394  0.1160  0.0066
 1247ERGO   ROH16591   0.151  16.007   9.761 -0.1746 -0.1630 -0.0077
 1247ERGO    R116592   0.113  16.151   9.520 -0.2291 -0.0952  0.0391
 1247ERGO    R216593   0.259  16.098   9.291 -0.0343  0.1955  0.0819
 1247ERGO    R316594   0.013  16.073   9.179  0.0507 -0.0705 -0.0491
 1247ERGO    R416595   0.178  16.191   8.968 -0.0508  0.4236  0.1505
 1247ERGO    R516596  -0.011  16.268   9.042 -0.2034  0.0415  0.1575
 1247ERGO    C116597  -0.100  16.220   8.674  0.0197  0.3065  0.0677
 1247ERGO    C216598  -0.074  16.273   8.419 -0.0291 -0.0217  0.2636
 1248ERGO   ROH16599   0.795  14.206   6.101 -0.0610 -0.5810 -0.0279
 1248ERGO    R116600   0.832  14.126   6.370  0.1796 -0.2442  0.0444
 1248ERGO    R216601   0.976  14.277   6.552  0.0852  0.1377 -0.1925
 1248ERGO    R316602   0.748  14.257   6.698  0.1839  0.0069 -0.0515
 1248ERGO    R416603   0.964  14.231   6.894  0.3303  0.4943 -0.1298
 1248ERGO    R516604   0.799  14.093   6.865  0.4838  0.2461  0.1064
 1248ERGO    C116605   0.743  14.186   7.231  0.5657  0.5792  0.0391
 1248ERGO    C216606   0.589  14.201   7.570  0.1231  0.1903  0.2151
 1249ERGO   ROH16607   3.044   4.642   6.664 -0.0475 -0.0033  0.0255
 1249ERGO    R116608   3.059   4.547   6.930  0.0622 -0.0174  0.0152
 1249ERGO    R216609   3.297   4.527   7.068  0.0938  0.2088  0.0014
 1249ERGO    R316610   3.166   4.678   7.253 -0.0526  0.0605  0.0215
 1249ERGO    R416611   3.356   4.517   7.409 -0.0595  0.0663  0.0254
 1249ERGO    R516612   3.141   4.532   7.441 -0.0780 -0.0419 -0.0628
 1249ERGO    C116613   3.267   4.654   7.780 -0.2864 -0.1559  0.0583
 1249ERGO    C216614   3.486   4.827   8.029  0.3745  0.2398  0.2570
 1250ERGO   ROH16615  14.677   1.999   6.705 -0.0827 -0.1334 -0.1592
 1250ERGO    R116616  14.619   2.146   6.939 -0.0961 -0.1178 -0.1719
 1250ERGO    R216617  14.720   2.078   7.187 -0.1290 -0.1177 -0.1557
 1250ERGO    R316618  14.807   2.335   7.186 -0.1048 -0.1250 -0.1602
 1250ERGO    R416619  14.806   2.258   7.469  0.1308 -0.2015 -0.1791
 1250ERGO    R516620  14.708   2.432   7.382  0.0714 -0.1679 -0.0479
 1250ERGO    C116621  14.938   2.604   7.633  0.3048 -0.2571 -0.1968
 1250ERGO    C216622  15.241   2.546   7.880 -0.1629 -0.0581 -0.1074
 1251ERGO   ROH16623   2.509  14.520   5.996  0.1399 -0.2486 -0.2235
 1251ERGO    R116624   2.500  14.482   6.276  0.0903 -0.0984 -0.2034
 1251ERGO    R216625   2.276  14.385   6.406  0.0890 -0.0980 -0.1975
 1251ERGO    R316626   2.453  14.202   6.504  0.1268  0.0096 -0.0636
 1251ERGO    R416627   2.201  14.145   6.643  0.0591 -0.1557 -0.2656
 1251ERGO    R516628   2.395  14.182   6.735 -0.0403 -0.0371 -0.1116
 1251ERGO    C116629   2.323  13.834   6.873  0.0772 -0.0884 -0.1795
 1251ERGO    C216630   2.242  13.619   7.231  0.3442 -0.3118  0.0346
 1252ERGO   ROH16631   5.070   0.754   9.674  0.0636  0.0953  0.0537
 1252ERGO    R116632   4.949   0.775   9.419 -0.0279  0.1170  0.0982
 1252ERGO    R216633   5.058   0.927   9.215 -0.0402  0.0440  0.0364
 1252ERGO    R316634   5.040   0.695   9.076 -0.1984  0.0338  0.0714
 1252ERGO    R416635   5.004   0.905   8.874  0.1691  0.0374  0.0025
 1252ERGO    R516636   4.871   0.736   8.912 -0.0425  0.1883 -0.0541
 1252ERGO    C116637   4.957   0.673   8.545  0.1426  0.0240  0.0158
 1252ERGO    C216638   5.090   0.822   8.196  0.2203  0.1081  0.0858
 1253ERGO   ROH16639   0.685  15.632   6.160 -0.0620  0.1428  0.0690
 1253ERGO    R116640   0.869  15.582   6.370  0.0089  0.0530 -0.0117
 1253ERGO    R216641   1.087  15.745   6.419 -0.0870  0.1586  0.1168
 1253ERGO    R316642   0.981  15.756   6.669 -0.0635 -0.1687  0.1436
 1253ERGO    R416643   1.264  15.818   6.706 -0.1903  0.3932  0.1223
 1253ERGO    R516644   1.151  15.664   6.810  0.1452  0.1167  0.0736
 1253ERGO    C116645   1.268  15.871   7.108 -0.2283  0.2228  0.1506
 1253ERGO    C216646   1.362  16.017   7.356  0.0496 -0.1543 -0.1184
 1254ERGO   ROH16647   9.553   3.404   6.600 -0.0049 -0.3767 -0.0953
 1254ERGO    R116648   9.648   3.229   6.801  0.2383 -0.0749  0.0632
 1254ERGO    R216649   9.793   3.318   7.019 -0.0741  0.3543  0.1172
 1254ERGO    R316650   9.600   3.188   7.159  0.0954  0.0292  0.0555
 1254ERGO    R416651   9.806   3.249   7.357  0.0579  0.1021  0.0623
 1254ERGO    R516652   9.721   3.054   7.316  0.2692  0.0394 -0.0717
 1254ERGO    C116653   9.633   3.088   7.686  0.2939 -0.3500 -0.0276
 1254ERGO    C216654   9.623   3.209   8.066  0.0300 -0.0300 -0.0734
 1255ERGO   ROH16655   6.977   9.119   6.084  0.1358  0.0633 -0.1876
 1255ERGO    R116656   7.004   9.169   6.361  0.1603  0.2459 -0.2219
 1255ERGO    R216657   7.013   9.423   6.467 -0.2511  0.3195 -0.3516
 1255ERGO    R316658   6.809   9.332   6.622 -0.0330  0.0264 -0.2256
 1255ERGO    R416659   6.894   9.583   6.749 -0.1961  0.0556 -0.1750
 1255ERGO    R516660   6.875   9.387   6.845  0.0893 -0.0134 -0.2514
 1255ERGO    C116661   6.633   9.590   7.059  0.0406 -0.3732  0.0460
 1255ERGO    C216662   6.360   9.906   7.213  0.1886 -0.0634 -0.0875
 1256ERGO   ROH16663  12.421  15.599   6.075  0.3384 -0.0649 -0.1830
 1256ERGO    R116664  12.543  15.454   6.285  0.2270  0.0378 -0.0451
 1256ERGO    R216665  12.598  15.567   6.532 -0.0434  0.1154 -0.0181
 1256ERGO    R316666  12.455  15.354   6.624 -0.0205  0.0645 -0.0995
 1256ERGO    R416667  12.577  15.470   6.863  0.0142 -0.0466 -0.0612
 1256ERGO    R516668  12.590  15.262   6.798  0.0122 -0.0157 -0.1654
 1256ERGO    C116669  12.432  15.214   7.142  0.0691 -0.1886 -0.1626
 1256ERGO    C216670  12.298  15.294   7.474  0.0548  0.1241  0.1627
 1257ERGO   ROH16671   6.890  11.680   5.746  0.0554 -0.2469 -0.1702
 1257ERGO    R116672   6.863  11.654   6.027  0.0309 -0.2162 -0.1691
 1257ERGO    R216673   7.055  11.535   6.185  0.0471 -0.1474 -0.1321
 1257ERGO    R316674   7.042  11.769   6.322 -0.0284 -0.1285 -0.1666
 1257ERGO    R416675   7.056  11.562   6.529 -0.1503 -0.1040 -0.1342
 1257ERGO    R516676   6.905  11.719   6.512 -0.1395 -0.1028 -0.2388
 1257ERGO    C116677   7.044  11.798   6.859 -0.3361 -0.0609 -0.1678
 1257ERGO    C216678   7.297  11.854   7.092 -0.0878 -0.0197 -0.1473
 1258ERGO   ROH16679   9.695  11.516   5.623 -0.0257 -0.1883  0.0706
 1258ERGO    R116680   9.744  11.569   5.897 -0.0496 -0.1272  0.0635
 1258ERGO    R216681   9.991  11.531   6.014 -0.0872 -0.2106  0.1209
 1258ERGO    R316682   9.961  11.790   6.088  0.0229 -0.1719  0.0324
 1258ERGO    R416683  10.094  11.663   6.316 -0.0143 -0.1424  0.0664
 1258ERGO    R516684   9.910  11.780   6.322  0.0350 -0.0669  0.0386
 1258ERGO    C116685  10.125  11.983   6.562  0.1316 -0.0664 -0.0484
 1258ERGO    C216686  10.304  12.112   6.726  0.0262 -0.0501 -0.0083
 1259ERGO   ROH16687  16.285  14.968   6.413 -0.0590 -0.0068 -0.0568
 1259ERGO    R116688  16.353  14.964   6.688  0.1412  0.1299 -0.1016
 1259ERGO    R216689  16.434  15.190   6.824 -0.0966  0.2764 -0.1895
 1259ERGO    R316690  16.232  15.122   6.993  0.1148 -0.0066 -0.0416
 1259ERGO    R416691  16.399  15.307   7.148 -0.1759  0.4498 -0.2598
 1259ERGO    R516692  16.337  15.107   7.208  0.2526  0.3626 -0.0778
 1259ERGO    C116693  16.189  15.311   7.494 -0.0234  0.2851 -0.1620
 1259ERGO    C216694  16.162  15.308   7.890  0.1577  0.0044  0.0044
 1260ERGO   ROH16695  11.579   6.941   6.470 -0.0360  0.0687  0.1666
 1260ERGO    R116696  11.700   6.830   6.700  0.0493  0.0911  0.1318
 1260ERGO    R216697  11.838   6.983   6.884 -0.0724  0.1353  0.1843
 1260ERGO    R316698  11.667   6.867   7.061  0.0221 -0.0531  0.1424
 1260ERGO    R416699  11.911   6.922   7.216 -0.0342  0.0929  0.1686
 1260ERGO    R516700  11.808   6.730   7.198  0.1250  0.0227  0.1072
 1260ERGO    C116701  11.793   6.778   7.576  0.0768 -0.1085  0.1202
 1260ERGO    C216702  11.813   6.647   7.873 -0.0844  0.1597 -0.3878
 1261ERGO   ROH16703   0.341  17.526   5.994 -0.2283 -0.1009 -0.1585
 1261ERGO    R116704   0.402  17.586   6.264  0.0275 -0.1194 -0.2093
 1261ERGO    R216705   0.208  17.663   6.447  0.2426  0.1777 -0.0985
 1261ERGO    R316706   0.310  17.456   6.591  0.0649  0.0730 -0.1207
 1261ERGO    R416707   0.181  17.630   6.790  0.2940  0.2151 -0.0908
 1261ERGO    R516708   0.387  17.558   6.794  0.2231 -0.0005 -0.1420
 1261ERGO    C116709   0.261  17.417   7.125  0.1571  0.1390 -0.1072
 1261ERGO    C216710   0.153  17.182   7.371 -0.2057  0.1262  0.1035
 1262ERGO   ROH16711  14.205  12.527   6.020 -0.0361 -0.3401 -0.1662
 1262ERGO    R116712  14.276  12.613   6.280  0.0172  0.0953 -0.3151
 1262ERGO    R216713  14.322  12.436   6.488 -0.3430  0.4401  0.0838
 1262ERGO    R316714  14.558  12.569   6.505 -0.1249  0.0934 -0.1368
 1262ERGO    R416715  14.498  12.490   6.780 -0.2148  0.5736 -0.0178
 1262ERGO    R516716  14.544  12.691   6.710  0.0974  0.4074 -0.3037
 1262ERGO    C116717  14.822  12.647   6.966  0.0647  0.3257 -0.2840
 1262ERGO    C216718  14.989  12.532   7.140  0.2804 -0.0901  0.0874
 1263ERGO   ROH16719  15.373   8.110   5.985 -0.2131 -0.1563 -0.1481
 1263ERGO    R116720  15.362   7.876   6.144 -0.1761 -0.1369 -0.1174
 1263ERGO    R216721  15.509   7.846   6.376 -0.1401 -0.0997 -0.1390
 1263ERGO    R316722  15.266   7.792   6.485 -0.1188 -0.1026 -0.0914
 1263ERGO    R416723  15.459   7.713   6.691 -0.0696 -0.0576 -0.1096
 1263ERGO    R516724  15.300   7.589   6.608 -0.0771 -0.0849 -0.0672
 1263ERGO    C116725  15.202   7.585   6.977 -0.0085 -0.0357 -0.0479
 1263ERGO    C216726  15.181   7.466   7.264  0.0096  0.0651 -0.1339
 1264ERGO   ROH16727  17.962   3.089   6.395  0.0204 -0.1530  0.0224
 1264ERGO    R116728  17.985   3.231   6.639 -0.1238 -0.0898  0.0004
 1264ERGO    R216729  17.774   3.258   6.815 -0.1260 -0.3668  0.0438
 1264ERGO    R316730  17.951   3.154   6.993  0.0640 -0.0972  0.0181
 1264ERGO    R416731  17.708   3.205   7.150  0.1064 -0.1850  0.1206
 1264ERGO    R516732  17.910   3.276   7.196  0.0793  0.0144 -0.0431
 1264ERGO    C116733  17.836   3.076   7.513  0.4202  0.1739  0.1412
 1264ERGO    C216734  17.750   3.014   7.886  0.2107  0.2626  0.0014
 1265ERGO   ROH16735   4.849   2.016   6.573 -0.0199 -0.0957  0.0184
 1265ERGO    R116736   4.777   1.878   6.810 -0.0139  0.0787  0.1222
 1265ERGO    R216737   4.821   1.982   7.062 -0.0799  0.2949  0.0408
 1265ERGO    R316738   4.555   1.936   7.092 -0.0673  0.2442  0.0480
 1265ERGO    R416739   4.671   1.872   7.353 -0.0662  0.3940  0.0862
 1265ERGO    R516740   4.544   1.743   7.233 -0.0270  0.3074  0.1391
 1265ERGO    C116741   4.334   1.764   7.551 -0.0465  0.4041  0.1194
 1265ERGO    C216742   4.285   1.838   7.822  0.1926  0.3616 -0.3120
 1266ERGO   ROH16743  13.391  13.745   5.999  0.2214  0.0212 -0.1804
 1266ERGO    R116744  13.435  13.585   6.228  0.1781 -0.1337 -0.2794
 1266ERGO    R216745  13.688  13.507   6.309  0.1733 -0.0826 -0.2145
 1266ERGO    R316746  13.612  13.619   6.545  0.0065 -0.2941 -0.1645
 1266ERGO    R416747  13.804  13.412   6.621  0.2872 -0.0692 -0.2520
 1266ERGO    R516748  13.602  13.435   6.698  0.2481 -0.3808 -0.2493
 1266ERGO    C116749  13.800  13.461   7.023  0.1969 -0.2600 -0.2269
 1266ERGO    C216750  14.106  13.498   7.104  0.3558  0.0704 -0.2013
 1267ERGO   ROH16751  13.863   2.919   6.706  0.0716 -0.0125  0.1483
 1267ERGO    R116752  13.628   2.975   6.853 -0.0065 -0.1318  0.0709
 1267ERGO    R216753  13.539   3.232   6.900 -0.0579 -0.1685  0.1918
 1267ERGO    R316754  13.309   3.138   6.789  0.0070 -0.1266  0.0188
 1267ERGO    R416755  13.221   3.329   6.994 -0.1177 -0.2839  0.1093
 1267ERGO    R516756  13.157   3.121   6.974 -0.0778 -0.2784 -0.0651
 1267ERGO    C116757  12.820   3.297   6.946 -0.0915 -0.3118 -0.1013
 1267ERGO    C216758  12.652   3.695   6.952 -0.0407 -0.0343 -0.2284
 1268ERGO   ROH16759  14.949  10.391   5.883 -0.0272 -0.0781  0.0853
 1268ERGO    R116760  15.004  10.236   6.113 -0.0133 -0.0696  0.0899
 1268ERGO    R216761  15.258  10.213   6.221  0.0106 -0.1071  0.0509
 1268ERGO    R316762  15.134  10.296   6.448  0.0582 -0.0581  0.0569
 1268ERGO    R416763  15.383  10.171   6.540  0.0633 -0.0188  0.0407
 1268ERGO    R516764  15.182  10.124   6.607  0.0896 -0.0062  0.0916
 1268ERGO    C116765  15.341  10.225   6.939  0.1387  0.0787  0.0405
 1268ERGO    C216766  15.311  10.195   7.318  0.0228  0.2315 -0.3710
 1269ERGO   ROH16767   8.219   3.155   6.368 -0.0710 -0.2268  0.0882
 1269ERGO    R116768   8.233   3.303   6.609 -0.1005 -0.0850  0.0042
 1269ERGO    R216769   8.011   3.415   6.729 -0.1735 -0.3266  0.1012
 1269ERGO    R316770   8.096   3.275   6.945  0.1713 -0.1064  0.1160
 1269ERGO    R416771   8.008   3.532   7.054 -0.2056 -0.2042  0.0574
 1269ERGO    R516772   8.202   3.439   7.084 -0.0279  0.1283 -0.0002
 1269ERGO    C116773   8.086   3.469   7.447  0.0992  0.0738  0.0458
 1269ERGO    C216774   8.085   3.669   7.733  0.0110 -0.0305 -0.1409
 1270ERGO   ROH16775  11.795  15.375   9.804  0.0114  0.0022 -0.0099
 1270ERGO    R116776  11.970  15.412   9.585 -0.0024 -0.0870 -0.0367
 1270ERGO    R216777  11.900  15.345   9.326 -0.1430  0.1048 -0.0514
 1270ERGO    R316778  11.968  15.604   9.275  0.1236  0.0585  0.0513
 1270ERGO    R416779  11.972  15.471   9.013 -0.1724  0.1932 -0.0230
 1270ERGO    R516780  12.133  15.588   9.102  0.0119 -0.0380 -0.0477
 1270ERGO    C116781  12.078  15.787   8.782  0.0609  0.2012  0.0898
 1270ERGO    C216782  12.192  15.939   8.595  0.2480  0.1837 -0.0104
 1271ERGO   ROH16783   0.224   1.167  10.233 -0.0728  0.0642  0.1184
 1271ERGO    R116784   0.167   1.001  10.011 -0.2239 -0.0224  0.2191
 1271ERGO    R216785  -0.073   0.866   9.984 -0.3947  0.2566  0.2531
 1271ERGO    R316786  -0.080   0.993   9.744 -0.1680  0.1053  0.1638
 1271ERGO    R416787  -0.168   0.719   9.686 -0.1172  0.0760  0.2507
 1271ERGO    R516788  -0.007   0.827   9.587 -0.0241  0.0082  0.3336
 1271ERGO    C116789  -0.230   0.753   9.287  0.2573 -0.1712  0.1653
 1271ERGO    C216790  -0.373   0.831   8.954 -0.2356  0.0616  0.2442
 1272ERGO   ROH16791  10.336   7.170   6.731  0.0311  0.2270 -0.3295
 1272ERGO    R116792  10.447   7.403   6.847  0.0669  0.1273 -0.1586
 1272ERGO    R216793  10.316   7.549   7.041  0.0259  0.0827 -0.1486
 1272ERGO    R316794  10.546   7.511   7.180 -0.0548 -0.0804 -0.0529
 1272ERGO    R416795  10.403   7.718   7.330  0.0073 -0.0225 -0.0808
 1272ERGO    R516796  10.607   7.730   7.255  0.0472 -0.1318  0.0116
 1272ERGO    C116797  10.669   7.781   7.628 -0.0791 -0.2368  0.0486
 1272ERGO    C216798  10.675   7.819   7.981  0.0110  0.1191  0.1913
 1273ERGO   ROH16799  15.693   7.672   9.477  0.2354  0.1412 -0.1510
 1273ERGO    R116800  15.540   7.539   9.280  0.2049  0.0084 -0.0401
 1273ERGO    R216801  15.473   7.657   9.039 -0.1442 -0.0163  0.0367
 1273ERGO    R316802  15.588   7.434   8.934  0.0169  0.1313 -0.1039
 1273ERGO    R416803  15.377   7.505   8.744 -0.1352  0.0023  0.0247
 1273ERGO    R516804  15.406   7.311   8.840  0.0919 -0.0064 -0.0649
 1273ERGO    C116805  15.429   7.208   8.474  0.0213  0.1516 -0.1144
 1273ERGO    C216806  15.345   7.203   8.172 -0.0932  0.1861 -0.1087
 1274ERGO   ROH16807  12.409  14.338   5.979 -0.0525 -0.0941 -0.0174
 1274ERGO    R116808  12.452  14.298   6.256 -0.0314  0.0004 -0.0078
 1274ERGO    R216809  12.682  14.184   6.356 -0.0767 -0.0699  0.0017
 1274ERGO    R316810  12.691  14.411   6.506  0.0607 -0.0139 -0.0865
 1274ERGO    R416811  12.838  14.211   6.664 -0.3046 -0.1375  0.1263
 1274ERGO    R516812  12.670  14.333   6.732 -0.2282  0.0944 -0.0670
 1274ERGO    C116813  12.936  14.440   6.983 -0.3084 -0.1242  0.1161
 1274ERGO    C216814  13.067  14.193   7.305 -0.0119  0.1257  0.4953
 1275ERGO   ROH16815  13.483   3.017   8.633  0.0091  0.0505 -0.0144
 1275ERGO    R116816  13.392   3.075   8.371 -0.1056  0.0149  0.0164
 1275ERGO    R216817  13.170   3.232   8.321 -0.0328  0.1450  0.0897
 1275ERGO    R316818  13.344   3.373   8.168 -0.0263 -0.0255 -0.0624
 1275ERGO    R416819  13.081   3.488   8.107  0.0051  0.0787 -0.0051
 1275ERGO    R516820  13.225   3.411   7.963 -0.0978 -0.0723 -0.0298
 1275ERGO    C116821  13.192   3.769   7.838  0.0333 -0.1200 -0.2030
 1275ERGO    C216822  13.188   4.091   7.929  0.0005  0.3577  0.0111
 1276ERGO   ROH16823  14.289   5.929   6.511 -0.0765  0.0866  0.0178
 1276ERGO    R116824  14.353   6.131   6.699 -0.0202  0.0887 -0.0037
 1276ERGO    R216825  14.346   6.088   6.972 -0.0844  0.1341  0.0011
 1276ERGO    R316826  14.601   6.180   6.960 -0.0418  0.0227  0.0297
 1276ERGO    R416827  14.560   6.113   7.243 -0.1197  0.0839  0.0342
 1276ERGO    R516828  14.629   6.304   7.164 -0.0240  0.0427  0.0159
 1276ERGO    C116829  14.924   6.214   7.389 -0.1004 -0.0500  0.0805
 1276ERGO    C216830  15.044   5.976   7.409 -0.4358 -0.0533 -0.2048
 1277ERGO   ROH16831   8.511  17.682   9.481  0.0798 -0.2383 -0.1590
 1277ERGO    R116832   8.579  17.785   9.226 -0.0881 -0.3710 -0.2598
 1277ERGO    R216833   8.839  17.847   9.155 -0.1869  0.0186 -0.3012
 1277ERGO    R316834   8.787  17.681   8.946  0.1144 -0.2904 -0.1412
 1277ERGO    R416835   9.046  17.804   8.882 -0.1544  0.2173 -0.3094
 1277ERGO    R516836   8.869  17.800   8.755 -0.1870 -0.2800 -0.2691
 1277ERGO    C116837   9.118  17.624   8.527  0.1475  0.0428 -0.1641
 1277ERGO    C216838   9.379  17.681   8.388  0.1050  0.0241 -0.1350
 1278ERGO   ROH16839  15.293   4.847   6.374 -0.2334 -0.4218 -0.1116
 1278ERGO    R116840  15.236   4.701   6.610  0.0453 -0.3510  0.0035
 1278ERGO    R216841  15.401   4.708   6.832  0.1049  0.0371 -0.0416
 1278ERGO    R316842  15.172   4.779   6.960  0.0318 -0.2085 -0.0309
 1278ERGO    R416843  15.357   4.709   7.175  0.1733  0.1516 -0.0333
 1278ERGO    R516844  15.157   4.628   7.145  0.2741 -0.1359  0.0485
 1278ERGO    C116845  15.117   4.776   7.494  0.1447 -0.0124 -0.0183
 1278ERGO    C216846  15.196   4.845   7.781  0.3122  0.3108 -0.1148
 1279ERGO   ROH16847  16.474  12.449   6.053  0.1385  0.0102 -0.0832
 1279ERGO    R116848  16.435  12.300   6.291 -0.0685  0.1181 -0.0474
 1279ERGO    R216849  16.646  12.212   6.448 -0.1883 -0.1335 -0.0266
 1279ERGO    R316850  16.511  12.343   6.645 -0.0132  0.0993 -0.0564
 1279ERGO    R416851  16.745  12.228   6.778 -0.1250 -0.1282 -0.0453
 1279ERGO    R516852  16.537  12.203   6.837 -0.1515  0.1366 -0.0077
 1279ERGO    C116853  16.677  12.359   7.156  0.0761  0.0933 -0.0841
 1279ERGO    C216854  16.756  12.396   7.551 -0.0376 -0.1424  0.0569
 1280ERGO   ROH16855   1.973   2.896   6.406  0.0375  0.1261 -0.0674
 1280ERGO    R116856   1.908   3.118   6.569  0.0427  0.1921 -0.1546
 1280ERGO    R216857   2.004   3.147   6.826 -0.1326  0.1795 -0.0880
 1280ERGO    R316858   2.088   3.388   6.733  0.0763  0.1173 -0.0660
 1280ERGO    R416859   2.100   3.414   7.025  0.0929  0.0790 -0.0586
 1280ERGO    R516860   1.996   3.547   6.887  0.2074  0.1824 -0.0505
 1280ERGO    C116861   2.234   3.795   7.052  0.4203 -0.0379 -0.0207
 1280ERGO    C216862   2.524   3.903   7.207 -0.1856  0.4388  0.3786
 1281ERGO   ROH16863   5.713  13.556   5.734 -0.2170  0.2110  0.0505
 1281ERGO    R116864   5.716  13.653   5.999 -0.2702  0.3481  0.0010
 1281ERGO    R216865   5.494  13.767   6.118 -0.4552 -0.0694  0.0687
 1281ERGO    R316866   5.540  13.580   6.310  0.0623  0.1143  0.1413
 1281ERGO    R416867   5.388  13.792   6.446 -0.6489 -0.2819  0.0252
 1281ERGO    R516868   5.580  13.708   6.509 -0.3908  0.3179  0.1170
 1281ERGO    C116869   5.370  13.631   6.817 -0.2759 -0.2331  0.0680
 1281ERGO    C216870   5.448  13.584   7.094  0.1484 -0.0638 -0.0265
 1282ERGO   ROH16871   6.489   1.603   6.692  0.0559  0.0934 -0.0254
 1282ERGO    R116872   6.557   1.420   6.898 -0.1014  0.0957  0.0316
 1282ERGO    R216873   6.817   1.384   6.985 -0.1123 -0.1719 -0.0219
 1282ERGO    R316874   6.709   1.438   7.228  0.0088  0.0596 -0.0183
 1282ERGO    R416875   6.967   1.312   7.288 -0.1009 -0.1509 -0.0234
 1282ERGO    R516876   6.772   1.251   7.364 -0.1335  0.0757  0.0642
 1282ERGO    C116877   6.953   1.321   7.693  0.0195  0.0787 -0.0209
 1282ERGO    C216878   6.969   1.611   7.899  0.1680  0.1628  0.1942
 1283ERGO   ROH16879  14.470  16.663   6.375 -0.0685 -0.1868 -0.0504
 1283ERGO    R116880  14.290  16.698   6.591 -0.0506 -0.0340 -0.0619
 1283ERGO    R216881  14.315  16.561   6.830 -0.1240  0.0201 -0.0348
 1283ERGO    R316882  14.309  16.811   6.936  0.0003  0.0496 -0.0891
 1283ERGO    R416883  14.176  16.643   7.135  0.1853  0.0903  0.0936
 1283ERGO    R516884  14.096  16.825   7.045  0.1006  0.0807  0.1242
 1283ERGO    C116885  14.089  16.926   7.413  0.4822  0.1591  0.1174
 1283ERGO    C216886  13.933  17.042   7.729  0.2093 -0.3654 -0.1281
 1284ERGO   ROH16887   5.154  16.561   5.999  0.1319  0.3448 -0.0771
 1284ERGO    R116888   5.264  16.406   6.209 -0.0306  0.2170 -0.0863
 1284ERGO    R216889   5.417  16.517   6.412 -0.0685  0.0693  0.0121
 1284ERGO    R316890   5.235  16.393   6.571 -0.1877  0.0933 -0.1002
 1284ERGO    R416891   5.452  16.468   6.752 -0.2786  0.0796  0.0384
 1284ERGO    R516892   5.367  16.269   6.728 -0.2899  0.0805 -0.0126
 1284ERGO    C116893   5.302  16.323   7.100 -0.5128  0.1082 -0.0518
 1284ERGO    C216894   5.347  16.581   7.390  0.1509 -0.3382 -0.0047
 1285ERGO   ROH16895  11.733  17.915   6.625 -0.2025  0.2120 -0.0108
 1285ERGO    R116896  11.876  17.822   6.851 -0.1084 -0.0444 -0.1708
 1285ERGO    R216897  11.847  17.934   7.102  0.3178 -0.0373 -0.1157
 1285ERGO    R316898  11.793  17.678   7.175 -0.0009  0.0269 -0.1116
 1285ERGO    R416899  11.785  17.829   7.425  0.3841  0.0116 -0.0872
 1285ERGO    R516900  11.904  17.651   7.385  0.1043 -0.1564 -0.1892
 1285ERGO    C116901  11.699  17.528   7.682  0.1234  0.1007 -0.0666
 1285ERGO    C216902  11.538  17.442   7.931 -0.2720  0.2390  0.0544
 1286W        W16903  12.655   8.943   3.432 -0.1801 -0.2238  0.1651
 1287W        W16904  17.562   9.043   3.833 -0.3642 -0.2470  0.2171
 1288W        W16905   4.019  10.627  11.104  0.1836  0.0848 -0.1042
 1289W        W16906  16.713   0.599  15.447 -0.1756 -0.1164  0.1663
 1290W        W16907   4.120   6.674   1.368 -0.2036 -0.1363  0.3643
 1291W        W16908   4.958  11.774  11.945 -0.3043  0.0535 -0.3723
 1292W        W16909  15.371   0.165   2.850 -0.2464 -0.1737 -0.1788
 1293W        W16910  15.474   1.367   5.110 -0.0390  0.3564  0.0107
 1294W        W16911  18.208  12.213  11.795 -0.3581  0.0832 -0.1487
 1295W        W16912  16.902   1.007  15.796 -0.0254 -0.1909  0.0481
 1296W        W16913  11.080   6.337  11.231  0.1084 -0.1993  0.0738
 1297W        W16914   1.475  17.326   9.863  0.1864  0.0988 -0.1608
 1298W        W16915  12.439  10.953   1.632  0.0617 -0.2717  0.0486
 1299W        W16916  16.265  12.395  13.024 -0.3782 -0.0064  0.3539
 1300W        W16917   3.576   9.920  14.550 -0.3415 -0.0871 -0.1026
 1301W        W16918  10.764  11.053   4.082  0.3090 -0.3604  0.0523
 1302W        W16919  17.790   0.422  14.850 -0.1932 -0.0914 -0.3780
 1303W        W16920   6.744  10.247   5.098 -0.0464  0.1411  0.1229
 1304W        W16921   0.913   4.981  14.637 -0.2623 -0.3832  0.0704
 1305W        W16922   0.175  16.433   2.942 -0.1794  0.3335 -0.2432
 1306W        W16923  10.455   2.073   1.752 -0.0261  0.3927  0.4322
 1307W        W16924   9.239  14.343  13.187 -0.4406  0.0234 -0.0532
 1308W        W16925   9.075  16.760  13.603  0.0859  0.3662 -0.2243
 1309W        W16926   9.065  18.070  11.919 -0.3080  0.0637 -0.0738
 1310W        W16927  17.403   5.586   0.733  0.1088  0.2001  0.5212
 1311W        W16928  17.546  12.745  14.247  0.2188  0.2048 -0.0301
 1312W        W16929  18.650  15.782  10.905 -0.0270 -0.2592 -0.0497
 1313W        W16930  16.973   6.244   2.499  0.1381 -0.3031  0.4855
 1314W        W16931   1.839  14.991  13.005  0.1339  0.1068  0.0004
 1315W        W16932   2.234  11.322  15.084 -0.0379 -0.0428 -0.0038
 1316W        W16933  13.760   3.823   2.858  0.2384 -0.3215  0.0692
 1317W        W16934   4.736   4.786  12.676  0.0380  0.0460 -0.0111
 1318W        W16935   6.195  11.318  12.716  0.0585  0.0863 -0.0502
 1319W        W16936  10.588   5.239   2.524 -0.0863 -0.1606  0.0027
 1320W        W16937   5.144  17.503  10.853  0.0205 -0.1698  0.0040
 1321W        W16938   5.423   8.203   2.133  0.2991  0.1333 -0.1864
 1322W        W16939   9.054   5.151   2.592 -0.0925 -0.0424  0.3101
 1323W        W16940   5.127   7.113  11.616  0.0927 -0.3085  0.0040
 1324W        W16941   4.880  12.798  14.428  0.3989  0.1950  0.0056
 1325W        W16942   5.570   5.885  13.170  0.0034  0.0087 -0.3254
 1326W        W16943   2.046   8.584   2.099 -0.4168  0.1214 -0.0409
 1327W        W16944  11.961  11.354   0.663 -0.1923  0.0506  0.2660
 1328W        W16945  12.102  12.169   0.263  0.0547  0.2949 -0.1004
 1329W        W16946   2.583  16.825   2.381 -0.1807  0.1063  0.0317
 1330W        W16947   0.369  14.248   3.118  0.1477  0.0809  0.1279
 1331W        W16948   2.190  12.779   3.451  0.1752 -0.0840 -0.1837
 1332W        W16949   9.614  14.412   3.209 -0.0807 -0.1909  0.2708
 1333W        W16950   3.045   3.104   5.411  0.3566 -0.0784 -0.1782
 1334W        W16951  10.864  15.811   1.167 -0.1522 -0.0738  0.0820
 1335W        W16952   6.844   5.569   4.527  0.1536  0.3025 -0.0031
 1336W        W16953   9.741   4.194   0.237  0.1450  0.1243  0.1829
 1337W        W16954   4.713  13.744   9.750 -0.0615 -0.0261 -0.0516
 1338W        W16955  14.049   2.954   1.341  0.0197 -0.0388  0.0140
 1339W        W16956   6.853  18.548   4.672  0.2506 -0.1680 -0.2206
 1340W        W16957   5.716  11.747  11.306  0.2203 -0.1868 -0.1701
 1341W        W16958   0.874   8.046   2.470  0.1088 -0.1996 -0.2230
 1342W        W16959  11.682   7.628   2.749 -0.2717 -0.2058  0.3711
 1343W        W16960   0.892  11.808   3.579  0.1711  0.2454  0.0795
 1344W        W16961  13.803   8.822   0.964  0.0361  0.0466 -0.3948
 1345W        W16962   6.627  18.016   1.484 -0.2429 -0.1587  0.1202
 1346W        W16963  16.575   1.734  13.071  0.4401 -0.0993  0.1356
 1347W        W16964   5.603  16.114   4.202  0.1512 -0.0564 -0.1674
 1348W        W16965   0.852   1.568   2.860  0.0253 -0.0973  0.0022
 1349W        W16966   2.769   1.730   4.373  0.0933 -0.0401 -0.2878
 1350W        W16967  12.498   2.207   5.278 -0.1387 -0.1422 -0.1447
 1351W        W16968  10.150  17.526   5.980  0.0656  0.0065 -0.3395
 1352W        W16969   7.189   2.336  11.969 -0.3491  0.0970  0.3312
 1353W        W16970  16.006   0.510   4.995 -0.1104  0.0461  0.1411
 1354W        W16971   4.942   9.993   5.332 -0.3337  0.0020  0.1131
 1355W        W16972   4.439  14.038   2.095  0.2496 -0.1610  0.0663
 1356W        W16973   5.878   4.701   3.724  0.1650  0.2656 -0.0155
 1357W        W16974   9.612   6.934   0.580  0.0561  0.0142 -0.1734
 1358W        W16975  14.364  13.241   4.105  0.4034  0.0929 -0.1109
 1359W        W16976   1.858  17.314   2.414 -0.1102  0.1432 -0.1885
 1360W        W16977  12.245   9.176   5.045 -0.0114  0.1443 -0.0799
 1361W        W16978  11.250  12.054   1.667  0.3916 -0.3989 -0.1676
 1362W        W16979   9.490   1.526   5.191 -0.1670  0.3286 -0.1225
 1363W        W16980   8.955   5.850  13.273 -0.2548  0.0677 -0.1526
 1364W        W16981  12.697  10.834   0.890  0.2458 -0.1826  0.0622
 1365W        W16982   4.438   6.197   3.295  0.3014  0.1311 -0.4213
 1366W        W16983   5.862  13.759  11.942  0.1801 -0.1181  0.3655
 1367W        W16984   6.713   5.941  15.539 -0.2109 -0.1383 -0.3048
 1368W        W16985   2.135  14.733   1.623 -0.2025  0.0321 -0.0076
 1369W        W16986   5.137   9.406   3.737  0.0473 -0.1662 -0.0451
 1370W        W16987  18.209  11.394  11.534 -0.0100 -0.1182  0.2576
 1371W        W16988   3.044   2.086  13.055 -0.0643  0.2007  0.0960
 1372W        W16989  13.273   2.788   0.900  0.1268  0.0479  0.1066
 1373W        W16990  10.793   3.657  14.595  0.0507  0.0651 -0.0937
 1374W        W16991  17.460  16.842  11.501 -0.0985 -0.0954 -0.1210
 1375W        W16992  17.627   7.850  10.789 -0.0600 -0.1609  0.0255
 1376W        W16993  14.018   8.122  12.917  0.1727  0.1391  0.2545
 1377W        W16994   6.894  12.918   4.579 -0.1849  0.1060 -0.0465
 1378W        W16995   1.706   7.930   3.393 -0.1122 -0.0547 -0.1076
 1379W        W16996  10.149  10.456   4.166 -0.2036  0.0585 -0.1277
 1380W        W16997   5.319   6.297  14.335  0.3486  0.0425 -0.1551
 1381W        W16998   6.656   2.155   5.049  0.1716 -0.2021 -0.1213
 1382W        W16999   4.013  12.289  11.481 -0.2842 -0.2268 -0.0984
 1383W        W17000  17.453   7.094   3.480 -0.1385  0.3788 -0.1211
 1384W        W17001   7.501  14.325   9.175  0.1477 -0.1745  0.1515
 1385W        W17002  17.940  17.130   1.614 -0.0368 -0.0023  0.0001
 1386W        W17003   4.715   8.064  11.952  0.2301  0.1835 -0.2166
 1387W        W17004   4.597   4.512   2.234  0.0223  0.1554  0.2383
 1388W        W17005   9.043  13.347   4.173  0.0616  0.0055 -0.0702
 1389W        W17006   6.788   9.168  14.440  0.2904  0.0584 -0.1976
 1390W        W17007  10.014   2.884   5.195 -0.3456 -0.0079 -0.2586
 1391W        W17008   8.772   2.151   2.308 -0.0698 -0.1745 -0.1486
 1392W        W17009  11.586  17.828  15.069  0.0302 -0.0247 -0.0415
 1393W        W17010  12.340   4.111   5.772 -0.0164  0.0509  0.2727
 1394W        W17011  12.035   7.963   1.907  0.1178 -0.0135  0.0994
 1395W        W17012  16.720   7.709  11.219  0.1505 -0.2380 -0.2082
 1396W        W17013  16.498  15.267   2.343  0.0419 -0.2787  0.1423
 1397W        W17014   6.171   1.441  11.494  0.0519 -0.1496  0.1280
 1398W        W17015  13.422   3.280  14.978  0.2696 -0.0157 -0.0776
 1399W        W17016   7.639   2.260   1.231 -0.0939  0.0534 -0.0090
 1400W        W17017   9.581  18.636  13.183 -0.1087  0.3098  0.0301
 1401W        W17018   6.812   5.561   2.209 -0.0256  0.0778  0.1372
 1402W        W17019  10.436   7.257   6.277  0.4459 -0.0150  0.2152
 1403W        W17020  12.559   1.310  12.091 -0.1110  0.1438  0.3657
 1404W        W17021  11.894  12.207   4.169  0.1950  0.0212 -0.1303
 1405W        W17022   4.246  16.209  12.899 -0.0049 -0.1534  0.0242
 1406W        W17023   4.371   5.613  15.103  0.0308  0.1475  0.1510
 1407W        W17024   0.007  15.153  13.168  0.2837  0.2969  0.1315
 1408W        W17025   8.463   7.588   4.223  0.0701  0.0200  0.0084
 1409W        W17026   8.028  15.783   6.018 -0.2543  0.0492  0.2111
 1410W        W17027  16.892  14.719  11.566  0.0206 -0.0233 -0.0274
 1411W        W17028  10.529  15.884  14.549 -0.0639 -0.0102 -0.0686
 1412W        W17029   8.633   5.325  15.519  0.0147 -0.3419  0.2961
 1413W        W17030   6.496  14.761   0.828  0.0199  0.3951  0.0184
 1414W        W17031   3.712   0.664   0.603  0.2964 -0.0231  0.3122
 1415W        W17032   1.915   4.414  11.681 -0.0575  0.0881  0.2268
 1416W        W17033  16.882   4.134  11.897  0.1018 -0.3932  0.0568
 1417W        W17034  15.700  10.544  15.496 -0.2705 -0.1953  0.2762
 1418W        W17035  10.195   2.488  13.868  0.1813  0.1799 -0.0109
 1419W        W17036   8.036  13.973   0.903 -0.1034 -0.2575 -0.1378
 1420W        W17037   0.003  11.487  15.124  0.0614  0.4190 -0.0153
 1421W        W17038   4.032   5.720  12.279  0.0337 -0.1155 -0.0625
 1422W        W17039  17.420   6.193   1.756  0.1511 -0.1675 -0.1313
 1423W        W17040   1.646  13.531  13.992 -0.4268 -0.1334  0.0398
 1424W        W17041   5.466  16.425  14.735  0.0190  0.1157 -0.1109
 1425W        W17042   3.801  10.117  13.354 -0.0774 -0.1891  0.0377
 1426W        W17043   3.514  12.099   4.995  0.0857  0.0524  0.0551
 1427W        W17044   9.509   7.480  15.737  0.2942 -0.0377  0.1250
 1428W        W17045  11.972   0.862  14.390  0.1125  0.0446 -0.0164
 1429W        W17046  11.937  11.884   2.423 -0.0704  0.1444  0.2813
 1430W        W17047  13.422  15.124  14.521 -0.0298 -0.0881 -0.1404
 1431W        W17048   1.645  17.685  13.830 -0.1165  0.0429 -0.0427
 1432W        W17049   7.016  13.767  12.045  0.1490  0.4821 -0.0284
 1433W        W17050  14.127  18.645  15.674  0.2991 -0.1453  0.1567
 1434W        W17051  12.662   3.993   1.182 -0.0677 -0.2633 -0.4111
 1435W        W17052   8.930  10.818  14.525  0.0294 -0.0841 -0.2069
 1436W        W17053   9.994   6.723  11.960  0.0853 -0.2415  0.0158
 1437W        W17054  13.694   9.647   5.193  0.1837 -0.2049 -0.2701
 1438W        W17055  13.823  16.691   4.236  0.2663 -0.1397 -0.0735
 1439W        W17056  16.354  10.863   2.456 -0.3713  0.0541  0.5490
 1440W        W17057  16.310  13.592  14.813 -0.0707  0.3287  0.0646
 1441W        W17058  16.101  17.096   2.858  0.0850 -0.2372 -0.1711
 1442W        W17059  10.772   5.964   4.759  0.1079  0.1499 -0.4407
 1443W        W17060   2.589  17.470   0.503  0.0822  0.0351 -0.3974
 1444W        W17061   4.983  12.818  11.806  0.1853  0.1861 -0.2693
 1445W        W17062   1.098  15.066   2.147 -0.1247 -0.0211 -0.3721
 1446W        W17063   2.647   5.875   1.830  0.1133 -0.2406 -0.0605
 1447W        W17064  18.447   2.929  13.012  0.1873 -0.1461  0.4011
 1448W        W17065   0.040  17.880  12.431  0.2112 -0.0916  0.0105
 1449W        W17066   2.003   0.138  13.220 -0.1082  0.1412  0.1963
 1450W        W17067   3.216  13.712  15.380 -0.0734 -0.2072  0.2576
 1451W        W17068  15.315   2.950   2.564 -0.1163 -0.0108  0.0067
 1452W        W17069   3.697  10.286  14.837 -0.1106 -0.3687  0.1452
 1453W        W17070   1.364  15.963   0.287  0.1448  0.0916  0.3037
 1454W        W17071   5.242   5.158  15.142 -0.0738 -0.0220 -0.2184
 1455W        W17072  13.701  16.929   6.001  0.1720 -0.2227  0.1729
 1456W        W17073   9.544   3.196  14.022  0.0228 -0.0832 -0.1643
 1457W        W17074   7.977   6.521  15.579 -0.1105  0.0654 -0.3520
 1458W        W17075  16.179  15.046   4.094  0.1016 -0.0611  0.1369
 1459W        W17076  16.920  16.738  15.059  0.1284  0.4395 -0.3135
 1460W        W17077   1.887  17.397  11.201 -0.4949  0.0206 -0.3526
 1461W        W17078  13.929   9.354   4.365  0.1812 -0.0634 -0.0288
 1462W        W17079  12.855   2.667  12.982  0.0931 -0.2367  0.2774
 1463W        W17080   1.365  13.928   4.836 -0.1463 -0.0436 -0.2777
 1464W        W17081  12.570  12.713   3.734 -0.1572  0.0780  0.1269
 1465W        W17082  16.167   8.624   9.464 -0.2234 -0.0534  0.2725
 1466W        W17083   9.692  17.970  14.807 -0.0513 -0.2372 -0.0174
 1467W        W17084   1.392  13.561   1.142 -0.0433  0.2237 -0.3730
 1468W        W17085  12.880   9.079  15.026  0.1299 -0.3414 -0.1960
 1469W        W17086   4.538   9.245   3.491  0.2928 -0.1461  0.0311
 1470W        W17087  16.987   3.277   2.157 -0.1238 -0.0371  0.3031
 1471W        W17088   6.497   1.454  15.680  0.1039  0.0449  0.2782
 1472W        W17089   6.140   3.382   3.420 -0.1336 -0.0076 -0.0778
 1473W        W17090   2.837  18.297   5.809  0.2242 -0.0062  0.1449
 1474W        W17091  17.526   3.065   2.897 -0.3183  0.0869  0.0652
 1475W        W17092  13.494   4.320   1.824  0.1336 -0.0609 -0.5087
 1476W        W17093  14.622  14.659  13.526 -0.1152 -0.0073  0.3311
 1477W        W17094   7.002   6.392  14.392  0.2456  0.2497  0.0183
 1478W        W17095   0.654   2.762   0.846  0.2804 -0.0906 -0.2072
 1479W        W17096   0.641   8.825   0.502  0.0147  0.0012 -0.0471
 1480W        W17097  12.736  14.242  10.957  0.2968  0.1573 -0.1771
 1481W        W17098  12.009   4.081   2.001  0.1142  0.0543 -0.0414
 1482W        W17099   7.239  12.266  13.284  0.1378  0.0862 -0.0544
 1483W        W17100  16.774   7.123  12.184  0.0893 -0.3238  0.3564
 1484W        W17101  18.163   5.345  15.170  0.0698 -0.0681  0.1165
 1485W        W17102  12.110  14.091  14.450 -0.0467  0.2710  0.2524
 1486W        W17103   5.267  16.961   0.351  0.0919  0.3149 -0.1756
 1487W        W17104  18.201   4.144   3.300  0.1446 -0.1355  0.2309
 1488W        W17105   0.271  12.834   1.698 -0.1991  0.0552 -0.0569
 1489W        W17106  11.814   1.630  14.034 -0.0845 -0.0395  0.1626
 1490W        W17107   7.099  15.927  14.631 -0.0828 -0.0873  0.0150
 1491W        W17108   7.974   8.250  12.458 -0.1372  0.2789  0.2974
 1492W        W17109   3.499   5.884   1.542  0.0106 -0.2468  0.1454
 1493W        W17110  16.849  16.013   3.647  0.0074 -0.1749  0.1927
 1494W        W17111  13.823   6.305   2.697  0.0836  0.0304 -0.2076
 1495W        W17112   1.099   5.327   3.229  0.0683 -0.0422 -0.0937
 1496W        W17113   0.493  11.227  12.913 -0.1695  0.0978  0.0006
 1497W        W17114   9.602   3.707   2.791  0.0574  0.0411  0.0822
 1498W        W17115   8.627  12.826   0.824  0.2118  0.1560 -0.0208
 1499W        W17116   9.333  10.872  13.514 -0.2003 -0.1569 -0.0387
 1500W        W17117  15.203   8.722   3.964 -0.1387  0.2751 -0.0058
 1501W        W17118  13.024   6.075   2.548  0.1868  0.0988 -0.0630
 1502W        W17119   2.961   8.161  11.687 -0.0215 -0.2112  0.0491
 1503W        W17120   0.612   6.717   1.906  0.3512  0.3048 -0.0465
 1504W        W17121   6.374   9.350  14.727  0.2577  0.1146  0.0451
 1505W        W17122   6.554  15.646   3.268 -0.1153  0.0723  0.1228
 1506W        W17123  16.324  15.605  14.629  0.0792 -0.0767  0.1084
 1507W        W17124  14.141  10.827  13.607 -0.0651 -0.2821  0.1420
 1508W        W17125   3.830   7.147   3.272  0.1259  0.2223  0.2496
 1509W        W17126   8.666  18.450  15.362  0.1364  0.1936  0.1041
 1510W        W17127  18.521  10.677  12.001 -0.1705  0.0140 -0.1359
 1511W        W17128   4.972  16.248  11.869  0.0074 -0.0295 -0.1076
 1512W        W17129   0.295  13.972  15.263 -0.0075  0.2672  0.0986
 1513W        W17130  10.549   4.310   1.844  0.2711  0.1735  0.0454
 1514W        W17131  13.426  14.694  13.991  0.0902 -0.1610  0.1676
 1515W        W17132   1.839   4.095   5.344  0.1217  0.0438  0.0603
 1516W        W17133  13.480   4.252   1.256 -0.0226  0.1224 -0.1259
 1517W        W17134  15.814  18.229   4.646 -0.2294 -0.2305 -0.0387
 1518W        W17135  10.114   7.365  15.799  0.1716 -0.0011 -0.1134
 1519W        W17136  14.804  13.901  15.376  0.0677  0.0350  0.0105
 1520W        W17137   0.128   9.533  12.524  0.2325  0.2266 -0.1661
 1521W        W17138   7.340  12.343  15.742  0.1371 -0.2177  0.0686
 1522W        W17139  11.572  14.801  15.488 -0.1559  0.1940  0.3188
 1523W        W17140   3.921  13.737   1.270 -0.2179  0.2157  0.3490
 1524W        W17141  12.994  14.980  11.603  0.0879  0.0560  0.2812
 1525W        W17142  11.766  16.388  15.165 -0.1013  0.1280  0.1164
 1526W        W17143   5.200   2.338   4.668 -0.0703  0.0662  0.0771
 1527W        W17144   6.422   2.093   1.173  0.3416  0.0964  0.1356
 1528W        W17145  10.543  15.465  12.376 -0.3381  0.2339 -0.0685
 1529W        W17146   7.984   6.983  11.365 -0.1011  0.0860  0.0497
 1530W        W17147   9.200   0.990  14.689  0.0259 -0.1354  0.0109
 1531W        W17148   2.425   9.756   1.996  0.1993  0.2823 -0.0050
 1532W        W17149   6.331   0.303   0.536  0.0745  0.1688  0.3468
 1533W        W17150  12.565   8.808  14.729  0.3246 -0.0289  0.0668
 1534W        W17151  13.713   4.950   5.421 -0.2308 -0.1769 -0.0200
 1535W        W17152   3.865   4.364   2.724 -0.1651 -0.2768 -0.1974
 1536W        W17153  14.498  10.443  14.112  0.0358 -0.0004  0.1120
 1537W        W17154  13.585  12.607  13.017 -0.0579  0.0796 -0.1244
 1538W        W17155   8.127   7.098   2.955 -0.0550 -0.1152  0.0529
 1539W        W17156  13.799  17.132  12.892  0.0821 -0.2899  0.0329
 1540W        W17157  13.384  18.578   1.764  0.2777  0.0609 -0.0992
 1541W        W17158   9.508   1.626  12.446 -0.0474  0.1389  0.0678
 1542W        W17159  17.151  11.433   2.474 -0.2328 -0.3567 -0.0368
 1543W        W17160  18.309   7.000  15.298  0.0324  0.3194 -0.0054
 1544W        W17161  13.013  13.912   4.152 -0.1093 -0.0809 -0.1815
 1545W        W17162  15.048  15.199   3.326 -0.0751  0.0661 -0.2225
 1546W        W17163  17.957   4.141  13.258 -0.1905  0.2077  0.1123
 1547W        W17164  15.217   6.774   4.203 -0.1900 -0.0950 -0.1453
 1548W        W17165   8.605  16.438   2.855  0.2533 -0.1735  0.1875
 1549W        W17166   0.812  17.315  11.820  0.1416  0.1324  0.0492
 1550W        W17167   2.538  12.191  12.012 -0.1279 -0.0123 -0.0472
 1551W        W17168   8.813  17.574  14.644 -0.0632  0.0467 -0.2007
 1552W        W17169  17.979   5.655  12.344  0.0512  0.5903  0.1018
 1553W        W17170   2.436   6.098  11.442  0.2185  0.0432 -0.2398
 1554W        W17171   1.418   7.730  13.939 -0.0811 -0.1469  0.2068
 1555W        W17172  10.635  14.395  11.455  0.0613  0.2894 -0.0367
 1556W        W17173  13.891  18.273   3.688 -0.0426 -0.1392 -0.0402
 1557W        W17174   0.236   2.550  12.771 -0.3454  0.1366 -0.2418
 1558W        W17175  14.608  10.676  14.606  0.0993 -0.0001  0.2805
 1559W        W17176   3.495  12.697  10.829  0.0240  0.0998  0.0154
 1560W        W17177  12.860  15.549   5.032 -0.1263 -0.2784 -0.3816
 1561W        W17178   1.108   3.517   1.156 -0.0280  0.1308 -0.0713
 1562W        W17179   9.398  11.077  12.476  0.0267  0.0013 -0.1617
 1563W        W17180  17.435  14.515   0.879 -0.0258  0.0593 -0.0992
 1564W        W17181   7.607  18.607   2.547  0.0465  0.0650 -0.1130
 1565W        W17182   5.848   8.149   0.129 -0.2442  0.0532 -0.0936
 1566W        W17183   0.682  14.532   2.822  0.0061 -0.1821  0.1552
 1567W        W17184  11.704   4.308  14.072  0.1201  0.1250  0.0038
 1568W        W17185   8.511  13.927  10.768  0.0467 -0.0406  0.0877
 1569W        W17186   5.065   3.477  11.345  0.3711  0.2297  0.1927
 1570W        W17187  11.643   7.280   5.467  0.1511  0.1495  0.1876
 1571W        W17188  17.939  12.376   5.179  0.2147  0.1536 -0.2157
 1572W        W17189   4.470   4.089  10.838 -0.2320  0.4259 -0.2299
 1573W        W17190   2.538  13.173  14.758  0.0400 -0.0378 -0.0382
 1574W        W17191   3.317   8.195   0.558  0.1437 -0.0091 -0.0951
 1575W        W17192   7.754   8.024  11.387 -0.3021  0.1698 -0.0411
 1576W        W17193   0.078  11.793   4.696  0.3396  0.0539  0.5003
 1577W        W17194   8.789  18.425  12.202  0.1008  0.3468 -0.2123
 1578W        W17195  12.305   5.422   0.186  0.0798  0.0037  0.2693
 1579W        W17196   8.056   0.758  15.601  0.2386  0.0473  0.0664
 1580W        W17197  13.136  16.190   0.751 -0.0130 -0.0303  0.3050
 1581W        W17198   6.280  13.270   2.267  0.1498  0.2067  0.1350
 1582W        W17199   0.941   9.887   0.597  0.2786  0.0094 -0.0357
 1583W        W17200   1.561  14.197   1.165 -0.0846 -0.0887  0.0856
 1584W        W17201   9.557  11.507   3.321 -0.2014 -0.0849  0.0055
 1585W        W17202   1.523   0.802   0.964  0.1831  0.3832  0.1090
 1586W        W17203   4.473   6.019  10.877  0.2408  0.1199  0.0566
 1587W        W17204  11.653   9.908   1.563  0.1416 -0.1356 -0.0806
 1588W        W17205  12.977   0.547   5.684 -0.0056 -0.0393 -0.0915
 1589W        W17206   3.277  11.740   2.221 -0.0636 -0.1345  0.0815
 1590W        W17207   8.310  13.522   4.708  0.0623  0.1403  0.0152
 1591W        W17208   8.393   9.934  13.351 -0.1386  0.0418  0.0533
 1592W        W17209   0.544   9.659   4.828 -0.2028  0.4218 -0.2289
 1593W        W17210   1.470  10.203   1.201  0.0697  0.2748  0.0254
 1594W        W17211  15.851   4.954  12.269 -0.2133 -0.3216 -0.0889
 1595W        W17212  18.620  10.709  10.988 -0.0871 -0.2106 -0.3649
 1596W        W17213   3.294  13.202   4.063  0.0408 -0.0292 -0.4356
 1597W        W17214  13.311   9.235   1.705  0.2558 -0.2134  0.2601
 1598W        W17215   9.868   7.971   0.604 -0.3356  0.0463  0.0641
 1599W        W17216   0.359   9.328  12.013  0.1572  0.1314  0.2100
 1600W        W17217  12.791   1.297   1.239  0.2785  0.1203 -0.0780
 1601W        W17218  11.892  12.911  14.852  0.0229 -0.0265 -0.1741
 1602W        W17219  13.208  10.449  15.642  0.1264  0.1129  0.0821
 1603W        W17220   9.633  15.618  11.534 -0.1008  0.3410  0.0454
 1604W        W17221  15.779  12.495  13.616 -0.0228  0.1973 -0.0899
 1605W        W17222   1.030   3.841  15.050  0.2124 -0.1381  0.1100
 1606W        W17223  10.815   8.470   0.989  0.2213  0.0566 -0.0476
 1607W        W17224  15.151   4.791   5.386  0.2341  0.0676  0.1612
 1608W        W17225  18.279  18.156  14.320 -0.2688  0.0742 -0.1354
 1609W        W17226   9.885  11.652  10.399 -0.1017  0.0668 -0.0641
 1610W        W17227   0.716   1.269   1.007 -0.2743  0.3082 -0.1047
 1611W        W17228   4.495  10.719   0.128 -0.0373  0.2577 -0.0835
 1612W        W17229  10.174  11.183  12.785 -0.2650  0.0496 -0.3516
 1613W        W17230  17.393   9.312  11.252 -0.2473 -0.0122 -0.2474
 1614W        W17231   2.129   3.764  14.939  0.2567 -0.2422  0.3981
 1615W        W17232   0.581   2.542  11.746 -0.2057 -0.1848  0.0344
 1616W        W17233   9.852  17.531   0.274 -0.0388  0.0281 -0.0475
 1617W        W17234   0.515   3.659   1.456 -0.0264 -0.2118 -0.3361
 1618W        W17235  16.966   6.634  13.138 -0.1355 -0.0291 -0.3737
 1619W        W17236   0.912   7.610  13.944  0.1567 -0.1033  0.0310
 1620W        W17237   1.812   4.800   1.430 -0.0870  0.0968 -0.0769
 1621W        W17238  12.518  12.385   3.341 -0.0390 -0.0832  0.1275
 1622W        W17239   9.669   4.153  13.984  0.1077 -0.2421  0.3073
 1623W        W17240   3.640  13.817   3.165 -0.0050 -0.3496 -0.0278
 1624W        W17241  16.540  10.660  12.215  0.3669  0.2381  0.2945
 1625W        W17242  10.231   2.193  11.172 -0.1833 -0.0892  0.1049
 1626W        W17243  14.344   9.396   3.380 -0.1993  0.2551  0.0415
 1627W        W17244  18.593   0.338  14.524 -0.1437 -0.1250  0.0375
 1628W        W17245  12.324   3.321   4.317  0.1890 -0.2271 -0.0507
 1629W        W17246  12.351  11.338   4.107 -0.2065 -0.2865  0.1760
 1630W        W17247   4.663   7.661   2.044  0.0613  0.4219  0.2510
 1631W        W17248  18.107   7.147   1.490 -0.0244  0.1984  0.1030
 1632W        W17249   2.773   5.915  15.770 -0.0974 -0.2753  0.0544
 1633W        W17250  17.305  12.814  15.137 -0.0955  0.1919 -0.0681
 1634W        W17251   8.229   7.448  11.921  0.1324 -0.3987 -0.2948
 1635W        W17252  14.746  15.072   3.818  0.5504  0.2531  0.0691
 1636W        W17253  13.907   6.693   3.899 -0.1320  0.1204 -0.0894
 1637W        W17254   0.963  16.301   4.922  0.3358  0.0904 -0.0212
 1638W        W17255   9.859   9.276  15.714 -0.2077 -0.1851  0.1914
 1639W        W17256   2.987  15.477   4.263  0.0046 -0.2426  0.0302
 1640W        W17257   7.962   7.579   6.014 -0.4623 -0.2974 -0.3105
 1641W        W17258   5.710   8.344  14.049 -0.0401 -0.1213 -0.5403
 1642W        W17259   5.747   4.041   2.844  0.0555 -0.2110 -0.2080
 1643W        W17260  17.589   4.325   3.329  0.1388 -0.2091  0.0940
 1644W        W17261  11.373  18.573   1.236 -0.2054 -0.0528  0.1945
 1645W        W17262   8.655  10.483  10.730  0.1279  0.0847  0.1624
 1646W        W17263   5.382  12.931   4.246 -0.1901 -0.1489  0.0134
 1647W        W17264  15.904  14.734   3.861 -0.4669  0.0114 -0.0550
 1648W        W17265   5.416  14.941  12.662 -0.0553  0.0620  0.2154
 1649W        W17266   3.248  13.991   0.348  0.0680  0.2294 -0.2089
 1650W        W17267  10.514   1.600  15.706 -0.0405 -0.4172  0.2609
 1651W        W17268  15.418  12.473  13.236  0.2779  0.1359  0.0652
 1652W        W17269   0.258   6.613   1.549  0.1951 -0.1847 -0.2183
 1653W        W17270  16.182  10.678  15.494  0.1357 -0.0278  0.0811
 1654W        W17271  16.913  11.663  11.275 -0.0284  0.2921 -0.0628
 1655W        W17272  17.991  14.025  11.634 -0.1736  0.1151 -0.1559
 1656W        W17273   9.258   4.866  15.230  0.0838  0.4454 -0.1478
 1657W        W17274   0.114  18.586  14.701 -0.0719 -0.1157  0.0565
 1658W        W17275   2.300   1.101   5.058  0.3025 -0.1248  0.0230
 1659W        W17276   0.506  10.590  13.606  0.0868  0.0405 -0.2062
 1660W        W17277  10.980  10.777  10.703  0.2484 -0.0214 -0.2942
 1661W        W17278   7.898   6.479  13.393  0.0082 -0.1299 -0.0143
 1662W        W17279   8.157   0.690   0.358  0.0530 -0.0813  0.2518
 1663W        W17280   1.987   9.086   0.427 -0.2225  0.2799  0.2750
 1664W        W17281   9.257   1.212  14.185 -0.0965  0.0150 -0.0804
 1665W        W17282   3.111   3.979   5.778  0.2552 -0.2702 -0.1862
 1666W        W17283   5.255  14.473  14.034  0.1868  0.1649  0.2371
 1667W        W17284   3.131  10.953   2.041 -0.1876 -0.0365  0.0976
 1668W        W17285   3.048  16.931   1.019 -0.4942  0.2570 -0.1403
 1669W        W17286  14.441  17.776   1.278  0.3259 -0.2821  0.2030
 1670W        W17287  12.714  13.299   0.671  0.0305 -0.0295  0.1198
 1671W        W17288  15.058  16.985  14.475 -0.1405 -0.1559 -0.1268
 1672W        W17289  18.289  17.041  14.547  0.1115 -0.0176 -0.1522
 1673W        W17290   9.648  12.016   4.405  0.0283  0.1346 -0.3298
 1674W        W17291  12.333   7.408  12.264  0.0323 -0.0439 -0.1329
 1675W        W17292   2.985  16.686  15.179  0.4258  0.2413 -0.2090
 1676W        W17293   7.633   1.471   1.688 -0.2009  0.1148  0.0427
 1677W        W17294   3.260  10.704   2.555 -0.0026 -0.1140 -0.2642
 1678W        W17295   4.313   1.740  12.370 -0.1867 -0.2859  0.1377
 1679W        W17296   7.595  15.404  14.330 -0.0191  0.0947 -0.1515
 1680W        W17297  13.521  15.936  11.700  0.1217 -0.3292 -0.0962
 1681W        W17298   3.533   2.411  12.982 -0.1024 -0.0807  0.1606
 1682W        W17299   3.606   2.860   1.178  0.1861  0.0094  0.0723
 1683W        W17300  10.905  12.101   5.651 -0.0470 -0.0646 -0.0361
 1684W        W17301   4.839  18.511   2.412  0.0177  0.2378  0.0333
 1685W        W17302  16.068   9.493  13.448 -0.2703 -0.0007  0.1577
 1686W        W17303  16.506   0.262   1.185 -0.2133  0.0146 -0.0572
 1687W        W17304   8.722   2.562   4.831 -0.1493  0.1591  0.1352
 1688W        W17305   8.021   9.630   4.914 -0.1816  0.2226 -0.1569
 1689W        W17306  14.661   8.763   1.378 -0.0589 -0.1023  0.1101
 1690W        W17307   6.402   2.596   5.016 -0.0107 -0.2071  0.1294
 1691W        W17308   5.675   0.038  11.034  0.3264 -0.2607 -0.0878
 1692W        W17309  13.230  16.649  12.411  0.0897 -0.0804  0.1269
 1693W        W17310   4.332   0.805  12.839  0.2848  0.0776  0.5150
 1694W        W17311  13.225  16.541   3.435  0.4370  0.1065 -0.1084
 1695W        W17312  12.406  14.551   4.322 -0.2116 -0.1654 -0.1588
 1696W        W17313   9.883  13.299   2.058  0.2121  0.1469 -0.3124
 1697W        W17314   8.667  13.744   5.095 -0.1456 -0.1729  0.2226
 1698W        W17315   4.180  14.343   0.133  0.2619  0.0296 -0.0047
 1699W        W17316   7.848   3.197   9.821  0.1172 -0.1138 -0.1213
 1700W        W17317   8.007   6.678   2.631  0.1274 -0.0884  0.5049
 1701W        W17318  12.010   3.044  15.155 -0.2531  0.0119  0.2853
 1702W        W17319  17.571  17.615   5.425 -0.0165 -0.3569 -0.1479
 1703W        W17320  10.837  14.392  14.158 -0.4833  0.0737  0.0335
 1704W        W17321  18.258   9.741   4.798 -0.0266  0.1708  0.1578
 1705W        W17322   3.044   7.066   4.664 -0.2626 -0.1949  0.0093
 1706W        W17323   6.091   2.876  10.631  0.0469 -0.0942 -0.0074
 1707W        W17324  13.765   8.601  12.168 -0.1819 -0.2423 -0.1392
 1708W        W17325   4.329   5.981   2.390 -0.2066  0.0557  0.0013
 1709W        W17326   7.546  13.110   2.009 -0.2871  0.2365 -0.2135
 1710W        W17327   9.733  16.032  13.453 -0.2864  0.0568  0.0237
 1711W        W17328   7.749   5.273  13.463 -0.0242 -0.1461 -0.3472
 1712W        W17329  10.439   6.765  13.989 -0.0387 -0.0581  0.2912
 1713W        W17330   9.191   0.023  15.175 -0.2399 -0.0898 -0.0451
 1714W        W17331   9.184  14.982  10.382 -0.1875  0.2056 -0.1988
 1715W        W17332  18.038   9.231   3.490  0.1270 -0.0735  0.1481
 1716W        W17333  14.155   1.496   4.720 -0.3987 -0.3977  0.2135
 1717W        W17334  14.080   6.049  15.793 -0.1940  0.2199  0.2341
 1718W        W17335   8.478   0.086   3.441  0.0511  0.2282 -0.1050
 1719W        W17336   9.020   5.158  12.813  0.2995 -0.1570 -0.0071
 1720W        W17337  17.581  15.272  10.698  0.2969 -0.0287 -0.0243
 1721W        W17338   0.007   8.392   3.848  0.2991 -0.1720  0.0197
 1722W        W17339  13.764   0.570  12.563 -0.0031 -0.0800 -0.1024
 1723W        W17340  12.702   8.544  12.830  0.1254 -0.0419  0.0772
 1724W        W17341  12.312   4.397   3.133 -0.0801  0.1161  0.0422
 1725W        W17342  13.120   7.384  14.589 -0.0667 -0.2403 -0.0798
 1726W        W17343   5.170  14.112  12.664 -0.0131 -0.2499  0.1921
 1727W        W17344   6.524  14.508  14.565 -0.2071  0.0987  0.3434
 1728W        W17345  10.900   2.179  14.467 -0.1100  0.1626 -0.3966
 1729W        W17346   6.255  14.402   9.815  0.0796 -0.0290 -0.3148
 1730W        W17347   5.198   2.892   0.348 -0.1383  0.0424  0.1452
 1731W        W17348  16.704   2.950  14.017  0.0232  0.0513 -0.0050
 1732W        W17349  11.644  16.350   2.397 -0.1255 -0.0930  0.3545
 1733W        W17350  10.892   5.114  14.709  0.1853 -0.1160 -0.0482
 1734W        W17351   6.349   8.462   0.583 -0.3110  0.1377  0.0889
 1735W        W17352  16.908   2.362  13.906 -0.0203 -0.1732 -0.1941
 1736W        W17353   9.858  12.885  14.498  0.0591 -0.1170  0.0467
 1737W        W17354  10.452  15.656  15.026  0.0522  0.1151 -0.1992
 1738W        W17355  15.630   5.585   4.449 -0.2916  0.2603 -0.1621
 1739W        W17356   4.478  11.627  11.969  0.0869 -0.2331  0.0602
 1740W        W17357   5.562   0.159  14.835 -0.3769 -0.1580  0.1130
 1741W        W17358   3.644  15.684   2.695 -0.1730 -0.1349 -0.2392
 1742W        W17359  16.796   6.223   3.373  0.1146  0.3522 -0.0694
 1743W        W17360   6.906   4.209   4.578 -0.2200 -0.2560 -0.1464
 1744W        W17361  15.718  16.122  13.576  0.0728  0.0172  0.1355
 1745W        W17362   0.652   8.745  13.770 -0.3396  0.1811  0.0530
 1746W        W17363  11.838  11.433  13.890  0.1371 -0.0456 -0.1452
 1747W        W17364  10.934   1.926   3.126  0.0496 -0.1162  0.0245
 1748W        W17365  11.401   2.966   3.837  0.0327  0.1122  0.1126
 1749W        W17366   4.186  15.832  11.649 -0.0584 -0.1072 -0.0632
 1750W        W17367   9.144  18.347  14.753  0.4003 -0.2646  0.1507
 1751W        W17368   0.640   0.223   4.758 -0.2159  0.1631 -0.1788
 1752W        W17369  17.774  17.289  12.211 -0.3142 -0.2215  0.0011
 1753W        W17370   3.805  13.815   4.792  0.2062  0.0139 -0.1037
 1754W        W17371   1.809  18.405  14.936  0.4215 -0.1810 -0.2657
 1755W        W17372   0.465   4.258  12.866  0.0331  0.5033  0.1602
 1756W        W17373  14.946  11.682   2.813 -0.0558 -0.3677 -0.3096
 1757W        W17374   6.562   2.044   2.127  0.1150 -0.1159  0.0481
 1758W        W17375  14.157  12.441  12.340  0.0368  0.1350  0.0906
 1759W        W17376  16.463   3.597   0.731 -0.2012  0.2591 -0.2702
 1760W        W17377   8.292   3.015   1.094 -0.1628  0.0662 -0.0815
 1761W        W17378  14.235   2.114   4.660  0.3898 -0.0406 -0.3680
 1762W        W17379  14.045  12.695  13.361  0.0435 -0.1574 -0.5189
 1763W        W17380  17.297  14.665  15.032 -0.0233 -0.0972  0.0171
 1764W        W17381   4.606  16.648  13.005 -0.0225  0.2226 -0.1176
 1765W        W17382  18.125  10.812   3.064 -0.0587 -0.2724 -0.0914
 1766W        W17383  16.273  14.113  12.927  0.3692  0.0719 -0.1324
 1767W        W17384   5.792  13.080  12.515 -0.2349  0.2440 -0.0429
 1768W        W17385  15.508  13.476   4.694  0.1874  0.0367 -0.1844
 1769W        W17386  10.957  12.604  12.451 -0.0744 -0.2765  0.2660
 1770W        W17387   3.886  15.252   2.695 -0.2161  0.1274 -0.2257
 1771W        W17388  16.265  11.026  14.139  0.0288 -0.1767 -0.0866
 1772W        W17389  14.904   5.178   5.567 -0.0026 -0.0602  0.1336
 1773W        W17390  16.165   9.466  14.535 -0.1768  0.0017 -0.3580
 1774W        W17391  10.921   3.928   5.725 -0.0568 -0.1907 -0.0968
 1775W        W17392  18.184   1.657   5.691 -0.2134  0.1208  0.0730
 1776W        W17393  10.295   1.144  11.381 -0.1030  0.0340  0.1431
 1777W        W17394   3.799   4.911   2.921 -0.2743 -0.1293 -0.1577
 1778W        W17395  13.248  16.126   4.693 -0.2445  0.0440 -0.3151
 1779W        W17396  16.249  10.978  10.925 -0.0813 -0.0506  0.1473
 1780W        W17397  15.165   2.076  13.529  0.1309 -0.1944  0.3171
 1781W        W17398  13.950   3.821  11.498  0.0668  0.0334 -0.1336
 1782W        W17399   9.073   7.050  13.256  0.1451 -0.0835 -0.1763
 1783W        W17400   3.100  14.934  14.162  0.2572  0.3666  0.1727
 1784W        W17401   1.949   6.759  13.983 -0.0067 -0.0958 -0.1181
 1785W        W17402   1.771   5.859   0.205  0.0968  0.2107  0.1838
 1786W        W17403   5.915   2.727  13.695  0.1927  0.0233  0.1810
 1787W        W17404  14.766   7.689  13.012 -0.0467 -0.2707  0.8016
 1788W        W17405  13.066  10.706   1.852  0.1605  0.0408  0.1549
 1789W        W17406  11.577  10.975   0.500  0.0981 -0.3304 -0.1222
 1790W        W17407   0.284  11.909  15.040 -0.1280  0.1160  0.2874
 1791W        W17408  12.133   0.500   5.362 -0.4491 -0.1120  0.3300
 1792W        W17409  18.140   1.715   1.099 -0.2043 -0.0875 -0.1392
 1793W        W17410   0.924  18.158  12.524 -0.0741  0.1916 -0.1355
 1794W        W17411   1.278  13.733   3.786 -0.0708 -0.1195  0.1970
 1795W        W17412  12.598  13.698   0.020  0.2542 -0.0763 -0.0750
 1796W        W17413  13.850   1.405   2.918 -0.4991  0.0100  0.4800
 1797W        W17414   3.729   3.235   4.271 -0.1495 -0.0790  0.2480
 1798W        W17415   0.279  17.545  14.629  0.0513 -0.0125  0.3090
 1799W        W17416   7.526  16.719   2.329 -0.0448 -0.0501  0.0655
 1800W        W17417  16.649  13.013   3.734 -0.1093 -0.0338 -0.1217
 1801W        W17418   9.805  14.226  10.444  0.0745  0.0320 -0.4622
 1802W        W17419   7.199  16.995   3.112  0.2509  0.4148  0.1269
 1803W        W17420  16.368   7.521   2.650  0.0347  0.2008  0.1258
 1804W        W17421  12.590  15.509   3.756  0.0533 -0.0707  0.1290
 1805W        W17422  13.438   8.524   0.610 -0.0020 -0.0623 -0.0410
 1806W        W17423  12.657   4.041  13.627  0.0837  0.0260 -0.0457
 1807W        W17424  15.004  15.741  14.167 -0.0987  0.1309 -0.2524
 1808W        W17425   0.761  11.361  10.720  0.2769 -0.0705  0.0102
 1809W        W17426   4.551   4.850   0.974 -0.1375 -0.1998  0.0203
 1810W        W17427   1.553   3.728   1.294  0.0630  0.0311  0.0608
 1811W        W17428   0.556   0.011   3.069 -0.1587 -0.0458 -0.1668
 1812W        W17429  13.310  13.542  12.294  0.0218 -0.0109 -0.4415
 1813W        W17430   4.855   7.933   1.595  0.1912 -0.2124  0.0912
 1814W        W17431  12.533   0.035   2.443  0.0687  0.2974 -0.1647
 1815W        W17432  15.753   6.955  15.702 -0.0804 -0.3360  0.2387
 1816W        W17433   7.612   4.750   5.486 -0.1215  0.0678 -0.1807
 1817W        W17434   3.212  16.128  12.654 -0.0172 -0.0919  0.0285
 1818W        W17435  17.482  14.826   3.650  0.0643  0.0081 -0.3971
 1819W        W17436   3.625   0.805   5.902 -0.0110  0.1194 -0.3187
 1820W        W17437  14.875   5.630  12.285  0.0860 -0.0820 -0.2139
 1821W        W17438   5.111   0.080   1.990  0.0353  0.0005  0.0348
 1822W        W17439  17.258  15.684  14.641 -0.0463  0.0979  0.1813
 1823W        W17440   2.203   1.365   1.479  0.0103  0.2174  0.1860
 1824W        W17441  15.188  15.864   5.851  0.0960 -0.0499  0.0343
 1825W        W17442   9.764  17.046   0.130  0.0291 -0.0471  0.2110
 1826W        W17443  11.870  12.861   2.944  0.0480  0.3505  0.0862
 1827W        W17444  11.806   0.125   4.428  0.1801 -0.0532 -0.0644
 1828W        W17445  13.353   3.381   5.740  0.0223 -0.3066  0.0929
 1829W        W17446  15.248  18.234   2.000  0.1641  0.1518  0.1065
 1830W        W17447  12.624  10.491  15.704  0.1196  0.0711  0.1481
 1831W        W17448  13.010  15.454  13.430 -0.3180  0.2172 -0.1635
 1832W        W17449  15.565  16.540  12.765  0.1735  0.0523 -0.3209
 1833W        W17450   8.267  18.278   3.193  0.3371  0.2710  0.0127
 1834W        W17451  14.874  18.590  12.971  0.1285 -0.0744  0.1463
 1835W        W17452   0.048   1.873   0.480 -0.0186  0.2504  0.1794
 1836W        W17453  13.967  10.578  13.162  0.0288 -0.2932 -0.0874
 1837W        W17454  14.495  15.713   5.196  0.3290 -0.1252 -0.0230
 1838W        W17455   2.196   4.623  14.284 -0.2816  0.1696 -0.1388
 1839W        W17456   9.182   4.064  13.987  0.1540 -0.0186 -0.0654
 1840W        W17457   7.999   7.485   3.872  0.1491 -0.0329 -0.0284
 1841W        W17458   4.236  14.644  12.965  0.2692  0.0513  0.1804
 1842W        W17459   6.841   7.879  15.735  0.3336  0.1013  0.1042
 1843W        W17460  16.370   3.161  14.783  0.0887  0.0205  0.0612
 1844W        W17461  11.694   6.290   1.194  0.0507  0.2465  0.1484
 1845W        W17462  13.166   5.010   6.235 -0.0865 -0.1556 -0.0069
 1846W        W17463  15.520  14.425  13.109 -0.3389 -0.2833 -0.1771
 1847W        W17464  17.139  12.629  15.672 -0.0919  0.0776 -0.1899
 1848W        W17465   2.579   4.086  14.576 -0.1566  0.0857 -0.0523
 1849W        W17466   4.457   7.902   5.421 -0.2633  0.1750 -0.1878
 1850W        W17467  16.535  12.385   4.394  0.0239  0.1782  0.0132
 1851W        W17468   1.295  11.369  12.771 -0.1345  0.2913 -0.3145
 1852W        W17469  15.592  12.825   9.698 -0.0194  0.2311  0.0455
 1853W        W17470  17.704  10.815   2.499  0.1113  0.0267 -0.1006
 1854W        W17471  18.273  16.258   4.770 -0.0702 -0.1234  0.0930
 1855W        W17472  10.942   5.596   3.765 -0.0961  0.2537 -0.1880
 1856W        W17473  13.024   2.267  14.767 -0.1255 -0.0629 -0.3097
 1857W        W17474   0.121  16.151   2.392 -0.1035  0.0025 -0.0284
 1858W        W17475  15.472  13.322   2.264 -0.0030 -0.0846 -0.4388
 1859W        W17476   9.379   7.004   2.421 -0.0384 -0.3623 -0.1293
 1860W        W17477   9.258   7.127   4.601  0.0671  0.0072  0.2043
 1861W        W17478  16.096   6.130   0.399 -0.2947 -0.1273  0.0970
 1862W        W17479   1.713  13.679  12.259 -0.0352  0.2249 -0.0313
 1863W        W17480  11.282   6.433  12.393 -0.0134  0.0298  0.0172
 1864W        W17481   0.813  12.700   1.777  0.2425 -0.1345  0.1129
 1865W        W17482   2.177   6.655  15.619 -0.5848  0.0794 -0.3058
 1866W        W17483  15.090   5.297   4.982 -0.0653 -0.0377 -0.3548
 1867W        W17484  17.438  11.115  14.669  0.0039 -0.1254  0.0988
 1868W        W17485  16.566   2.409   1.724 -0.0633  0.0319 -0.0230
 1869W        W17486  16.185  16.928   4.796 -0.0118  0.3978 -0.0083
 1870W        W17487  12.655  16.846   0.871  0.2872  0.0868 -0.1430
 1871W        W17488   3.544   7.319   4.427 -0.1734  0.0888  0.1240
 1872W        W17489  17.549   3.699  11.077  0.0667  0.3646 -0.0012
 1873W        W17490   9.549   0.255  11.391 -0.0804  0.0759  0.4052
 1874W        W17491  11.153   3.202   2.777 -0.1576 -0.0874 -0.2386
 1875W        W17492  18.494  16.671   1.202 -0.1637  0.0846 -0.0576
 1876W        W17493  11.243  17.022  11.270 -0.1740 -0.0405 -0.2216
 1877W        W17494  10.402   2.153  10.670  0.0566 -0.0121  0.0397
 1878W        W17495   6.241   6.081  14.224 -0.1221  0.1020 -0.4309
 1879W        W17496   1.611   2.038   5.360 -0.0176  0.1177  0.3541
 1880W        W17497   2.666   5.727  12.732  0.0023 -0.0504 -0.2173
 1881W        W17498   7.591   0.373   3.732 -0.0593  0.2028  0.2264
 1882W        W17499   5.611   3.086   0.060  0.1441 -0.1161 -0.2429
 1883W        W17500  18.173  12.125   1.789 -0.0020 -0.0360 -0.2845
 1884W        W17501  18.069  13.144  11.242 -0.1824 -0.2148 -0.0228
 1885W        W17502  12.610   7.620  15.419 -0.2150  0.2881  0.1173
 1886W        W17503  11.163  15.564  11.448  0.0597  0.2143 -0.1257
 1887W        W17504   4.346  15.374   1.464  0.0908  0.1582 -0.0135
 1888W        W17505   5.164  14.518  10.811  0.1786 -0.0145  0.0022
 1889W        W17506  17.836   4.353  14.424 -0.0698  0.1760  0.0178
 1890W        W17507   2.734   6.694  14.612  0.1781  0.2209  0.3094
 1891W        W17508   2.785  12.704  14.035  0.1521  0.2871  0.0381
 1892W        W17509   7.439  12.772   0.865  0.0613 -0.2345  0.0683
 1893W        W17510  18.384   5.039  14.181 -0.0550  0.0583  0.1151
 1894W        W17511   2.978  13.896   2.752 -0.2036  0.0622 -0.1999
 1895W        W17512  11.732  11.505  14.582 -0.2672 -0.3065 -0.2460
 1896W        W17513   4.124   5.287  13.886 -0.0213 -0.1288  0.0852
 1897W        W17514   9.897   1.340   0.639  0.3881 -0.1968 -0.0899
 1898W        W17515   3.780   7.455   2.684  0.1019 -0.3844 -0.1255
 1899W        W17516   0.913  13.337   0.083  0.0743  0.1198 -0.1902
 1900W        W17517   8.749   3.593   0.058 -0.3281  0.0688 -0.0660
 1901W        W17518   6.438   3.239  14.212  0.0721 -0.1467 -0.0974
 1902W        W17519  18.249   2.536  14.120 -0.0748 -0.1128 -0.0297
 1903W        W17520   5.639  15.198   4.759 -0.1050 -0.1026 -0.0128
 1904W        W17521  12.526  11.457  14.564  0.2197  0.0456 -0.0690
 1905W        W17522  16.836  12.884  12.140 -0.1508 -0.1222  0.2398
 1906W        W17523   1.303  16.997   0.413 -0.3052  0.1350  0.2234
 1907W        W17524   7.338  15.325   5.701 -0.1913  0.1445 -0.5809
 1908W        W17525   8.063  17.429  12.977 -0.3953 -0.0188  0.1486
 1909W        W17526  11.824  14.345  14.135 -0.1484  0.0993  0.2710
 1910W        W17527   0.525  17.878   2.983  0.0295 -0.4133  0.3873
 1911W        W17528  10.704  10.606   2.243  0.0885  0.0480 -0.1728
 1912W        W17529  12.062   2.181  13.460  0.0648 -0.2359  0.2493
 1913W        W17530   2.994   6.317   0.747 -0.0500  0.2638 -0.1644
 1914W        W17531   2.396  11.980   5.653  0.2481  0.1341  0.0705
 1915W        W17532   6.190  17.768  11.286  0.1756 -0.0426 -0.2055
 1916W        W17533   5.945   3.143   3.824  0.0655  0.0159  0.2948
 1917W        W17534   9.615  15.438   3.133  0.0634 -0.0551 -0.2190
 1918W        W17535   8.765   2.541  14.610  0.0513 -0.0283  0.0527
 1919W        W17536   8.223  14.558   0.012  0.0194  0.0706  0.0223
 1920W        W17537   5.252  12.000  11.588 -0.0171  0.1903  0.0613
 1921W        W17538   6.065   8.627   3.020  0.0526  0.0240  0.0031
 1922W        W17539   5.243  18.529   3.252  0.1145 -0.3885 -0.0691
 1923W        W17540   2.291  10.960  11.126  0.0153  0.1653  0.3415
 1924W        W17541   7.321  10.378  12.307  0.0455 -0.3840  0.0595
 1925W        W17542   6.131  16.376  10.676 -0.0844  0.0144 -0.2364
 1926W        W17543   0.897   1.578   0.532 -0.2914 -0.0888  0.0519
 1927W        W17544  15.755   7.406  13.155 -0.0812 -0.3026  0.0827
 1928W        W17545   7.016  15.638   2.100  0.1763 -0.0851  0.1492
 1929W        W17546  17.222  14.942  14.413 -0.1047 -0.1670 -0.1916
 1930W        W17547   1.402  11.953   1.911 -0.2027  0.0024  0.0722
 1931W        W17548  15.806  17.258  12.291 -0.2249 -0.0635  0.3422
 1932W        W17549  16.881   9.319  12.994 -0.0779 -0.1347  0.3877
 1933W        W17550  10.986  13.123   5.173 -0.2356 -0.0717  0.2099
 1934W        W17551   5.999   8.494  14.918 -0.0692 -0.0706  0.0365
 1935W        W17552   2.498  13.009   2.597 -0.1880  0.0630  0.1112
 1936W        W17553  12.336  14.827  12.189  0.1131 -0.1824 -0.2002
 1937W        W17554  11.946   7.929   4.866  0.0189  0.0168 -0.1705
 1938W        W17555   5.201   5.124   4.801  0.1707 -0.1319  0.1126
 1939W        W17556   4.008   9.197  14.653 -0.0821  0.2052  0.1032
 1940W        W17557   3.168  16.964  15.657 -0.0737 -0.2473 -0.0232
 1941W        W17558   2.877  13.040   3.847  0.2323  0.5315  0.0175
 1942W        W17559  17.239  17.798  14.210  0.2068 -0.1739  0.1087
 1943W        W17560   6.803   7.350   4.220 -0.2141  0.2620  0.0591
 1944W        W17561  16.907   6.668   2.138 -0.1241  0.0725 -0.0346
 1945W        W17562   3.938  14.841   2.446  0.3449 -0.2029  0.1913
 1946W        W17563   1.585   2.916  15.270  0.0523 -0.1817 -0.2101
 1947W        W17564   5.861   7.076  13.354 -0.0711  0.0086 -0.1421
 1948W        W17565  11.105  10.165  11.443 -0.2606  0.2390 -0.1951
 1949W        W17566   9.724   2.145   4.453  0.0266  0.4071  0.1966
 1950W        W17567   7.857  12.938  15.227 -0.0709  0.0715  0.1161
 1951W        W17568  13.395   5.455   0.421  0.2359  0.3408 -0.2669
 1952W        W17569   3.974  10.043   2.427 -0.0455  0.1577  0.1443
 1953W        W17570   9.198  17.646  13.342 -0.2880  0.2774  0.3875
 1954W        W17571   6.178   0.931  13.223 -0.0242 -0.0323 -0.0819
 1955W        W17572   5.405  14.514  12.884 -0.0489 -0.0909 -0.0781
 1956W        W17573   9.465   7.675  13.943 -0.2537  0.1310 -0.3016
 1957W        W17574  12.649   9.976  13.276 -0.0563 -0.0629  0.0048
 1958W        W17575   2.757   7.127   2.538  0.0505 -0.0630 -0.1195
 1959W        W17576   1.791   6.341   0.372 -0.2479 -0.5120  0.1367
 1960W        W17577   9.165   3.271   1.505 -0.0813 -0.1846  0.2465
 1961W        W17578  12.891   0.920   3.770 -0.0404 -0.3532 -0.0911
 1962W        W17579  14.006  12.019   2.644 -0.0493 -0.3323  0.0164
 1963W        W17580  15.771   0.622  12.565  0.0355  0.1860  0.2264
 1964W        W17581   2.525   0.283   9.871  0.0084 -0.5024 -0.1901
 1965W        W17582   4.190   9.243  11.334 -0.2671  0.0154 -0.0018
 1966W        W17583   4.446   0.655   4.702 -0.2663 -0.1955 -0.2024
 1967W        W17584   0.428   4.318   1.147  0.1135 -0.4162 -0.1252
 1968W        W17585   3.174   7.439  11.900 -0.1279  0.0666 -0.1344
 1969W        W17586   6.618  11.367  13.677  0.1534 -0.0339 -0.1224
 1970W        W17587  15.168   1.487   1.735 -0.1319  0.0660 -0.0675
 1971W        W17588   0.311   2.140   3.999  0.4346  0.1352 -0.2354
 1972W        W17589   9.643   4.705   4.181  0.1832 -0.2998 -0.1823
 1973W        W17590  10.482   6.321   4.314  0.1352  0.0764 -0.0119
 1974W        W17591   9.270  14.292   4.184  0.0553 -0.3041 -0.3172
 1975W        W17592   0.312  13.767  14.159  0.1055 -0.2701  0.1289
 1976W        W17593   6.702  13.616   1.411 -0.1122  0.0414  0.1711
 1977W        W17594   9.401   7.488  12.580 -0.0092 -0.1272 -0.0644
 1978W        W17595  16.758   3.708   3.991 -0.0306  0.2198 -0.1883
 1979W        W17596  11.243   3.515   1.745  0.3854  0.1730  0.1248
 1980W        W17597   0.483  10.171   1.365  0.0140 -0.0326 -0.0455
 1981W        W17598   8.502  14.434  13.715  0.3823  0.2427 -0.0261
 1982W        W17599  11.242   8.945   3.743  0.2199  0.3206 -0.0411
 1983W        W17600   4.564   3.547  11.392 -0.1261 -0.1510 -0.0190
 1984W        W17601   5.390  17.886  12.766 -0.0788  0.1233  0.2023
 1985W        W17602   2.184   6.329  14.106  0.2539 -0.0403 -0.0171
 1986W        W17603  15.557  16.489  11.897 -0.0983 -0.0877 -0.0572
 1987W        W17604  16.729  15.511   5.397 -0.2672  0.1289 -0.1435
 1988W        W17605  13.970  18.554   0.385 -0.2439  0.1348 -0.1206
 1989W        W17606  11.040  11.530  13.466  0.0900 -0.1502  0.2203
 1990W        W17607   7.124  15.264   2.493 -0.0658 -0.0151  0.2261
 1991W        W17608   7.845  18.626   1.192 -0.1474  0.0920  0.1905
 1992W        W17609   3.002  18.633  14.536  0.5170 -0.0927 -0.2464
 1993W        W17610  11.091   3.462   5.812  0.0583 -0.1333 -0.2036
 1994W        W17611   0.434   1.668   4.019 -0.1439 -0.1226  0.0347
 1995W        W17612   5.130   7.608   4.909  0.0618 -0.2170 -0.1521
 1996W        W17613   5.838   8.768  11.625  0.4131 -0.0087 -0.2681
 1997W        W17614   9.343   8.712  14.114 -0.0318 -0.1256 -0.1671
 1998W        W17615   5.380  14.308   0.471 -0.0336 -0.0042 -0.0467
 1999W        W17616   1.261  11.456   2.475 -0.2654  0.2042 -0.0365
 2000W        W17617   9.627  10.903   0.265  0.0294  0.0499  0.1874
 2001W        W17618  16.484   4.623  13.713 -0.4807 -0.2881 -0.2676
 2002W        W17619  10.685   3.104  12.059 -0.1729  0.2124  0.3331
 2003W        W17620   3.166  12.505   3.339  0.3147 -0.0360 -0.0731
 2004W        W17621  12.705  13.056  13.580  0.3344 -0.0742 -0.2111
 2005W        W17622  17.366  11.357   1.200  0.3614 -0.0789  0.0787
 2006W        W17623  13.013   2.217  13.617 -0.1220  0.1075  0.3402
 2007W        W17624  11.967  16.813  13.796 -0.1254  0.2708  0.0926
 2008W        W17625  10.206   9.342  12.749 -0.0401 -0.1430  0.1771
 2009W        W17626  16.817   9.404  12.457 -0.2942  0.0166 -0.1472
 2010W        W17627   3.618   6.884  13.252  0.1236 -0.2860 -0.2933
 2011W        W17628  12.113  11.245  11.356 -0.1343  0.3016 -0.0607
 2012W        W17629   4.975   3.185   5.458 -0.0315 -0.2484  0.0560
 2013W        W17630   2.106   2.027   3.147  0.1041  0.3932  0.2193
 2014W        W17631   3.331   5.300   2.087 -0.0411  0.3494  0.1245
 2015W        W17632   4.834  13.868  10.312 -0.0041 -0.0624  0.4554
 2016W        W17633   5.953  18.153   3.335 -0.4251 -0.1043  0.1100
 2017W        W17634  14.029  11.686   1.013  0.0615 -0.1903 -0.1409
 2018W        W17635   2.273  16.926  12.043 -0.0903 -0.3131  0.1312
 2019W        W17636   0.248   3.240   5.445  0.0074 -0.1584 -0.0719
 2020W        W17637  11.328  15.810   4.105  0.0172  0.0218 -0.2307
 2021W        W17638   0.081  14.473  11.316  0.1693 -0.4881 -0.3136
 2022W        W17639   9.277  17.927  13.752 -0.0530  0.0075 -0.2916
 2023W        W17640   6.772   5.220  14.551  0.1817  0.1411  0.1347
 2024W        W17641   1.283   1.688   5.618  0.2636 -0.1960  0.1191
 2025W        W17642  16.337   2.407  15.308  0.2740 -0.3006  0.2430
 2026W        W17643   9.371   0.912   6.468  0.0745 -0.3374  0.1403
 2027W        W17644  14.159   8.124   0.258 -0.1309  0.0248 -0.2450
 2028W        W17645   7.035   5.159   0.628  0.0735 -0.1616 -0.2055
 2029W        W17646  18.537  13.820  14.978 -0.0488  0.0894 -0.2550
 2030W        W17647   6.204  16.379  12.915 -0.0463  0.0566  0.1887
 2031W        W17648   5.274   6.725  14.578  0.0576 -0.2148 -0.1265
 2032W        W17649  17.255   3.032   1.197 -0.2202  0.0948 -0.1053
 2033W        W17650  16.138  14.647  14.427  0.1854 -0.0977  0.3572
 2034W        W17651  16.945  15.688  14.167  0.1555  0.0457  0.2259
 2035W        W17652   9.143   7.748   2.756  0.1058 -0.1681  0.2311
 2036W        W17653   7.913   2.660   1.437 -0.1420  0.5998 -0.1574
 2037W        W17654  10.584   4.388  11.089  0.3454  0.0301 -0.0077
 2038W        W17655  14.038  16.005  11.538  0.0616  0.0708  0.0610
 2039W        W17656   2.380  17.729   1.774  0.0645 -0.0140 -0.2034
 2040W        W17657   1.300   2.220   2.343  0.0359  0.1560 -0.2601
 2041W        W17658  15.932   8.090  12.721 -0.1624  0.3470  0.1852
 2042W        W17659   7.772  13.793   3.314  0.1175  0.0894  0.0382
 2043W        W17660   1.773   8.888  15.164  0.1095  0.0449 -0.0008
 2044W        W17661  10.771   1.148   5.654 -0.0580  0.1813  0.1941
 2045W        W17662  15.309  13.806   1.592 -0.2697 -0.1138  0.2551
 2046W        W17663   4.571  17.614   0.772  0.0309 -0.1904  0.1536
 2047W        W17664   8.545   5.272   6.124  0.3026  0.0382 -0.0276
 2048W        W17665  11.115  13.648  13.473  0.0436  0.0030 -0.2830
 2049W        W17666  12.916  10.458  13.126  0.0271 -0.0209 -0.1189
 2050W        W17667  17.165   9.936   1.203 -0.0301  0.2311  0.1610
 2051W        W17668   6.568   8.450   4.964  0.0538 -0.0817 -0.2800
 2052W        W17669   1.780   4.749  11.291  0.1100  0.0574  0.2566
 2053W        W17670   1.352  17.592   1.052  0.1701  0.0985  0.4567
 2054W        W17671   3.697   6.141  13.604  0.1921  0.0176 -0.0378
 2055W        W17672   2.085   3.251   3.991 -0.4397  0.0221 -0.0319
 2056W        W17673  10.765  16.383   2.107 -0.2438 -0.1515 -0.1131
 2057W        W17674  18.330   1.380   4.557  0.0476  0.1805 -0.1538
 2058W        W17675   4.348  10.520   0.632  0.1431  0.5017 -0.1844
 2059W        W17676   3.962   0.096   5.368  0.1760 -0.0322  0.0162
 2060W        W17677   9.912   2.245   0.984 -0.2270 -0.0214  0.1231
 2061W        W17678   4.810   4.591  14.106 -0.0502 -0.0052 -0.1148
 2062W        W17679   1.646  11.382   3.725 -0.0163 -0.1859 -0.1131
 2063W        W17680   0.344   0.018   3.981  0.0775 -0.2085 -0.1211
 2064W        W17681   7.748   3.226   3.372  0.0348  0.4034 -0.0339
 2065W        W17682  10.192   1.634   2.164 -0.1704 -0.1702 -0.1670
 2066W        W17683   6.278   3.897  10.238 -0.5082  0.1726  0.0215
 2067W        W17684  13.232  16.926   6.197  0.1405 -0.0513  0.2220
 2068W        W17685   6.031  11.378  14.851  0.0702  0.2394  0.0506
 2069W        W17686  15.350  13.490  10.232 -0.1089  0.0412 -0.1391
 2070W        W17687   6.091  18.224  12.202  0.0076  0.0192  0.1281
 2071W        W17688  15.211  15.832   4.635  0.0481 -0.1929  0.0872
 2072W        W17689   1.593   3.520  13.880  0.2273 -0.0281  0.4138
 2073W        W17690   1.469  10.766  11.294 -0.1292 -0.2165 -0.1000
 2074W        W17691   6.398   9.169  13.969 -0.2149 -0.0869 -0.0062
 2075W        W17692   3.519   8.848   1.903  0.0485  0.0898 -0.2359
 2076W        W17693   4.646   9.383   2.947  0.0852  0.1631  0.1041
 2077W        W17694   4.521  15.935   9.466  0.0439  0.0538  0.1603
 2078W        W17695   8.859  16.058  14.416 -0.0237 -0.1337  0.1475
 2079W        W17696   3.759  13.798  14.821 -0.1021 -0.1838 -0.0310
 2080W        W17697  14.293   4.714   4.698 -0.0634  0.1238  0.0266
 2081W        W17698  16.991  16.346   5.479 -0.0976  0.0259 -0.1583
 2082W        W17699  13.532   4.588   2.520 -0.0195  0.0366  0.0438
 2083W        W17700  12.094  13.944   0.862  0.1953 -0.0164  0.0886
 2084W        W17701  18.525  17.333  13.834  0.1199 -0.2223 -0.1446
 2085W        W17702  10.232  14.040  12.898 -0.0225 -0.0364  0.0269
 2086W        W17703   8.783  18.514  13.829  0.2399 -0.0486 -0.0101
 2087W        W17704   4.905   0.717  11.109  0.3883 -0.1806  0.2087
 2088W        W17705   0.529   2.133  11.345 -0.0163 -0.1784  0.3443
 2089W        W17706  15.028  13.169   1.462 -0.3360  0.2045  0.3225
 2090W        W17707  14.954   5.161   4.053  0.2896  0.0734 -0.2403
 2091W        W17708  12.965   5.348  11.799 -0.1564  0.0515 -0.0430
 2092W        W17709   4.432  12.966   3.703  0.1724  0.1195  0.0671
 2093W        W17710  17.942  10.734  12.135  0.3133 -0.2701 -0.0756
 2094W        W17711   6.986   9.079   0.487  0.1411  0.0370  0.2499
 2095W        W17712   6.959   2.358   5.486  0.0194 -0.2698  0.1849
 2096W        W17713   5.916  16.478   1.029  0.1912 -0.0197 -0.2074
 2097W        W17714   4.850   4.827  15.673 -0.1683  0.1326 -0.2028
 2098W        W17715   4.816   3.489   3.059 -0.0216 -0.0520 -0.1133
 2099W        W17716   9.740   0.702  11.311  0.0629 -0.0918  0.1388
 2100W        W17717  12.206  16.447  14.181  0.2735  0.2193  0.0372
 2101W        W17718  11.497   2.958  13.063 -0.0448  0.0478  0.1793
 2102W        W17719   0.062   7.974   0.549 -0.0805 -0.0463 -0.1974
 2103W        W17720  13.731   1.266   1.295 -0.1868 -0.0276 -0.2203
 2104W        W17721   8.928  16.144  10.225  0.1045 -0.2372  0.0943
 2105W        W17722   7.765  14.081  11.921  0.1125  0.1088  0.3947
 2106W        W17723   6.981   2.980   3.593 -0.0090  0.3288  0.1622
 2107W        W17724  15.146  13.584  14.364  0.2341  0.0442  0.1642
 2108W        W17725   5.985   8.488   4.126  0.0952  0.0857 -0.0711
 2109W        W17726  13.843   3.971  14.301 -0.0999  0.1624 -0.1060
 2110W        W17727   4.009  10.173   4.111 -0.0350 -0.2256  0.0420
 2111W        W17728   0.794  17.032   5.085 -0.0086  0.0083 -0.0405
 2112W        W17729   9.968  12.439   5.312  0.0547  0.0505 -0.1232
 2113W        W17730   0.697  15.486  10.507 -0.1926  0.1002 -0.0520
 2114W        W17731   0.861   2.785   4.284 -0.0658  0.1872  0.3996
 2115W        W17732   1.173  14.146  13.545  0.2828  0.0511 -0.0445
 2116W        W17733   0.694  10.539  12.071 -0.0093  0.1642  0.1930
 2117W        W17734  13.614   7.592  14.425 -0.1147  0.3421 -0.2163
 2118W        W17735   9.493  10.826   1.848  0.1604 -0.1681 -0.0810
 2119W        W17736   5.231  11.734  10.334  0.1928 -0.0383 -0.0711
 2120W        W17737  10.855  15.394  15.081  0.2748  0.0354  0.2361
 2121W        W17738  12.646  12.175   4.379  0.1523 -0.1240  0.1927
 2122W        W17739   8.629  18.293   4.486  0.0677 -0.2461 -0.3270
 2123W        W17740  11.797   0.147   3.245 -0.1050  0.0857 -0.0231
 2124W        W17741  15.584   1.321  14.686 -0.2194  0.0023  0.1230
 2125W        W17742   6.719  11.028   0.547  0.0268 -0.0620 -0.0863
 2126W        W17743  12.012   1.527   3.028 -0.2813 -0.0757 -0.0261
 2127W        W17744   6.075   1.425   3.766 -0.0356  0.5207 -0.0057
 2128W        W17745  13.705   3.470   2.467  0.0592  0.0077 -0.2127
 2129W        W17746  15.879   6.751  12.478  0.0642  0.0110  0.1570
 2130W        W17747   3.481   7.035   2.962  0.1080  0.1263 -0.0992
 2131W        W17748   4.257  11.160   3.080 -0.1277  0.0704  0.0545
 2132W        W17749   1.282   9.858  12.486  0.1713 -0.1036  0.0536
 2133W        W17750  15.376   8.183   1.528 -0.2316  0.0917  0.3239
 2134W        W17751  12.233   0.645  15.495  0.4831 -0.3489  0.0269
 2135W        W17752   1.975   9.837   1.431 -0.0564  0.0153 -0.1951
 2136W        W17753  10.190   9.343   6.171 -0.3169  0.1668  0.3278
 2137W        W17754   6.744  11.763   3.054 -0.3202  0.2697  0.3301
 2138W        W17755   2.528   9.560   2.412  0.1986 -0.3366  0.1139
 2139W        W17756  12.153  15.404   4.526 -0.0013  0.0066 -0.1702
 2140W        W17757  14.224   4.719  13.958  0.1299  0.2885 -0.0497
 2141W        W17758   9.656  15.675  10.651  0.0534 -0.1453  0.0911
 2142W        W17759  13.119  10.981  11.842  0.0306 -0.4573  0.2389
 2143W        W17760   6.346   6.154  15.191 -0.1182  0.0419 -0.2999
 2144W        W17761  12.230  12.530  10.710  0.2537 -0.1317  0.0815
 2145W        W17762   4.788   0.682  15.567 -0.2685 -0.3307 -0.0031
 2146W        W17763  17.961  12.295   4.322 -0.0605 -0.0161  0.0290
 2147W        W17764  18.510  11.122   0.190 -0.0426 -0.1421  0.5572
 2148W        W17765   5.524  18.228  10.729  0.0827 -0.0396  0.0982
 2149W        W17766  17.876   4.727   1.191  0.1426  0.1265 -0.0344
 2150W        W17767  12.687   2.037   0.735  0.0186  0.0072  0.1217
 2151W        W17768  10.690   6.281   5.221  0.0004  0.1850 -0.2104
 2152W        W17769   7.740   5.956  14.274  0.1206  0.1112 -0.1009
 2153W        W17770   8.311  12.996   2.854 -0.1675  0.0700 -0.1272
 2154W        W17771  14.648  13.514  14.382 -0.2314 -0.2797 -0.1274
 2155W        W17772   6.976   0.887   0.650  0.1296 -0.1065  0.3829
 2156W        W17773  18.472  11.726   0.081  0.0793  0.0654  0.2228
 2157W        W17774   8.747  16.406   1.289 -0.1674 -0.3737 -0.0065
 2158W        W17775  13.592  13.352   2.872 -0.0333  0.2666  0.0299
 2159W        W17776   6.569  15.672  11.127  0.0800 -0.0778 -0.1192
 2160W        W17777  16.647   8.248   1.944 -0.0654 -0.2415 -0.2442
 2161W        W17778  16.980   5.590   4.458 -0.0457  0.0407 -0.2000
 2162W        W17779  15.483  10.383   2.274 -0.0985  0.2706 -0.1335
 2163W        W17780  11.542   0.012  12.621 -0.0873 -0.0267 -0.0316
 2164W        W17781   5.803  18.486  13.345 -0.1430 -0.1627  0.1241
 2165W        W17782  15.634   0.423  13.512 -0.1991 -0.1672  0.0098
 2166W        W17783  15.501  14.706   0.588  0.0107 -0.0661 -0.2075
 2167W        W17784  10.584   1.219  14.689 -0.3513 -0.3580 -0.0097
 2168W        W17785   5.088  11.619  13.568  0.0442 -0.2305 -0.2221
 2169W        W17786   7.712  10.092   2.400  0.0116 -0.0425 -0.2685
 2170W        W17787   2.847  16.354   4.556 -0.1015  0.6054  0.1476
 2171W        W17788   4.115  10.567  13.520  0.0550  0.1972 -0.0673
 2172W        W17789  18.510  10.643  14.949 -0.0917 -0.2220 -0.2463
 2173W        W17790  13.325   9.625  13.617 -0.1085 -0.1423  0.3720
 2174W        W17791   4.595   2.933   2.184 -0.2033 -0.3479  0.0292
 2175W        W17792  15.723   8.890   3.014 -0.0584  0.1590 -0.1034
 2176W        W17793  12.563   3.112  13.133  0.0759  0.1224  0.0210
 2177W        W17794   8.392  16.706   4.751 -0.0668  0.5230 -0.3020
 2178W        W17795  17.162  15.963  15.477 -0.2438  0.1986  0.2558
 2179W        W17796  15.945   8.320   1.966  0.1960  0.0780 -0.1242
 2180W        W17797  10.940   6.538   5.601 -0.0747 -0.0516  0.1133
 2181W        W17798   8.880   7.000   1.371  0.0429  0.0954  0.2756
 2182W        W17799   7.997  10.574   5.873 -0.5624  0.1371  0.1553
 2183W        W17800   0.730   9.195  10.930  0.1746 -0.0891 -0.2447
 2184W        W17801   3.953  18.628  11.058 -0.3247  0.0445  0.0775
 2185W        W17802  14.171   6.615   1.060  0.1734  0.0796  0.1095
 2186W        W17803   0.725  14.867  10.929 -0.1547  0.0765 -0.0652
 2187W        W17804  16.080   9.664   4.445  0.0105 -0.0441  0.1441
 2188W        W17805  13.637  14.270   3.521  0.0374  0.1451  0.0561
 2189W        W17806   3.554  14.205   4.079  0.1647  0.0437 -0.0547
 2190W        W17807  17.860  12.869   0.624  0.1984  0.0149  0.0922
 2191W        W17808  16.732  10.251   3.849 -0.2569  0.0736  0.3657
 2192W        W17809   1.394   4.819   0.166 -0.1311 -0.0003 -0.1982
 2193W        W17810   5.352   7.029   2.975 -0.0634 -0.3681 -0.0551
 2194W        W17811  11.674  16.983  13.441 -0.0549  0.0072 -0.2182
 2195W        W17812   8.648   2.713  13.797  0.1114 -0.2077 -0.1037
 2196W        W17813   8.799   3.595   5.403 -0.2578  0.1397  0.0140
 2197W        W17814   0.026   5.485   2.127  0.0383 -0.1072  0.2586
 2198W        W17815  11.341   9.819  15.043 -0.2279  0.0382  0.3524
 2199W        W17816  10.781   9.279  12.492 -0.2854  0.3082 -0.0616
 2200W        W17817  13.530   8.220   3.193  0.1094  0.1833  0.0571
 2201W        W17818  12.272   4.427  12.570 -0.1990 -0.0465 -0.1603
 2202W        W17819   9.298   3.502   4.104  0.0588  0.1658 -0.2992
 2203W        W17820  10.649   5.942  11.768  0.0842  0.1837 -0.0460
 2204W        W17821   1.549  10.181   2.924  0.0163 -0.0427  0.0519
 2205W        W17822   6.818  18.515   4.177 -0.0902  0.1139  0.0674
 2206W        W17823  13.096   3.652   3.212 -0.0349 -0.2906  0.1261
 2207W        W17824  13.228   6.719  11.571  0.0731 -0.2633  0.1960
 2208W        W17825   2.919  13.552   0.170  0.0862  0.1599 -0.1228
 2209W        W17826  10.961   6.624   0.280 -0.1739  0.0375 -0.0835
 2210W        W17827  14.432   1.225   0.762 -0.0220 -0.1104 -0.4187
 2211W        W17828   4.624  13.341  13.840 -0.1315  0.2307 -0.0635
 2212W        W17829  13.947   6.167   5.013  0.1535  0.0518  0.0473
 2213W        W17830   3.735   4.555   2.035 -0.2292  0.0286  0.3524
 2214W        W17831  14.372  12.588  14.328 -0.1037 -0.2535 -0.0226
 2215W        W17832  10.306   0.074   2.130  0.0558  0.2330 -0.3105
 2216W        W17833  15.479   0.521  14.534 -0.0920  0.1040 -0.1093
 2217W        W17834  15.206   8.685  14.877  0.3287 -0.1730  0.0696
 2218W        W17835  16.304  12.075   0.743  0.0591  0.1615  0.3929
 2219W        W17836   9.083  13.184  10.553 -0.0153  0.0259  0.1565
 2220W        W17837  16.793  17.957  11.649 -0.1178  0.0101 -0.0502
 2221W        W17838   7.607   3.454   0.818  0.1663  0.0055  0.0127
 2222W        W17839  17.336   4.617   2.345 -0.0681 -0.0945 -0.1866
 2223W        W17840   6.448   8.220   4.483 -0.0689  0.1071 -0.1469
 2224W        W17841   6.991  17.190  13.674 -0.1064 -0.0785  0.2477
 2225W        W17842  16.151  17.116   1.910 -0.2378  0.3591 -0.0631
 2226W        W17843   1.712  16.490  12.024 -0.2450  0.3739  0.0425
 2227W        W17844   2.438   7.881  11.278 -0.1510  0.2893 -0.2266
 2228W        W17845   4.961   3.545  15.433 -0.0629  0.1527 -0.1823
 2229W        W17846   3.171   4.184  12.139  0.0733  0.1210  0.0461
 2230W        W17847  13.884  14.698   1.666 -0.1503 -0.0360  0.1449
 2231W        W17848  15.771   7.985   3.632  0.1093  0.0170  0.2373
 2232W        W17849   6.791   0.801  11.073  0.3910 -0.0801 -0.0384
 2233W        W17850   3.873  10.565  12.450  0.3677 -0.3168  0.0744
 2234W        W17851   9.905  13.800  11.917  0.2972 -0.0396  0.0563
 2235W        W17852   6.751   4.023  13.937 -0.1309  0.2432  0.1042
 2236W        W17853   3.427  14.021   5.091 -0.2147  0.1979  0.0681
 2237W        W17854  14.469  10.829   4.524  0.1507  0.1442  0.2746
 2238W        W17855   2.751  12.899  15.179  0.0683  0.0882 -0.3464
 2239W        W17856   2.435   8.320   3.426 -0.1067  0.1376 -0.2237
 2240W        W17857   7.372   2.970   5.190  0.0967 -0.0332  0.0973
 2241W        W17858   5.683  13.766   0.671  0.0709  0.0684 -0.0147
 2242W        W17859  13.267   9.447   3.947  0.1255 -0.0328  0.0970
 2243W        W17860   9.191   2.134  15.660  0.2499 -0.4102 -0.2058
 2244W        W17861   4.789  17.186  12.931 -0.1554  0.2327 -0.3083
 2245W        W17862   5.912   0.044  11.988  0.0906  0.1047  0.1716
 2246W        W17863  16.193   0.696   3.219 -0.0216 -0.0018  0.2149
 2247W        W17864   4.221   8.353   0.384  0.0368  0.0155 -0.1853
 2248W        W17865  15.780  10.601   1.512  0.0450  0.3319 -0.1109
 2249W        W17866  12.785   2.022   4.184  0.1383 -0.2604 -0.0006
 2250W        W17867   2.119  17.298   0.814  0.2627 -0.2854  0.0809
 2251W        W17868   0.380  13.323  14.505 -0.2642 -0.2572 -0.1917
 2252W        W17869  10.915  14.746  12.862 -0.1774  0.3966  0.1445
 2253W        W17870   8.851   4.158  10.937  0.2827  0.2187 -0.3326
 2254W        W17871  18.076   5.549   1.615 -0.0520 -0.1850 -0.2302
 2255W        W17872  13.453   6.910   0.428 -0.1454  0.0965 -0.2331
 2256W        W17873  15.282  16.160   2.008 -0.2685  0.3256  0.3951
 2257W        W17874   5.337   6.382   0.719  0.0075  0.0017 -0.0153
 2258W        W17875   7.838   8.793  13.387 -0.1983  0.0772 -0.0111
 2259W        W17876   0.763  16.530   1.908  0.2597 -0.3204 -0.1691
 2260W        W17877  15.540   5.247  13.250 -0.1013 -0.0777 -0.1135
 2261W        W17878   7.669   7.140  14.192 -0.1833  0.1600 -0.0014
 2262W        W17879  18.577  14.045  11.986  0.3047 -0.2089 -0.4488
 2263W        W17880  10.357   9.153   4.436 -0.1985  0.2474 -0.2001
 2264W        W17881  16.471   1.389  14.950  0.4798  0.3063 -0.0766
 2265W        W17882  12.331   5.434   5.655 -0.2237  0.2236 -0.0733
 2266W        W17883  12.053  13.523  15.172  0.2140 -0.0693  0.1181
 2267W        W17884   2.775  14.247   0.216  0.1264 -0.0112 -0.0909
 2268W        W17885  10.874   4.876   3.742 -0.1907  0.0068 -0.2033
 2269W        W17886  16.129   0.655   0.475 -0.0866  0.3568 -0.0302
 2270W        W17887  15.313   2.456   2.555 -0.1311  0.2112  0.0748
 2271W        W17888   1.011  17.149   2.744 -0.2360  0.0259  0.0988
 2272W        W17889  14.082   9.066  13.609  0.3455 -0.2332 -0.3151
 2273W        W17890   4.294   7.380   2.216 -0.2278  0.1938 -0.0754
 2274W        W17891  17.448   7.613   3.666 -0.1637 -0.0428 -0.1879
 2275W        W17892  12.769   1.701  12.478 -0.2013 -0.0299 -0.0867
 2276W        W17893   3.017   5.023   5.195  0.1516 -0.3104  0.0368
 2277W        W17894   2.107   6.528  11.719  0.0293 -0.0577  0.0781
 2278W        W17895  12.056  13.901   5.837 -0.1811  0.2508 -0.1593
 2279W        W17896   1.348  12.448   2.001  0.0715  0.2718  0.0269
 2280W        W17897   7.776  15.564  10.990  0.1391 -0.2133 -0.0219
 2281W        W17898   5.357  13.566   4.481  0.0592  0.3342  0.1742
 2282W        W17899   4.738  11.932   3.458  0.1053 -0.2569  0.0469
 2283W        W17900  16.642  14.862   0.551  0.0619  0.2723  0.1256
 2284W        W17901  13.814   4.394   0.478 -0.1014  0.0891 -0.1552
 2285W        W17902  17.009  10.303  11.014 -0.1498  0.0317  0.1635
 2286W        W17903   9.486  11.854  14.943  0.0529 -0.0776  0.4626
 2287W        W17904   1.129   0.051   0.724  0.4038  0.3277  0.0676
 2288W        W17905   3.320   1.413   1.400 -0.1779 -0.1095 -0.0750
 2289W        W17906  14.229  14.390  13.505 -0.1169  0.1560  0.2409
 2290W        W17907  13.518   9.764   2.655 -0.0297  0.0231  0.0359
 2291W        W17908   4.686  14.961  11.589 -0.1780 -0.1170 -0.1878
 2292W        W17909   0.705  12.684  10.975 -0.0759 -0.1445  0.0185
 2293W        W17910  14.853   8.954   4.726 -0.1146 -0.1137 -0.0932
 2294W        W17911   7.561   6.837   0.078 -0.0361 -0.1357  0.4149
 2295W        W17912   0.953   9.882   5.098  0.2197 -0.2559  0.1485
 2296W        W17913   4.144   8.714  11.599 -0.2074  0.2531  0.2592
 2297W        W17914   4.394  14.376   5.130 -0.0086 -0.3198 -0.0120
 2298W        W17915   2.539   8.691   0.206  0.4761  0.1904  0.2783
 2299W        W17916   2.167  17.685   0.331 -0.1113  0.0274  0.2371
 2300W        W17917   6.469  11.031   3.411  0.1153  0.1982  0.2046
 2301W        W17918  14.348   6.172  13.485 -0.2371 -0.1078 -0.2757
 2302W        W17919   4.806  13.549   0.264 -0.3644 -0.2127 -0.1062
 2303W        W17920  16.124  14.775   0.979 -0.1421  0.0955 -0.1647
 2304W        W17921  11.115   0.235   4.477 -0.0515 -0.0053 -0.0000
 2305W        W17922  17.271   2.737   5.798 -0.0675  0.0176 -0.0784
 2306W        W17923  17.600  16.272  12.146  0.0662 -0.1316  0.3415
 2307W        W17924  11.451  10.544  14.926 -0.0706 -0.1043 -0.0445
 2308W        W17925  16.629  17.989  14.736 -0.1378  0.3408 -0.0487
 2309W        W17926  14.512  17.496  14.902  0.1589 -0.1001  0.1149
 2310W        W17927  16.960  18.382   5.575 -0.2548 -0.2763  0.2074
 2311W        W17928  16.551   9.408   0.963 -0.1998  0.0689 -0.1082
 2312W        W17929  13.124   5.205   1.078  0.1834  0.0127 -0.1643
 2313W        W17930   2.649   3.829   5.718 -0.2389 -0.1290  0.1862
 2314W        W17931   0.738   3.480  14.887 -0.1626 -0.0968 -0.0619
 2315W        W17932   1.343  14.378  15.058 -0.2108  0.1194  0.2349
 2316W        W17933  15.748  17.887   0.979 -0.4309  0.1219 -0.0052
 2317W        W17934  13.514   1.999  13.641 -0.1769 -0.0191 -0.3637
 2318W        W17935  10.176   1.237   6.118  0.2776 -0.2749  0.1253
 2319W        W17936  14.619   8.728  13.356 -0.0337  0.3706 -0.5142
 2320W        W17937  17.958   4.885   4.976  0.2953 -0.2081  0.1442
 2321W        W17938  13.058   1.625  15.494  0.1923 -0.4097 -0.1674
 2322W        W17939  14.024   0.907   2.980  0.0502  0.1987 -0.1677
 2323W        W17940  12.154   0.942  11.889 -0.2445 -0.0345  0.2375
 2324W        W17941  10.758   5.898   0.919 -0.0583 -0.1347  0.1929
 2325W        W17942   8.420  17.552  15.498  0.2838  0.1787 -0.2007
 2326W        W17943   7.350  15.057  10.339 -0.0442  0.2347  0.0953
 2327W        W17944   5.857  18.486   2.562 -0.0293 -0.0462 -0.1104
 2328W        W17945   3.568  11.800  12.056 -0.1906  0.0730 -0.0745
 2329W        W17946   8.379  12.425   1.619  0.0998 -0.0716 -0.0966
 2330W        W17947  15.379   6.412   2.150 -0.1643 -0.0564 -0.2188
 2331W        W17948  13.425  10.869  12.376  0.0207  0.1718  0.0993
 2332W        W17949   6.150   1.439  12.860 -0.0819  0.1023 -0.0447
 2333W        W17950   8.331  15.112  14.714 -0.2198  0.0528  0.0578
 2334W        W17951   1.269  12.625   1.540 -0.0387 -0.2242  0.1104
 2335W        W17952  17.396   4.035  11.873 -0.0723 -0.1103 -0.1030
 2336W        W17953  15.243   9.416  13.936 -0.0568 -0.0146 -0.0598
 2337W        W17954   4.817   2.017  15.066  0.0160 -0.0576 -0.0643
 2338W        W17955   3.549  10.446   5.131 -0.0859 -0.0294 -0.0799
 2339W        W17956   6.486  14.653  13.716 -0.0326  0.3484 -0.1827
 2340W        W17957   4.409  15.741  10.369  0.1336  0.4499  0.0014
 2341W        W17958   9.935  14.415   4.309 -0.0151  0.1107  0.1237
 2342W        W17959  17.026   3.040   3.565 -0.1143  0.1753  0.0940
 2343W        W17960  13.267  16.050  13.319 -0.0317 -0.4225  0.4334
 2344W        W17961  10.929  15.680  12.027 -0.2647 -0.0467 -0.0100
 2345W        W17962   3.890   8.643  14.704  0.0606 -0.1786  0.1527
 2346W        W17963   0.853   9.977   3.499 -0.2138  0.3086  0.0710
 2347W        W17964   8.349   3.503   0.326  0.2982  0.1813 -0.2093
 2348W        W17965  18.247   1.222  14.586  0.1630  0.0785  0.0460
 2349W        W17966   8.772   0.368  14.168  0.1230 -0.0861  0.2459
 2350W        W17967   6.786  16.905   3.449 -0.2051  0.0477 -0.0958
 2351W        W17968   0.809  13.791  11.848 -0.1943  0.0295  0.0768
 2352W        W17969   5.702  13.539   4.868  0.1334 -0.0108 -0.0969
 2353W        W17970   2.810   4.362  12.903 -0.0855 -0.1323  0.2300
 2354W        W17971   1.018   0.893  13.032  0.0325 -0.2558 -0.1598
 2355W        W17972   1.555  16.422   4.632  0.1147  0.1083 -0.1725
 2356W        W17973  12.254   9.247  11.346 -0.2544  0.2584  0.0202
 2357W        W17974  15.365  17.928  11.442 -0.1277 -0.1525 -0.0758
 2358W        W17975   1.936   4.099   4.317  0.1778  0.0612  0.3614
 2359W        W17976   6.858  18.382   1.942 -0.0685  0.2443 -0.0409
 2360W        W17977  14.055  11.211  12.969  0.3349 -0.0138  0.0896
 2361W        W17978  16.772  11.692   5.526 -0.0765 -0.1552  0.1205
 2362W        W17979  14.652  16.294   2.756 -0.1267  0.2933 -0.2706
 2363W        W17980   4.721  11.713  10.481 -0.1391 -0.0938 -0.0058
 2364W        W17981  14.589   2.539   4.546 -0.0967  0.2028 -0.1168
 2365W        W17982  17.405   9.643  14.983 -0.2017 -0.1838 -0.2036
 2366W        W17983   6.403  11.277  11.580  0.1883  0.0471  0.0527
 2367W        W17984   3.425  12.868  12.199  0.0590  0.0465  0.1715
 2368W        W17985  10.504   6.891  12.894  0.1200 -0.1661  0.3315
 2369W        W17986  17.065   7.771   0.063  0.4210  0.0173  0.0587
 2370W        W17987  18.523   5.206   3.592  0.1866 -0.0961 -0.1288
 2371W        W17988  14.043  10.946  12.022  0.0879 -0.0424  0.1505
 2372W        W17989   5.278   5.457   4.363 -0.0135 -0.1634  0.0819
 2373W        W17990  14.598  14.558  12.231  0.0136 -0.1909  0.1643
 2374W        W17991  16.494   8.316  15.713  0.3243  0.1650 -0.1793
 2375W        W17992   9.720  10.257   3.373  0.0736 -0.0873  0.0949
 2376W        W17993  12.696  11.569  13.119  0.2697  0.2610  0.1222
 2377W        W17994   1.859  13.541   0.242  0.1064  0.0791 -0.2313
 2378W        W17995   8.513  13.317  12.897  0.0434 -0.2513  0.0071
 2379W        W17996   2.171   5.588   4.933  0.2528  0.2091 -0.2472
 2380W        W17997   5.842  17.923  13.119 -0.2117 -0.1556  0.5624
 2381W        W17998   7.955  12.226   3.108  0.0564  0.1415 -0.1461
 2382W        W17999  12.532  15.268  11.194 -0.2392 -0.3383  0.2997
 2383W        W18000  14.939   4.919  13.992  0.0406  0.2284 -0.0156
 2384W        W18001   2.622  11.574  10.742  0.1258  0.1584  0.2943
 2385W        W18002  17.211   4.194   0.503 -0.0998 -0.3499 -0.0309
 2386W        W18003   5.131   5.472   0.767  0.0641 -0.0860  0.0212
 2387W        W18004  10.116   3.293  15.667  0.0207 -0.0253  0.3377
 2388W        W18005  16.119   4.457   5.507  0.0673 -0.2074  0.0759
 2389W        W18006   6.798   4.382  11.340  0.0873  0.2334  0.0349
 2390W        W18007   2.332   9.320  11.728 -0.0462  0.0399 -0.4597
 2391W        W18008  11.842   5.105   3.545 -0.0073 -0.1606 -0.1473
 2392W        W18009  13.813  15.286  13.255 -0.2611 -0.0487  0.1195
 2393W        W18010   8.043  14.079   2.307  0.2873  0.0631 -0.3540
 2394W        W18011  13.744   5.207  13.271 -0.2440 -0.0671 -0.0502
 2395W        W18012   1.536   4.849  15.238  0.3900 -0.0028 -0.1308
 2396W        W18013  12.855  16.259   0.235  0.0467 -0.2524 -0.0278
 2397W        W18014   0.960   4.382   4.641  0.3984 -0.1282  0.2237
 2398W        W18015   7.525  11.784  13.293  0.0904  0.0170 -0.1702
 2399W        W18016   6.505  18.107  10.029  0.1361  0.0698  0.2676
 2400W        W18017  10.767  18.235   1.039  0.1906  0.0136 -0.2584
 2401W        W18018   3.132  10.621  10.518 -0.3258 -0.0765  0.0305
 2402W        W18019   6.751  12.442   1.739  0.1068  0.0600 -0.2312
 2403W        W18020   3.005  16.430   1.769 -0.1416  0.0524 -0.4030
 2404W        W18021   6.672  11.899   4.856 -0.1873 -0.5173  0.0164
 2405W        W18022   0.664   5.597   1.599  0.2363  0.0674 -0.0740
 2406W        W18023  18.414   7.901  11.968  0.0995  0.0756 -0.4555
 2407W        W18024  13.371  13.577  11.207  0.3130 -0.0909 -0.0926
 2408W        W18025  16.944   4.196   4.097  0.2748  0.0248  0.3200
 2409W        W18026  14.966   7.523  13.482 -0.0654  0.0984  0.1663
 2410W        W18027  13.583  15.383   2.711  0.2520  0.1268 -0.0255
 2411W        W18028  17.055  11.028   4.404 -0.0605  0.0552  0.2741
 2412W        W18029  13.690   0.183   0.038  0.0402  0.2700 -0.0816
 2413W        W18030   3.772   4.638   3.933 -0.3360  0.1291  0.0839
 2414W        W18031   2.392   1.967  14.388 -0.2233  0.0881 -0.0435
 2415W        W18032  18.570  16.177   4.414  0.1682  0.1007  0.1168
 2416W        W18033   3.422   4.764  12.853  0.0209  0.0131  0.1035
 2417W        W18034   3.858   7.580   4.096 -0.2373 -0.0550 -0.0215
 2418W        W18035   5.867   9.065  11.191  0.1970  0.4534 -0.0932
 2419W        W18036   7.663  10.557  14.494 -0.2656 -0.1509  0.0128
 2420W        W18037  12.863  17.274   2.502 -0.1626 -0.0924 -0.1643
 2421W        W18038  16.154   5.521   0.518  0.0284 -0.0604  0.3244
 2422W        W18039   6.403   4.153  12.224  0.3132 -0.2203  0.5849
 2423W        W18040   6.394   2.191  12.619  0.0357 -0.0696 -0.3139
 2424W        W18041   0.376  12.633  13.875  0.0127  0.0822  0.0133
 2425W        W18042  16.270  10.892   5.033 -0.1651 -0.1176  0.2372
 2426W        W18043  17.882   1.186   4.147  0.1386 -0.1001  0.1428
 2427W        W18044  17.111   9.913   3.716 -0.1988 -0.0430 -0.1085
 2428W        W18045   9.131   2.501   5.136  0.2605  0.0225  0.0422
 2429W        W18046   8.761   6.361   3.667 -0.2731 -0.1041 -0.0862
 2430W        W18047  12.183  10.692   5.707  0.4289  0.1247 -0.0241
 2431W        W18048  17.421  13.565  12.624  0.0389 -0.0246  0.0824
 2432W        W18049   3.456   7.177   0.782 -0.0425 -0.0864 -0.5100
 2433W        W18050   7.212   7.550   1.355  0.0509 -0.3318  0.2051
 2434W        W18051   4.214  12.550   0.218 -0.1446  0.0136 -0.1259
 2435W        W18052  12.651  16.798  12.420 -0.2065 -0.0289 -0.0666
 2436W        W18053   8.364  15.811   3.583 -0.1190  0.3335 -0.3331
 2437W        W18054  10.135   6.901  15.339 -0.1883  0.1024 -0.2496
 2438W        W18055  14.286  18.200   4.148 -0.0923 -0.0875  0.2427
 2439W        W18056   0.926   8.375   3.341  0.1477 -0.4327 -0.0505
 2440W        W18057  11.125  17.470   0.315  0.1228  0.1895 -0.1196
 2441W        W18058   6.027  15.363  14.929 -0.1880  0.1843  0.0796
 2442W        W18059   2.078   0.278   2.572 -0.1689  0.4508 -0.2516
 2443W        W18060   5.884  11.506  11.760  0.2853 -0.1277  0.2412
 2444W        W18061   0.697  11.883  14.014  0.1917 -0.1514  0.1667
 2445W        W18062   6.858   6.889   5.148 -0.0404  0.1422  0.0543
 2446W        W18063   3.950   6.542  11.299 -0.3761 -0.3606 -0.0071
 2447W        W18064   6.182  18.346   0.231 -0.3382 -0.1915  0.0891
 2448W        W18065  17.472  11.662   3.627  0.2301 -0.0349 -0.2231
 2449W        W18066  13.129  12.227   5.505  0.4036 -0.0539 -0.2359
 2450W        W18067  14.931   2.975   4.562  0.2505 -0.1138 -0.2164
 2451W        W18068   7.934  14.388   3.857 -0.1809  0.2969  0.0806
 2452W        W18069  15.516  14.892   4.232  0.4131  0.1665 -0.0746
 2453W        W18070  14.845  15.879  11.573 -0.0264  0.3391  0.0189
 2454W        W18071   5.494  13.998   0.078  0.0442  0.4513 -0.1454
 2455W        W18072  14.407  18.238   3.555 -0.0911 -0.3756 -0.1115
 2456W        W18073  13.867  11.199   0.862 -0.0933  0.3836  0.1552
 2457W        W18074   2.740   6.138   3.848 -0.1137  0.1004  0.0551
 2458W        W18075  13.353   2.863  11.063  0.1796 -0.4282 -0.0746
 2459W        W18076  10.534   4.881  15.719  0.3261  0.0221 -0.2100
 2460W        W18077  16.635   2.473  12.581 -0.2411  0.0403 -0.0928
 2461W        W18078  11.111   2.071  13.045 -0.0644 -0.1466 -0.1413
 2462W        W18079   2.871  10.052   1.928  0.4963  0.0546 -0.1655
 2463W        W18080  16.244  15.489   1.099 -0.0219 -0.1838  0.0047
 2464W        W18081   6.783  18.249   0.401 -0.0170  0.1915  0.1311
 2465W        W18082   7.873  12.751   3.734 -0.1392  0.3392 -0.0859
 2466W        W18083   7.645  11.128   0.888 -0.2851 -0.0625  0.3350
 2467W        W18084  12.533   0.931  11.515  0.0893 -0.1459  0.3458
 2468W        W18085  14.393   3.722  11.894  0.0986 -0.1595 -0.2159
 2469W        W18086  16.625   1.099   4.415 -0.3281  0.0052 -0.3283
 2470W        W18087   7.328   4.551  13.419  0.0494 -0.0049 -0.0105
 2471W        W18088   9.851   6.734  11.511 -0.1290  0.0080  0.0764
 2472W        W18089  16.756   2.146   0.546  0.0184  0.1047  0.1194
 2473W        W18090   4.362  13.374   2.292 -0.0096 -0.2921  0.1045
 2474W        W18091  15.099   1.677   0.277  0.0480  0.1000  0.0239
 2475W        W18092   2.557  10.260  14.196  0.2216  0.6765  0.1984
 2476W        W18093   5.314  14.364   5.212  0.0070 -0.0015  0.2695
 2477W        W18094  18.525  14.263   1.440 -0.0163 -0.0978  0.1257
 2478W        W18095   5.610  17.491  14.613  0.4537  0.2227 -0.0890
 2479W        W18096  18.308  12.289  12.290 -0.2953 -0.2531  0.2017
 2480W        W18097  16.411   8.750  13.510 -0.1027 -0.0066  0.0227
 2481W        W18098  12.957  15.718  13.001 -0.2523 -0.3185  0.1275
 2482W        W18099  18.165   5.953   2.557  0.1248 -0.2499  0.1796
 2483W        W18100   0.203  13.902   0.660  0.0790  0.2303  0.0464
 2484W        W18101  12.045  15.320   3.897  0.1704 -0.0550  0.1120
 2485W        W18102  17.748   3.159   0.995 -0.3647  0.3150 -0.0001
 2486W        W18103   7.211   7.800   5.294 -0.0372 -0.2127 -0.1675
 2487W        W18104  12.026   5.805   4.697  0.3710  0.2493  0.2765
 2488W        W18105  18.086   9.362   5.074 -0.0440 -0.2344  0.2362
 2489W        W18106   3.633  10.848   0.342  0.2612 -0.0512 -0.0498
 2490W        W18107   0.186   8.309  11.111  0.2486  0.1011 -0.0555
 2491W        W18108  12.571  12.581   4.802  0.0241 -0.3673  0.1609
 2492W        W18109   0.574   3.522  13.915 -0.4156 -0.1298  0.0133
 2493W        W18110  15.582   2.677   1.771 -0.0273 -0.1313  0.3735
 2494W        W18111  12.988  12.196   3.279 -0.0747 -0.0998 -0.0840
 2495W        W18112   3.597   4.302   6.122  0.4492 -0.1505  0.2663
 2496W        W18113   8.137  13.744  12.043  0.0826 -0.0641  0.0204
 2497W        W18114  10.282  12.455   0.802  0.0374 -0.2251  0.2608
 2498W        W18115   2.523   1.609   3.036  0.0196  0.0134  0.0140
 2499W        W18116   1.766   9.785  11.126  0.0426 -0.1735 -0.1840
 2500W        W18117  11.265  10.405  11.949 -0.0850 -0.1908 -0.0822
 2501W        W18118  11.272  13.269   3.431 -0.0756 -0.1084  0.3679
 2502W        W18119  16.910   1.071  13.889 -0.2383 -0.0452 -0.0231
 2503W        W18120   9.221   2.545  11.638 -0.5153 -0.0993  0.1674
 2504W        W18121   0.812   6.727  12.476  0.1542  0.1665 -0.3286
 2505W        W18122   5.424  16.528   2.681 -0.0277 -0.0710  0.1385
 2506W        W18123  18.090   8.761   2.009 -0.0039 -0.1834  0.0648
 2507W        W18124   8.238  16.067   1.219  0.0762  0.1320  0.2877
 2508W        W18125  14.315  17.494   4.255 -0.0020 -0.1019  0.1866
 2509W        W18126   1.722  15.998  14.447  0.2207 -0.1540  0.1366
 2510W        W18127   1.928   9.842   3.048 -0.0350 -0.1471  0.1925
 2511W        W18128   7.307   7.028   2.502 -0.3542 -0.1951  0.1907
 2512W        W18129   2.228  13.537  15.362 -0.3067 -0.2580  0.0889
 2513W        W18130   9.230  12.774  12.647  0.0851  0.2003 -0.1463
 2514W        W18131  12.122   9.865  14.287  0.3221  0.0312 -0.0383
 2515W        W18132   0.689   2.184   1.093 -0.1158 -0.2775  0.1137
 2516W        W18133   5.081   5.846  11.473 -0.2058 -0.2002 -0.2140
 2517W        W18134   0.864   9.829  11.452  0.0454  0.1614  0.1010
 2518W        W18135  13.351  13.128   1.311  0.1169  0.0887  0.0600
 2519W        W18136  11.605  17.980   1.955  0.0093  0.1883 -0.0703
 2520W        W18137   4.812   0.835  13.181  0.1139  0.5012 -0.0964
 2521W        W18138   1.779  14.704   3.750  0.2980  0.2312 -0.0352
 2522W        W18139  17.583   1.183   2.379 -0.4472  0.1394  0.1023
 2523W        W18140  14.300   6.699   5.059 -0.0798 -0.0027 -0.1846
 2524W        W18141  15.816  17.036  15.745  0.1047 -0.1800 -0.0710
 2525W        W18142   9.553   6.270   5.889  0.2532  0.1097  0.3265
 2526W        W18143  13.407  12.266  15.396  0.0594  0.1933 -0.1757
 2527W        W18144   5.434  18.247  13.093 -0.1432  0.0889 -0.0188
 2528W        W18145  12.784   4.117   4.224  0.1941  0.0774  0.0518
 2529W        W18146   8.442  15.521   3.150  0.2647  0.0277 -0.2451
 2530W        W18147   6.134   1.225  13.753  0.0915  0.0216 -0.3919
 2531W        W18148  11.903  15.069  15.743 -0.0476 -0.1193 -0.0637
 2532W        W18149  12.749   8.823   2.294 -0.1782 -0.1564 -0.0711
 2533W        W18150  16.247   1.971   2.508  0.0792 -0.2527  0.1369
 2534W        W18151   0.887   9.926   1.618 -0.1066 -0.0708 -0.0952
 2535W        W18152  17.827   2.660   2.319  0.0554 -0.2883  0.0394
 2536W        W18153   2.711  15.918  14.709  0.2048 -0.2096  0.4002
 2537W        W18154  15.257  13.147   3.163  0.1301  0.2145 -0.1503
 2538W        W18155  14.669   1.256   5.491  0.2276 -0.0717 -0.1176
 2539W        W18156  14.246  14.149  12.216 -0.2701  0.0810 -0.2952
 2540W        W18157  18.267   9.213   1.636  0.0157 -0.1406 -0.1684
 2541W        W18158   1.975  12.397   5.504 -0.1198 -0.0471 -0.0355
 2542W        W18159   9.024   5.818  12.151  0.2612 -0.2064  0.1639
 2543W        W18160   5.483  10.442   1.832 -0.1866  0.1713 -0.0574
 2544W        W18161  14.760   7.385   1.381 -0.0539 -0.4156  0.0850
 2545W        W18162  15.912   9.288   2.740  0.1900  0.0985 -0.0599
 2546W        W18163   5.044  17.638   1.115  0.3322 -0.0059 -0.2230
 2547W        W18164  15.632  11.076  13.568 -0.0348  0.3187 -0.0242
 2548W        W18165   3.544  12.573  13.173  0.0304  0.0695 -0.1963
 2549W        W18166   7.177   6.257   3.642 -0.0401  0.1640 -0.2054
 2550W        W18167   8.582  15.005   1.665  0.0048 -0.0212 -0.4784
 2551W        W18168   4.135   3.512  14.588 -0.1753  0.0462 -0.0872
 2552W        W18169  12.519  15.918  12.024 -0.1319 -0.0358  0.1269
 2553W        W18170   0.628   8.097  13.455  0.0607 -0.0713 -0.0034
 2554W        W18171   8.596  15.904   2.602  0.1496  0.1370 -0.0271
 2555W        W18172  12.505   2.506   2.348  0.1572 -0.1721 -0.3087
 2556W        W18173  10.778  11.411   0.830 -0.0975 -0.0411 -0.3256
 2557W        W18174  10.880   7.057   3.489  0.0458  0.0820 -0.3429
 2558W        W18175  18.629  18.419   2.473 -0.0034 -0.2578  0.2427
 2559W        W18176  16.215   5.762   5.246  0.1410 -0.0765 -0.5156
 2560W        W18177  12.231   9.749   2.160  0.2244  0.2426  0.0841
 2561W        W18178  17.026   4.683   2.925 -0.0007  0.1170  0.0515
 2562W        W18179  12.319   4.000  12.851 -0.2440  0.0447 -0.1447
 2563W        W18180   2.352   3.157  14.719 -0.0804  0.0759 -0.3911
 2564W        W18181  11.877  13.941   3.556 -0.2320  0.1581 -0.0339
 2565W        W18182  10.942   8.573   1.484  0.2973  0.0547 -0.3284
 2566W        W18183   4.175  13.508  13.877  0.2401 -0.2046  0.3280
 2567W        W18184   7.429  16.709  12.776  0.1402 -0.0387 -0.0149
 2568W        W18185   1.540  16.114   4.092  0.0018  0.2147  0.1215
 2569W        W18186   7.146   9.643   3.183 -0.0170  0.0068 -0.0722
 2570W        W18187  16.506   7.908  13.393  0.1100 -0.0997  0.5599
 2571W        W18188   7.382  13.719   3.910 -0.0396 -0.1011 -0.3726
 2572W        W18189  13.678   6.642   2.113  0.0185  0.0909  0.1242
 2573W        W18190   1.139  13.416  14.855 -0.0103  0.1395 -0.2935
 2574W        W18191  12.904  13.200   4.413 -0.0758  0.1786  0.1151
 2575W        W18192  11.075   8.192  14.409 -0.0930 -0.1156 -0.0608
 2576W        W18193   7.581  10.938   0.438 -0.1809 -0.0771  0.0080
 2577W        W18194  10.148   6.410  12.803  0.0365 -0.0456  0.0354
 2578W        W18195   1.667  14.047   2.911 -0.3141  0.0713  0.0835
 2579W        W18196  14.133   4.153   5.543 -0.0709  0.2189  0.1033
 2580W        W18197  13.087   3.140  15.342 -0.2700  0.0114 -0.0838
 2581W        W18198   7.703  10.930  11.727  0.2305  0.1146 -0.0240
 2582W        W18199  16.215   0.760   2.206 -0.4889  0.0763  0.0634
 2583W        W18200   4.282   4.909  12.520  0.4711 -0.1445 -0.1685
 2584W        W18201  17.828   5.682   5.166 -0.0680 -0.0216 -0.1262
 2585W        W18202  10.933  16.513   2.889  0.1091 -0.1591  0.0230
 2586W        W18203  16.268  10.756   3.009  0.1345 -0.2104  0.0841
 2587W        W18204  15.894   7.156  12.010 -0.1165  0.1014 -0.1348
 2588W        W18205  15.141   9.100  11.942 -0.0171  0.0210 -0.0558
 2589W        W18206   4.417   9.046  11.931 -0.0407  0.0945  0.1884
 2590W        W18207   2.353   0.523   1.639 -0.0149 -0.3271 -0.4659
 2591W        W18208  12.974  11.777  12.393 -0.2924  0.1023  0.1829
 2592W        W18209  10.944  10.741  15.111 -0.1342  0.0451 -0.1528
 2593W        W18210  15.161  12.569   3.525  0.0719 -0.2966  0.0108
 2594W        W18211  15.990   6.715  14.808 -0.0919  0.0393  0.0436
 2595W        W18212   8.349   8.661   3.338 -0.1353  0.1922  0.3740
 2596W        W18213   5.179   2.582  11.594 -0.0269 -0.0706 -0.0199
 2597W        W18214  13.987   7.021  11.863  0.1594 -0.0765 -0.2958
 2598W        W18215   7.258   9.223  14.110  0.1651  0.0015  0.2833
 2599W        W18216   9.081  18.491  10.792  0.0046 -0.0644  0.2043
 2600W        W18217   2.745  18.180  13.006  0.5974  0.2849  0.3717
 2601W        W18218  10.652  15.514   3.826 -0.0677  0.2836  0.2238
 2602W        W18219   8.048  17.147  15.232  0.3928 -0.0963 -0.3272
 2603W        W18220  18.013   8.626  10.986 -0.1009 -0.2982 -0.4464
 2604W        W18221   7.090  15.304   3.961 -0.1808 -0.1108  0.0306
 2605W        W18222   5.392   8.111   1.572 -0.0053 -0.0015  0.0964
 2606W        W18223   3.091   6.775   2.652  0.2153  0.1754 -0.3484
 2607W        W18224   0.818   1.309  12.640 -0.1349  0.0228  0.0145
 2608W        W18225   8.206   2.285   4.217  0.0922 -0.1888  0.2550
 2609W        W18226   2.720  15.098   3.184  0.4302  0.2489  0.1795
 2610W        W18227   6.778  12.398  15.579  0.0608 -0.0308  0.0548
 2611W        W18228  14.904   7.271  11.560 -0.1724  0.2914  0.0146
 2612W        W18229   8.655  15.636  15.306  0.6266 -0.0628 -0.0126
 2613W        W18230  15.580  16.722   4.852  0.0959  0.2967 -0.0680
 2614W        W18231  14.761  11.838  14.383  0.3885  0.0243  0.2356
 2615W        W18232  17.092   4.739  13.128 -0.0647 -0.0904 -0.3123
 2616W        W18233   8.052   4.263   0.416  0.0454 -0.0336  0.0339
 2617W        W18234   3.702   3.360   1.883  0.0162 -0.2915  0.3765
 2618W        W18235  17.607   8.068   3.627  0.2549 -0.1639 -0.0618
 2619W        W18236   0.617  11.951   5.544 -0.4134 -0.1188  0.0661
 2620W        W18237  16.184  17.822   0.686  0.0312  0.2176  0.1668
 2621W        W18238  10.176   3.011   0.590  0.1023 -0.0333  0.1576
 2622W        W18239  12.479  14.891   0.817 -0.1560  0.1885 -0.0843
 2623W        W18240  15.342  11.900   4.563  0.0688  0.2385 -0.0328
 2624W        W18241   2.525  12.089  13.294 -0.1861  0.0425 -0.1963
 2625W        W18242   7.316   0.187  14.521  0.1008 -0.0979 -0.0670
 2626W        W18243  11.365   5.710   0.116 -0.2359  0.2127  0.1506
 2627W        W18244   2.875   4.523  14.459  0.0542  0.1675  0.1251
 2628W        W18245   1.504  11.051   2.242 -0.0132  0.4985  0.0237
 2629W        W18246   0.923  18.246  14.778  0.0555 -0.1313  0.1059
 2630W        W18247  16.306   2.406  12.180 -0.1571  0.2187  0.1464
 2631W        W18248   7.764  12.456  11.520 -0.3773  0.1059 -0.0602
 2632W        W18249  18.567  10.873   1.716 -0.0110 -0.1417  0.0010
 2633W        W18250   1.739  10.153   5.826  0.2358 -0.0579 -0.0800
 2634W        W18251   6.381   1.830  11.015  0.1559  0.2703 -0.1006
 2635W        W18252   7.156  16.222   3.441 -0.0424 -0.3071  0.0923
 2636W        W18253   0.955   1.273   4.366  0.1579  0.5627  0.0924
 2637W        W18254   9.528  11.131   2.861  0.2647  0.3342  0.0999
 2638W        W18255  14.520   2.204  12.645  0.0417  0.0115  0.0824
 2639W        W18256   7.549   7.096   1.151 -0.0379 -0.1164 -0.1682
 2640W        W18257  12.633   6.741   3.421 -0.0542  0.1839 -0.2275
 2641W        W18258  17.096   6.797  14.929 -0.1220  0.1656 -0.1814
 2642W        W18259  11.937   4.055   4.552  0.3296 -0.1100  0.1631
 2643W        W18260  14.056   6.934  12.669  0.0652 -0.3645  0.1972
 2644W        W18261   2.200   5.765   3.438 -0.2202 -0.0362 -0.0347
 2645W        W18262  12.309  13.452   0.347  0.1368  0.0161 -0.0384
 2646W        W18263  13.925   4.758  13.464  0.0295 -0.1385  0.1604
 2647W        W18264   5.544   3.159  13.904 -0.0077 -0.3367 -0.1446
 2648W        W18265  10.968  16.227   1.564  0.2619 -0.2744 -0.3973
 2649W        W18266   8.938   8.898  12.486 -0.2469  0.2287 -0.2617
 2650W        W18267   6.832  17.267  11.049  0.0039 -0.0077  0.1819
 2651W        W18268   0.104  12.546  12.091 -0.1738  0.0746 -0.2413
 2652W        W18269   3.970  15.474  13.570  0.0085  0.1187  0.0526
 2653W        W18270  14.496   6.993   1.722 -0.0366  0.4211  0.3556
 2654W        W18271   4.586   5.952   3.854  0.0553 -0.1184 -0.0435
 2655W        W18272  11.316   8.447  13.892  0.0185 -0.3541  0.1669
 2656W        W18273  18.087  11.102   2.404  0.1519 -0.0058  0.0081
 2657W        W18274   2.853   8.278  10.974  0.3671  0.0104  0.1866
 2658W        W18275   1.510  13.938  15.516 -0.1577  0.0299  0.0589
 2659W        W18276   9.504  14.653  12.751 -0.1042  0.2106  0.0838
 2660W        W18277   7.184  11.074   4.174 -0.2024 -0.1091 -0.0672
 2661W        W18278  18.561   0.890   0.937  0.0699 -0.0650  0.1704
 2662W        W18279  14.250   8.267   5.057 -0.2704 -0.3498 -0.2781
 2663W        W18280  16.767   9.656  14.710 -0.1978 -0.0758 -0.3329
 2664W        W18281  12.344   0.508   2.490  0.1150  0.1612 -0.2597
 2665W        W18282  12.163  11.650   1.022  0.2868 -0.1396 -0.1081
 2666W        W18283  15.332  15.667   1.306  0.2057 -0.1071  0.1234
 2667W        W18284  10.854   1.002  13.889  0.0657 -0.2230 -0.0093
 2668W        W18285  18.022   9.836   0.129 -0.0321  0.2210 -0.0086
 2669W        W18286  14.473  14.326   5.382 -0.2964  0.2872 -0.1814
 2670W        W18287   5.395   5.986   3.241 -0.1448  0.1059 -0.0528
 2671W        W18288   8.509  17.688   1.250 -0.0293  0.0848 -0.0217
 2672W        W18289   2.605   4.587   1.031 -0.2954  0.0152  0.1716
 2673W        W18290  16.315   9.427  11.602  0.2156 -0.1031 -0.0793
 2674W        W18291  12.904   2.311  11.614  0.0041  0.0009  0.3088
 2675W        W18292  10.937   2.263   4.507 -0.0794  0.1041  0.1124
 2676W        W18293   2.827  10.391   2.629  0.2290  0.4021  0.0064
 2677W        W18294   7.238   0.843  13.053 -0.2484  0.0013  0.0295
 2678W        W18295   2.093   3.317   3.399 -0.0362 -0.2893 -0.1643
 2679W        W18296   5.863   2.670   2.438  0.1141 -0.1815 -0.2972
 2680W        W18297  15.459   7.308  15.472 -0.2330  0.1619 -0.1079
 2681W        W18298  15.814   5.691  11.974 -0.0767  0.1801 -0.1688
 2682W        W18299  18.486   9.822   2.382 -0.2162 -0.1552  0.0918
 2683W        W18300  14.526  16.702   0.438  0.0432  0.0999 -0.1203
 2684W        W18301  13.674  16.438   4.708 -0.2676  0.0010  0.2729
 2685W        W18302   4.538  11.835   2.420  0.0728 -0.0552 -0.2022
 2686W        W18303   1.482   3.446  13.043 -0.0844  0.0559 -0.0295
 2687W        W18304   0.821   1.298   3.920  0.2032 -0.4037  0.3448
 2688W        W18305  12.095   0.029   2.746  0.1106  0.1878 -0.2343
 2689W        W18306  13.060  14.194   0.416  0.3812  0.0857 -0.3103
 2690W        W18307   5.330  13.111   3.679  0.2484 -0.0641  0.1465
 2691W        W18308   0.331   8.952   3.722  0.1898  0.0834 -0.3970
 2692W        W18309   5.293  13.977  10.048 -0.1155  0.2037 -0.0848
 2693W        W18310  13.616  16.864   1.655 -0.2967 -0.0392  0.1418
 2694W        W18311   7.317   5.160  15.233 -0.2849 -0.1175  0.2204
 2695W        W18312   0.596   6.080  13.248 -0.3219  0.0687 -0.0942
 2696W        W18313   3.310  11.249  11.382  0.1574 -0.2220  0.0691
 2697W        W18314   9.179   7.356  12.154  0.0475 -0.1622  0.0383
 2698W        W18315  14.919   8.161   4.252 -0.0916  0.0404  0.0943
 2699W        W18316   7.307   8.958  13.267  0.1459 -0.0050  0.2687
 2700W        W18317   8.030   7.222   1.907  0.1202 -0.1073  0.0446
 2701W        W18318   8.608   7.956   5.425 -0.0820 -0.0537  0.0302
 2702W        W18319  13.749   6.419   1.313 -0.0475  0.2654  0.1359
 2703W        W18320  17.446   2.337   5.550 -0.3964  0.3211 -0.2490
 2704W        W18321   6.696  12.880  10.821 -0.1159 -0.0879  0.3736
 2705W        W18322  18.098   5.026  11.129 -0.0368  0.2223  0.0365
 2706W        W18323   6.573   2.592   3.563 -0.0888  0.1094 -0.1008
 2707W        W18324   1.992   0.648  14.477 -0.0596 -0.1508  0.1207
 2708W        W18325  16.436   7.597   4.104  0.1957  0.0311  0.2084
 2709W        W18326   2.355   2.596   3.092 -0.3531  0.2439 -0.0236
 2710W        W18327   4.203   6.420  13.500 -0.3258  0.1968 -0.3488
 2711W        W18328  10.218  10.669   1.497 -0.2058 -0.2903 -0.0152
 2712W        W18329  15.900   6.436  12.878  0.1023  0.1002 -0.0576
 2713W        W18330   8.152   2.293  12.592  0.0861  0.0391  0.0572
 2714W        W18331  17.860   2.138  12.939 -0.1608 -0.1024 -0.0361
 2715W        W18332   7.406   9.861  11.153  0.1038 -0.1103  0.2301
 2716W        W18333   0.487  15.535   0.691 -0.3077 -0.1806  0.1636
 2717W        W18334  17.094  14.511   3.503  0.0943 -0.1381  0.0934
 2718W        W18335  14.620   0.988   5.054  0.0130 -0.0794  0.1544
 2719W        W18336  10.367  11.272   1.740  0.0627  0.0256  0.0872
 2720W        W18337   2.955   6.180  13.633 -0.1300  0.1382 -0.0628
 2721W        W18338  12.193  16.235   5.019  0.3011 -0.3253 -0.0238
 2722W        W18339   9.618  14.668  10.486  0.2923  0.1609  0.0979
 2723W        W18340  14.271  15.172  11.750  0.2392 -0.1955  0.0263
 2724W        W18341   8.477   4.558   2.651  0.0106  0.2190  0.1711
 2725W        W18342   9.396   0.943   4.034 -0.0797 -0.2392 -0.0059
 2726W        W18343  11.775   1.686   6.528 -0.0441  0.0888 -0.0135
 2727W        W18344  10.600  11.642   5.726  0.0069 -0.1475 -0.0060
 2728W        W18345   7.291  17.277  11.237 -0.0211 -0.1462 -0.2165
 2729W        W18346   1.341   2.979  14.876 -0.0646  0.0836 -0.1205
 2730W        W18347   9.483   0.779  13.624 -0.2596  0.2192  0.0350
 2731W        W18348  18.339  11.539  13.254 -0.2440 -0.0828 -0.4330
 2732W        W18349   2.506  18.603  14.481 -0.1339  0.0996 -0.0891
 2733W        W18350  13.624  10.522   1.827 -0.1431  0.0289 -0.1095
 2734W        W18351  11.776   5.427  11.202 -0.0405  0.2765 -0.0309
 2735W        W18352  17.077  15.358  10.621 -0.0584  0.1036  0.2016
 2736W        W18353  11.755   9.264   5.039  0.0668  0.1435 -0.1401
 2737W        W18354   1.428   5.571  13.399 -0.0078  0.0657 -0.1248
 2738W        W18355  16.334   3.882   3.607  0.1099  0.0531 -0.1659
 2739W        W18356   6.140  14.551  14.059  0.2668  0.1590 -0.0359
 2740W        W18357  12.208  13.383   0.823  0.1613 -0.0165 -0.0997
 2741W        W18358  15.859   5.168   3.988 -0.0961 -0.0465 -0.1645
 2742W        W18359  11.038  17.948   0.111  0.2793 -0.2099 -0.1323
 2743W        W18360   5.348  18.646   0.899 -0.3439  0.3673 -0.1972
 2744W        W18361  17.331   4.472  12.792  0.0290  0.0286 -0.0990
 2745W        W18362   0.834  10.821  11.617 -0.2587  0.0404 -0.0651
 2746W        W18363   0.893  11.926   0.969  0.1725  0.1518  0.3546
 2747W        W18364   4.004  11.501   1.336  0.0669  0.0565  0.1747
 2748W        W18365  11.331  13.456   1.884  0.0608 -0.0323 -0.2600
 2749W        W18366  15.688   4.680   0.350  0.3021 -0.0898 -0.1791
 2750W        W18367  10.629   3.701   1.083  0.6042 -0.3096 -0.0814
 2751W        W18368  14.315  14.119  11.464  0.1785  0.2169  0.1108
 2752W        W18369  13.964   1.442   0.860 -0.1070  0.3961 -0.0537
 2753W        W18370  12.890  11.864  15.419  0.2815  0.0598 -0.1326
 2754W        W18371   1.643   4.670   2.769 -0.2448 -0.1355 -0.1274
 2755W        W18372  16.925   1.678  15.602 -0.1966 -0.2000 -0.1627
 2756W        W18373   4.510  15.619   0.541 -0.1366 -0.2118 -0.3271
 2757W        W18374   0.253  14.658  13.866  0.0878 -0.0285 -0.1286
 2758W        W18375   9.962  14.330  13.898 -0.0297 -0.4071 -0.1780
 2759W        W18376  12.524  16.028  11.434  0.2043  0.1332  0.1045
 2760W        W18377   3.264  12.624  11.687 -0.1798  0.0925 -0.0635
 2761W        W18378   3.072  12.108   3.075  0.0851  0.2976 -0.0680
 2762W        W18379  11.849   1.105   3.357  0.1275 -0.0508 -0.3086
 2763W        W18380   9.360  18.352   3.829  0.0358  0.0843 -0.2760
 2764W        W18381   4.675  18.217   5.202 -0.2654  0.2371 -0.1675
 2765W        W18382   2.592   9.217  11.315  0.1660  0.0246 -0.1397
 2766W        W18383  14.169   8.881   3.781 -0.1245  0.1957 -0.0259
 2767W        W18384   0.846  11.875   1.512  0.1193  0.1048 -0.1259
 2768W        W18385  16.954   3.570   3.525  0.1471  0.1014  0.0285
 2769W        W18386   3.453   0.566   0.208 -0.0510 -0.2226  0.2014
 2770W        W18387   0.879  11.241  12.523 -0.1843  0.2080 -0.0147
 2771W        W18388   8.448  16.360  14.341  0.1597  0.1347  0.0579
 2772W        W18389   5.663  13.825  10.684  0.0032  0.0898  0.0136
 2773W        W18390  17.906  14.801   1.847 -0.0683 -0.1394  0.0834
 2774W        W18391  14.497  16.944   4.033  0.0482  0.0606  0.0301
 2775W        W18392   3.502  18.656   5.692 -0.1312 -0.0075  0.0145
 2776W        W18393  15.742   7.090  15.045  0.3116 -0.0172  0.0988
 2777W        W18394   5.764  17.082   0.123  0.1765  0.1038  0.1368
 2778W        W18395  10.229   3.300  13.558 -0.2514  0.1589  0.1822
 2779W        W18396  16.050   4.029  14.619 -0.0953  0.2370 -0.5130
 2780W        W18397  18.100   7.650  12.734 -0.2190 -0.2881 -0.1699
 2781W        W18398   8.767   0.871   3.025 -0.1906  0.0940  0.3026
 2782W        W18399  17.411  17.788  10.919 -0.0921 -0.0352 -0.0980
 2783W        W18400  11.885   1.055  12.339 -0.2441  0.0822  0.0099
 2784W        W18401   6.285   4.673  12.088 -0.0890  0.2477  0.4100
 2785W        W18402   2.386  10.194   4.882  0.1101 -0.0771  0.1679
 2786W        W18403  10.008   9.826   3.961  0.2493 -0.0165 -0.3280
 2787W        W18404   8.879   7.914   4.509  0.2529  0.2915  0.0399
 2788W        W18405   4.740   2.226   0.740 -0.0094 -0.1488  0.5383
 2789W        W18406   1.652   2.562   3.843 -0.1304  0.1286 -0.1830
 2790W        W18407   3.719  18.088   0.401  0.1838  0.2880  0.0573
 2791W        W18408   3.860   5.125  15.738 -0.1187  0.1565  0.0370
 2792W        W18409   3.601  16.762   0.108 -0.1846  0.4176 -0.1016
 2793W        W18410  15.061  15.453   5.000  0.0280 -0.0977 -0.3288
 2794W        W18411   3.932  14.616   0.808 -0.1186  0.2424  0.0851
 2795W        W18412   2.737   9.788   4.227  0.4164  0.0264 -0.1604
 2796W        W18413   8.862   5.944   3.915  0.1956  0.1451  0.1369
 2797W        W18414   5.149  13.819   0.578  0.2121 -0.0235  0.2984
 2798W        W18415  11.223  15.453   2.131 -0.2516  0.0427  0.1300
 2799W        W18416   0.139  12.689  15.764  0.0792 -0.0404 -0.0956
 2800W        W18417  12.688  12.834   9.551 -0.0979  0.0663  0.2692
 2801W        W18418   0.868  15.370  10.986  0.0500  0.0576  0.1008
 2802W        W18419   0.340  10.332  10.625  0.2177  0.2887  0.0938
 2803W        W18420  13.553  18.610   3.906 -0.1550  0.0751  0.0227
 2804W        W18421  13.821   8.579  10.464 -0.5252 -0.3226 -0.0588
 2805W        W18422   7.882   3.732   0.423 -0.0838 -0.3730  0.0915
 2806W        W18423  11.348   8.909   0.052 -0.1155 -0.0616  0.1589
 2807W        W18424   7.482  17.805  13.893  0.2563  0.2301  0.0125
 2808W        W18425   7.205  17.941  12.978 -0.0120 -0.3569  0.2399
 2809W        W18426  16.629   7.042   2.498 -0.0048 -0.0317  0.2798
 2810W        W18427   7.581  17.176  14.890  0.0318 -0.2506 -0.0393
 2811W        W18428  13.008  17.392   5.345 -0.1236 -0.1043  0.0791
 2812W        W18429   0.072   2.027   5.149  0.0678  0.1380  0.2682
 2813W        W18430   4.486  11.280  10.472 -0.1623 -0.1998  0.1187
 2814W        W18431  10.373  11.937   3.729 -0.0910 -0.0541  0.1741
 2815W        W18432  13.592   8.264  13.163 -0.0688  0.3543 -0.1098
 2816W        W18433   9.544   0.940   5.443  0.0939 -0.1501 -0.1780
 2817W        W18434   7.444   8.266  12.751 -0.3157 -0.0503 -0.0108
 2818W        W18435  14.449   8.455   1.066  0.1460  0.2271 -0.2011
 2819W        W18436   1.328  11.970  10.874 -0.0602  0.4015  0.3922
 2820W        W18437  13.362  10.592   4.889  0.4162 -0.4064  0.0973
 2821W        W18438  15.156   8.811  12.584 -0.4896 -0.4960  0.1940
 2822W        W18439  14.485   4.876   4.217 -0.2059 -0.3337  0.1756
 2823W        W18440   0.244  11.198   3.032 -0.2794 -0.0913  0.2149
 2824W        W18441  11.737   6.198  15.688 -0.2002 -0.0721  0.0649
 2825W        W18442   9.074  16.163   2.961  0.1120 -0.3377  0.4440
 2826W        W18443   6.525   1.219   3.716 -0.1288  0.1949 -0.0717
 2827W        W18444  15.352   7.172  13.528  0.2518  0.0932 -0.0166
 2828W        W18445   1.827  12.201   0.841  0.6073  0.0785  0.0988
 2829W        W18446   8.290   2.246  11.368 -0.0710  0.0500  0.1100
 2830W        W18447  11.254  13.730  12.503  0.2988 -0.2063 -0.0496
 2831W        W18448   3.004   6.861  11.218 -0.1439  0.2408 -0.3692
 2832W        W18449   5.317   1.248   0.355  0.0117 -0.3886 -0.2921
 2833W        W18450  12.071   5.893   0.137  0.3283  0.1590 -0.1900
 2834W        W18451  16.953   5.536   3.966 -0.1864  0.0732  0.1411
 2835W        W18452  14.579   0.354   4.526  0.0863  0.1398  0.0435
 2836W        W18453   0.877  14.313   3.857 -0.1946 -0.2279  0.0394
 2837W        W18454  16.733   9.004   4.592 -0.1543 -0.1466  0.5296
 2838W        W18455  10.313  18.646   3.852  0.0667 -0.4566  0.1467
 2839W        W18456  13.805   8.827  14.598 -0.2141  0.0211  0.2937
 2840W        W18457  11.260   3.246  12.497  0.0361  0.0430 -0.4039
 2841W        W18458   4.865   3.062  11.585  0.4672 -0.3814  0.2553
 2842W        W18459  14.154  14.517   0.889 -0.0480 -0.1479 -0.1359
 2843W        W18460  12.966   1.124  15.433  0.4049 -0.1058 -0.0731
 2844W        W18461   3.701   4.763   6.284  0.1654 -0.3604 -0.0988
 2845W        W18462   0.884   7.595  10.720  0.2388  0.0135  0.0943
 2846W        W18463   1.006   3.395   3.242  0.2371  0.0130 -0.1316
 2847W        W18464  10.104  15.638   4.875 -0.0671  0.1298  0.0467
 2848W        W18465  11.253   8.177  10.764 -0.1752 -0.1286  0.1538
 2849W        W18466   1.368   9.992   0.310  0.3078  0.0850 -0.1312
 2850W        W18467  18.412   7.627  11.498 -0.1034  0.1828  0.1478
 2851W        W18468   6.534   6.284   4.757 -0.1451 -0.0676 -0.2493
 2852W        W18469   0.190   0.506   3.818  0.0305  0.1521  0.0332
 2853W        W18470   8.855   6.561   5.691  0.0124 -0.1541  0.0087
 2854W        W18471   4.643   7.499   2.548 -0.0575 -0.1083  0.1103
 2855W        W18472   0.636   3.771  12.069 -0.3899  0.0154 -0.0790
 2856W        W18473   6.781   4.578  12.123 -0.1734 -0.0617 -0.1286
 2857W        W18474  16.704  15.458  10.945  0.1690 -0.0096 -0.0419
 2858W        W18475   9.983  11.940  13.170 -0.0380 -0.1058  0.1516
 2859W        W18476  16.742  16.437  11.814  0.3266  0.1627  0.0926
 2860W        W18477   3.247  13.135   1.735 -0.3342  0.0744 -0.2685
 2861W        W18478   6.316  16.068   3.267 -0.2199 -0.0047  0.1753
 2862W        W18479  10.689   1.495   3.454  0.1300  0.4254 -0.0262
 2863W        W18480  10.193   7.661   0.821 -0.0284 -0.1286 -0.1237
 2864W        W18481  17.129  18.177   0.281  0.0337  0.1341  0.0293
 2865W        W18482  12.102   6.578  11.353 -0.1339  0.1627  0.2744
 2866W        W18483  14.102  12.648   1.271 -0.1896  0.0316 -0.0591
 2867W        W18484   6.068   5.644   5.212  0.2317  0.0484 -0.0138
 2868W        W18485   1.654   2.258   1.018  0.2971  0.3233  0.1013
 2869W        W18486   1.791  17.777   1.645 -0.1456 -0.1366  0.0875
 2870W        W18487   9.450  16.729  11.835  0.3051 -0.0454 -0.1791
 2871W        W18488  17.551  11.225  13.976 -0.2980  0.1111 -0.0105
 2872W        W18489   9.782  13.128   1.165  0.1974 -0.4108 -0.0869
 2873W        W18490   8.616   2.391   2.750 -0.1712  0.2429  0.2837
 2874W        W18491  10.630   7.417   1.745  0.1472  0.3570 -0.1109
 2875W        W18492  15.495   7.514   0.569 -0.1453  0.0329 -0.1199
 2876W        W18493   6.928  12.738   2.358  0.1696  0.0417 -0.0170
 2877W        W18494  18.084   5.206   3.386 -0.0186  0.0434  0.1430
 2878W        W18495  10.354   0.534   0.817 -0.2988  0.1256  0.4045
 2879W        W18496  14.652   8.802  15.616  0.0395 -0.2495 -0.2220
 2880W        W18497  10.359   3.833  14.903 -0.2841  0.0860 -0.1137
 2881W        W18498  14.583   6.615   5.522  0.1124  0.1301 -0.2418
 2882W        W18499   2.920  11.523  14.296  0.0149  0.0212 -0.2678
 2883W        W18500   1.223  17.285  14.379  0.2187 -0.0719  0.0348
 2884W        W18501   0.750   0.760   2.345  0.2273  0.0487  0.1624
 2885W        W18502  12.329   8.573  11.422  0.1071 -0.0734  0.3005
 2886W        W18503   4.938  18.518   1.217  0.1578  0.0188  0.2577
 2887W        W18504   8.940  11.269  11.835  0.3218  0.1120  0.1712
 2888W        W18505   7.367   8.713   1.480 -0.1862  0.0243 -0.3424
 2889W        W18506   8.534   2.259   0.681 -0.2997  0.2029 -0.0921
 2890W        W18507   8.322  17.778  14.221 -0.3055  0.2410  0.2912
 2891W        W18508  14.152   0.658   4.354 -0.3691 -0.1851  0.1604
 2892W        W18509  10.554  13.941   1.558 -0.1619 -0.2282 -0.1887
 2893W        W18510  14.946   8.342   1.806 -0.0108  0.0720 -0.1715
 2894W        W18511  17.768   6.167  14.524  0.0359 -0.0922  0.0045
 2895W        W18512  10.557  12.004   4.702  0.2917 -0.1711  0.0720
 2896W        W18513  10.712  17.972   4.616  0.2798  0.0249  0.0998
 2897W        W18514  10.342  16.884   2.557  0.1024 -0.2534  0.2927
 2898W        W18515   2.030   9.443  15.349  0.1220  0.0979  0.0699
 2899W        W18516  14.787   9.405   3.632 -0.1419 -0.0001  0.0837
 2900W        W18517   3.153  15.866   1.700 -0.4508  0.0164 -0.0580
 2901W        W18518   1.618  12.918  13.094 -0.2959  0.1193  0.0025
 2902W        W18519   1.560  13.625  11.008 -0.1438  0.1511 -0.0952
 2903W        W18520  10.496   4.300   2.430 -0.1646 -0.2428  0.0927
 2904W        W18521   7.682   9.007  12.482 -0.2051 -0.1297 -0.1414
 2905W        W18522  18.230   2.650  13.357 -0.1633 -0.0398  0.0782
 2906W        W18523  10.660   1.073   3.716  0.2653 -0.0596  0.1047
 2907W        W18524   7.465   1.031   1.991 -0.0082  0.4823  0.0204
 2908W        W18525  17.087  12.242  11.538 -0.1036 -0.1209  0.2854
 2909W        W18526   9.013   2.354   0.632  0.1886  0.1094 -0.3614
 2910W        W18527  15.974  16.616  13.672 -0.1831  0.0409  0.0632
 2911W        W18528  13.140  13.941   9.640 -0.1794 -0.0806  0.3830
 2912W        W18529  15.981  13.179   1.532  0.4528  0.4185  0.0219
 2913W        W18530  17.085   2.377   1.989 -0.5335 -0.2152 -0.2871
 2914W        W18531  18.465   2.769  11.185 -0.0311  0.0765 -0.0770
 2915W        W18532   4.200  18.155   0.234  0.4244  0.0419  0.0500
 2916W        W18533   2.661   6.927   3.653 -0.0145 -0.0494 -0.0417
 2917W        W18534   1.199  13.550  13.719 -0.3297  0.3015 -0.1049
 2918W        W18535   8.090  11.904   1.958  0.2028  0.0831  0.5324
 2919W        W18536  18.358   2.590   1.376 -0.0218 -0.2559 -0.1456
 2920W        W18537  18.057   4.641   2.003 -0.3431  0.1869 -0.0875
 2921W        W18538  12.803  11.693  11.104 -0.0623 -0.0052  0.0973
 2922W        W18539   6.731  15.547  14.558  0.2976 -0.2226  0.5895
 2923W        W18540   6.887  15.530  15.298 -0.3947  0.4629 -0.1284
 2924W        W18541   4.406  17.612   2.674  0.1748  0.3870  0.1283
 2925W        W18542  18.414  18.591   4.766 -0.1424 -0.2318  0.2284
 2926W        W18543   2.259   0.462  15.029  0.1551 -0.0851 -0.4239
 2927W        W18544  12.977  14.992   0.956 -0.0230 -0.0475 -0.0044
 2928W        W18545  10.866  18.306  15.081  0.5402  0.2409 -0.0232
 2929W        W18546  18.604  17.594  12.860 -0.3491  0.1808  0.1599
 2930W        W18547   9.876  16.571   1.796  0.1406  0.0159 -0.0554
 2931W        W18548   5.369   2.673   4.325  0.0601 -0.3170  0.0168
 2932W        W18549   5.047   1.136   2.049 -0.2078 -0.1366  0.1318
 2933W        W18550   5.279   0.119  11.426  0.1580  0.2686 -0.2381
 2934W        W18551  18.333   4.891   2.768  0.0083 -0.1235  0.0220
 2935W        W18552  16.943   3.914   5.383  0.0667  0.1763  0.0543
 2936W        W18553  15.212   4.530  13.745 -0.2105 -0.0570 -0.0782
 2937W        W18554   8.474   4.410   1.713 -0.1926  0.0936  0.6099
 2938W        W18555   2.246  13.486   4.002 -0.1997  0.2428  0.0047
 2939W        W18556   4.745  18.114   2.062  0.0079 -0.0227  0.1241
 2940W        W18557   0.354  16.129   1.893  0.3475  0.1173  0.3031
 2941W        W18558  17.602   3.150   2.441 -0.0324 -0.0905 -0.0965
 2942W        W18559   4.764   7.069  11.040  0.0262 -0.0512  0.1897
 2943W        W18560   2.200  10.710  14.276  0.1872  0.0289  0.1715
 2944W        W18561   0.980  13.615  13.239 -0.0478  0.4974 -0.1015
 2945W        W18562  14.548  10.209   3.557 -0.0855 -0.2559  0.1765
 2946W        W18563   1.003   2.645  14.592 -0.1117  0.1122  0.1285
 2947W        W18564   6.914  10.935   3.733 -0.0417 -0.0819 -0.1208
 2948W        W18565  17.804  12.417  11.957  0.0349 -0.1086  0.0109
 2949W        W18566   4.596   7.300   1.706  0.1692  0.0358  0.0904
 2950W        W18567   8.198  12.365   0.675 -0.1954  0.2313  0.1453
 2951W        W18568  16.062  15.204  12.247 -0.1814  0.0280 -0.2591
 2952W        W18569   4.232  15.113   0.636  0.3407  0.1778 -0.1078
 2953W        W18570  12.265   3.117  13.786 -0.1192 -0.1633 -0.2932
 2954W        W18571  10.848  12.419  15.497  0.1927 -0.4790 -0.1861
 2955W        W18572   2.586  17.364  11.197 -0.3679  0.1638  0.0105
 2956W        W18573  14.330   1.431  12.155  0.2855  0.0054  0.3864
 2957W        W18574  16.462   2.839   4.451  0.0289 -0.0038 -0.1986
 2958W        W18575   7.581  17.784  12.157 -0.3780  0.1394 -0.1243
 2959W        W18576   7.099   6.382   0.894  0.0710  0.2138 -0.3066
 2960W        W18577   0.172   2.305   2.230 -0.1801  0.1062 -0.1894
 2961W        W18578  17.961  16.218  13.861  0.2450 -0.1827 -0.2131
 2962W        W18579   6.156  10.402  15.294 -0.1078  0.2141  0.1770
 2963W        W18580   4.805  17.161   1.045  0.1989  0.0736 -0.2078
 2964W        W18581   1.312   7.039  13.079 -0.0362 -0.0262 -0.2445
 2965W        W18582   5.178  10.447  15.048  0.0702 -0.1780  0.0946
 2966W        W18583   3.918   4.202  11.414 -0.1832  0.1531 -0.0190
 2967W        W18584   3.913  10.595  12.990 -0.1374  0.0659  0.1226
 2968W        W18585  17.732  12.681   1.064  0.0178 -0.0323 -0.0655
 2969W        W18586   3.155  14.991  15.751 -0.1387 -0.3556  0.0870
 2970W        W18587  13.039  15.885  10.651  0.1169 -0.1072  0.0891
 2971W        W18588  12.940  16.134  14.706 -0.1247  0.2859  0.0197
 2972W        W18589  17.652  17.810   3.249  0.0729 -0.0138  0.0771
 2973W        W18590   0.533   8.838   1.975  0.1373  0.0594  0.2602
 2974W        W18591   2.207  12.332  12.340  0.0860 -0.0227 -0.0880
 2975W        W18592  13.837   8.388   2.544 -0.0811 -0.3443  0.3173
 2976W        W18593  16.260   0.741  12.137 -0.3503 -0.0594  0.0773
 2977W        W18594   2.040   7.706   0.085  0.0056 -0.0172 -0.2294
 2978W        W18595   1.626   0.723   1.854  0.2784  0.2733 -0.3300
 2979W        W18596  11.945  16.197   0.654 -0.3450  0.0233  0.1570
 2980W        W18597  11.793   6.723  10.463  0.2602 -0.0975 -0.0623
 2981W        W18598   3.760  15.267   2.195  0.4207 -0.4954 -0.2160
 2982W        W18599  12.403   4.400   5.356 -0.0229  0.1039 -0.3992
 2983W        W18600   9.971  14.235   2.864 -0.2039  0.0764 -0.0704
 2984W        W18601  11.743   5.585  12.529 -0.3590  0.3222  0.3176
 2985W        W18602   4.446  12.327   3.386 -0.0914 -0.0825 -0.1516
 2986W        W18603   7.469  11.632  11.032 -0.2084 -0.0805 -0.1589
 2987W        W18604   7.600  15.894  13.364 -0.4388  0.2664 -0.2874
 2988W        W18605  12.757   5.318   4.279  0.1261 -0.1912 -0.1108
 2989W        W18606   3.112  15.018   2.128 -0.0558  0.0353 -0.0892
 2990W        W18607   2.874   6.211  12.823 -0.0808  0.0933 -0.0050
 2991W        W18608   5.987   4.855  14.168 -0.0527 -0.0684  0.0249
 2992W        W18609   8.311   1.558   6.162  0.4898 -0.1515  0.0286
 2993W        W18610   1.745   8.581  11.973 -0.0089 -0.1124 -0.1593
 2994W        W18611   0.705  10.445   1.705  0.1333  0.2458 -0.0484
 2995W        W18612  11.786   5.072  12.767  0.4130  0.0134 -0.5383
 2996W        W18613  17.108  11.237   9.490 -0.3444  0.0941  0.2044
 2997W        W18614   5.213   4.413   4.454  0.2678 -0.1453 -0.0234
 2998W        W18615   0.300  11.953  12.316  0.2191 -0.1707  0.0245
 2999W        W18616  14.910  12.935  15.536 -0.0482  0.2634 -0.0411
 3000W        W18617  18.185  10.527  11.176 -0.0344  0.1347 -0.0932
 3001W        W18618   1.923  18.312  11.099 -0.0569 -0.1701 -0.1490
 3002W        W18619  12.429   6.883  13.803  0.0147 -0.0232  0.2864
 3003W        W18620  14.392   1.950   3.722  0.3289  0.0935 -0.1258
 3004W        W18621  17.315  18.447   2.866  0.2769 -0.0504 -0.3232
 3005W        W18622  15.375  13.863  10.643  0.1152  0.1307  0.2791
 3006W        W18623   9.766  13.502   5.698  0.3270 -0.2462 -0.0665
 3007W        W18624  13.037   0.180  13.731  0.0387  0.0754 -0.3000
 3008W        W18625   8.417   8.880  11.467  0.1134 -0.2047 -0.2215
 3009W        W18626  17.311   7.543  11.081 -0.3836 -0.1922 -0.0848
 3010W        W18627  10.141  16.464   0.100 -0.0292  0.0746  0.0025
 3011W        W18628   9.439  18.182   5.572  0.0204  0.1881  0.0951
 3012W        W18629  12.491  11.762  10.565 -0.0084  0.1227 -0.2071
 3013W        W18630  11.578   1.372   2.444  0.2103 -0.1262  0.1289
 3014W        W18631   3.516  18.142  11.229 -0.0493 -0.3100 -0.2253
 3015W        W18632   8.834  15.845  13.907  0.4124  0.0604  0.1527
 3016W        W18633   2.636  15.839   3.852 -0.1757  0.0084 -0.2552
 3017W        W18634  12.315   1.010   5.627  0.2640  0.4396  0.0810
 3018W        W18635  10.025  13.755   2.225  0.0683 -0.1436 -0.0186
 3019W        W18636  14.540   8.171  15.676  0.1525 -0.0907 -0.2506
 3020W        W18637  16.755   1.111   0.481 -0.0182 -0.1270 -0.0924
 3021W        W18638   9.730  16.568   0.305  0.0201 -0.0727  0.0981
 3022W        W18639   7.876  12.472  12.045  0.2087  0.1293  0.2126
 3023W        W18640  11.572   9.632   2.840  0.2580  0.1990  0.2437
 3024W        W18641   5.709  14.255   2.677  0.2603 -0.0513  0.0442
 3025W        W18642   2.101   8.308   2.609  0.1776  0.0852  0.1525
 3026W        W18643  10.956   9.811  11.157  0.2141 -0.0669  0.1157
 3027W        W18644   4.200   8.793   0.619 -0.2689 -0.3450  0.1180
 3028W        W18645  10.259  10.849   1.060 -0.1641 -0.1611 -0.0305
 3029W        W18646  14.118   0.507   6.315  0.1901 -0.2122  0.2394
 3030W        W18647   5.897  11.918  13.855 -0.0281  0.0558 -0.0663
 3031W        W18648   5.386   7.177  14.228  0.1477 -0.1416 -0.0422
 3032W        W18649   3.085   3.422  15.299 -0.3545  0.0683 -0.1114
 3033W        W18650  12.594  16.097  13.154 -0.0223 -0.0353  0.0762
 3034W        W18651  15.581   0.272   4.212  0.0693  0.3085  0.1219
 3035W        W18652   8.705  18.110   1.012  0.0981  0.0169 -0.0400
 3036W        W18653   7.347   6.402   1.647 -0.1176 -0.1006 -0.2794
 3037W        W18654  15.788  15.739  14.888 -0.0344 -0.4033 -0.1229
 3038W        W18655   1.605   6.257   4.813 -0.1201 -0.1630  0.0094
 3039W        W18656   9.267   8.694   6.567 -0.0575  0.2944 -0.0255
 3040W        W18657  15.093   0.968   3.414  0.0016 -0.4036  0.1167
 3041W        W18658   9.066  16.587   3.642 -0.1238  0.0612 -0.2806
 3042W        W18659   5.354  15.871   3.472  0.0919 -0.1132 -0.0506
 3043W        W18660  17.461   8.758   2.078  0.2677  0.1289  0.1357
 3044W        W18661   2.194   5.591  15.217 -0.0566  0.0170 -0.1788
 3045W        W18662  12.679  13.660   2.419 -0.0845 -0.1142  0.2264
 3046W        W18663   1.367   4.357  12.426  0.3289  0.0670  0.0881
 3047W        W18664  13.735   2.601  11.681 -0.2211  0.0710  0.2991
 3048W        W18665  10.423  15.334   0.054  0.1757  0.1784 -0.1797
 3049W        W18666   6.186  16.012   4.290 -0.2947 -0.0992  0.1014
 3050W        W18667  12.826   1.418  14.476  0.2618 -0.0294  0.0110
 3051W        W18668  13.132   4.550   2.823 -0.0408  0.2519 -0.2301
 3052W        W18669  16.661   5.355  14.543 -0.0641  0.0438 -0.1851
 3053W        W18670  18.488   1.341  13.875 -0.2401  0.1999 -0.0808
 3054W        W18671   3.324   2.833   2.644  0.1250 -0.0366 -0.3055
 3055W        W18672  10.959  11.676  12.399 -0.3895 -0.1123 -0.3921
 3056W        W18673  11.510  11.608  10.618 -0.1096  0.0327 -0.1012
 3057W        W18674   2.785   2.988   3.738  0.0280  0.1553 -0.0957
 3058W        W18675  12.987  13.384   3.081 -0.0254  0.0134  0.1222
 3059W        W18676  17.514  13.687   1.271 -0.3023  0.0013 -0.0100
 3060W        W18677   1.954   0.528  11.557  0.1662  0.2192  0.0068
 3061W        W18678  11.376   1.717  14.323  0.1985  0.1555  0.1722
 3062W        W18679  16.439  17.645   0.290 -0.4510  0.2453 -0.0778
 3063W        W18680   3.784   4.980  11.334 -0.3260  0.0711  0.0804
 3064W        W18681  12.057   3.048   1.618  0.1849  0.0019 -0.3021
 3065W        W18682   1.940   3.556  13.468  0.0655  0.3099 -0.0833
 3066W        W18683   6.753  17.707  13.218  0.0062 -0.0013  0.0272
 3067W        W18684   5.939  15.627   4.141  0.2189 -0.1149  0.1665
 3068W        W18685  11.055   9.831   4.936  0.2923 -0.1543 -0.0189
 3069W        W18686  12.214  14.651  14.672 -0.1145  0.0416  0.0394
 3070W        W18687  16.747  15.541  13.698 -0.0422  0.1457  0.0039
 3071W        W18688   0.347  18.417  15.145 -0.2798 -0.4376 -0.1228
 3072W        W18689   4.333  11.685   0.945  0.2091  0.3570 -0.0190
 3073W        W18690   5.494  14.227   4.213 -0.2405 -0.0793 -0.2208
 3074W        W18691   6.080   3.791  12.126  0.1533 -0.2216 -0.3390
 3075W        W18692   8.217  13.646   2.046 -0.0075 -0.0940  0.2757
 3076W        W18693   5.036   9.247  14.113  0.5254 -0.0736  0.2665
 3077W        W18694  12.436   9.596   5.247  0.0338  0.0329 -0.2893
 3078W        W18695   3.409   7.646  13.901 -0.0618  0.0594  0.0571
 3079W        W18696  11.529   3.550   3.716  0.0258 -0.1599  0.0291
 3080W        W18697   3.105   1.374   4.274  0.1578  0.3865  0.1893
 3081W        W18698  15.594   0.031  15.175  0.0298 -0.0142  0.0916
 3082W        W18699  10.944   9.636   0.733  0.4268  0.0794 -0.1501
 3083W        W18700  16.481  16.494  13.618 -0.1906 -0.1014 -0.3579
 3084W        W18701  10.977   0.828   0.401 -0.1423 -0.0117  0.0695
 3085W        W18702  15.061  16.687   4.856 -0.1617  0.1178 -0.1589
 3086W        W18703  10.281   5.074   5.068 -0.1714  0.1546  0.1040
 3087W        W18704   6.772  10.759  12.993 -0.0046  0.1017  0.0534
 3088W        W18705   3.959   2.360   0.124  0.0070  0.3021  0.2332
 3089W        W18706  14.793  17.227  11.568  0.3066 -0.0953 -0.0299
 3090W        W18707  10.856  13.434  11.139  0.0937 -0.1870  0.0831
 3091W        W18708  13.294   5.411   2.951 -0.2051 -0.0267 -0.0657
 3092W        W18709   4.451  11.118  11.866 -0.2164 -0.1917  0.0833
 3093W        W18710   3.554  15.609   0.817  0.1099 -0.0577  0.0211
 3094W        W18711  13.552   0.815   1.174  0.0146 -0.0945 -0.2867
 3095W        W18712  18.272  14.374  14.613  0.2317  0.1112  0.0885
 3096W        W18713   1.271   3.551  12.068  0.0612  0.1226  0.1354
 3097W        W18714   4.986  11.393   0.534 -0.1154 -0.0702 -0.0384
 3098W        W18715  11.490  17.601   3.126 -0.1227 -0.2182 -0.0237
 3099W        W18716   3.231   1.334   5.190 -0.1927  0.0116  0.1645
 3100W        W18717  10.632  17.632   0.382 -0.3384  0.0357 -0.0396
 3101W        W18718  13.806   6.030   4.474  0.1103 -0.0702  0.0867
 3102W        W18719  14.130   5.919   3.627  0.0546  0.1875  0.1497
 3103W        W18720   8.923  16.372  12.955 -0.1325  0.0083  0.2569
 3104W        W18721  17.568  12.524   5.931  0.1592  0.2374  0.0414
 3105W        W18722  18.249   4.383  13.616  0.1279  0.0562  0.2708
 3106W        W18723   2.035  11.689   3.777 -0.0068 -0.1807 -0.2375
 3107W        W18724   6.040   2.181   4.954  0.0558  0.1850  0.1414
 3108W        W18725  18.351   7.308   5.034 -0.0776  0.3248  0.2025
 3109W        W18726  13.398   2.012   2.590  0.2526  0.1507  0.1768
 3110W        W18727  11.510   2.396  10.389  0.2168  0.0549 -0.2402
 3111W        W18728  17.236   3.185   4.557  0.2204 -0.0341  0.0587
 3112W        W18729  16.469  15.413   5.813  0.2554 -0.0241  0.0005
 3113W        W18730   7.079  13.747  12.529 -0.4829 -0.0046 -0.0942
 3114W        W18731   9.123  12.319   0.648 -0.0110 -0.4761 -0.0738
 3115W        W18732  10.423  13.933   4.847 -0.1786  0.0682 -0.1914
 3116W        W18733   1.519   1.194   5.489 -0.1382 -0.0848  0.0914
 3117W        W18734   0.487  14.397  10.983 -0.0037 -0.3216 -0.2831
 3118W        W18735  16.280  16.510   3.503  0.1810 -0.2448 -0.4762
 3119W        W18736   3.421   8.172  11.890  0.0393  0.0627 -0.1239
 3120W        W18737   5.883  10.932   1.388 -0.4674 -0.1471 -0.2049
 3121W        W18738  16.610   4.606   3.800 -0.0505 -0.2344 -0.0046
 3122W        W18739  13.692   2.376   4.511  0.1064 -0.0907 -0.1631
 3123W        W18740   3.310   0.424  14.390  0.1281  0.1373  0.0222
 3124W        W18741   2.240   6.673   0.909 -0.1878 -0.2742 -0.0787
 3125W        W18742   2.660  17.338  11.719 -0.1130 -0.0227 -0.1811
 3126W        W18743  12.333   9.888   0.898 -0.0846  0.0323  0.2879
 3127W        W18744  14.993  13.403  10.654 -0.3399  0.0078 -0.0958
 3128W        W18745  12.090   7.216   1.005 -0.1557  0.0926  0.0788
 3129W        W18746   1.938   0.282   4.376 -0.0950  0.0729 -0.1895
 3130W        W18747  15.729   1.927   0.031  0.0791 -0.0469 -0.0556
 3131W        W18748  15.614   4.340   3.693 -0.1380  0.3694  0.0965
 3132W        W18749  17.385   3.554  15.017 -0.0335 -0.0702  0.0742
 3133W        W18750  13.467  10.365   4.422  0.0265 -0.0379 -0.1688
 3134W        W18751   8.226   7.883  14.680  0.0637  0.1590  0.3011
 3135W        W18752   4.699   7.521   5.171 -0.0895  0.0418  0.1258
 3136W        W18753  13.937   4.220   2.022 -0.1943  0.2844  0.1480
 3137W        W18754   5.784  10.546  10.676 -0.1653  0.2066 -0.0984
 3138W        W18755  11.429   9.556   1.977  0.2060  0.0220  0.2362
 3139W        W18756  16.111  10.582  11.896 -0.1976 -0.2020 -0.0723
 3140W        W18757   0.972   3.130  14.519  0.1774 -0.0158 -0.2043
 3141W        W18758   4.462   6.979  15.284 -0.2055  0.0121 -0.0739
 3142W        W18759  17.238   6.979   0.197 -0.0523  0.1094  0.2372
 3143W        W18760  15.035  15.771   1.725  0.1137 -0.0514  0.1081
 3144W        W18761   2.515  16.672  12.430 -0.1968  0.0999  0.1212
 3145W        W18762  16.294  12.625   0.790 -0.0571  0.0595  0.0650
 3146W        W18763  16.769   6.626   2.833  0.1444  0.2520  0.2140
 3147W        W18764   2.977   3.582   2.969 -0.1742 -0.1806 -0.0924
 3148W        W18765   7.501  17.789   0.927 -0.5459  0.0919 -0.1123
 3149W        W18766   7.792  15.397   0.170  0.0520  0.3518 -0.3965
 3150W        W18767   7.421  15.457  10.013 -0.0171  0.0839 -0.2361
 3151W        W18768  10.699   9.460   1.128 -0.1347  0.1728  0.0085
 3152W        W18769  12.154  10.036  10.362  0.3216 -0.3073  0.1829
 3153W        W18770   0.171   9.989   5.395 -0.1995 -0.2326  0.1324
 3154W        W18771  14.386  14.223   4.839  0.1543 -0.1251  0.3659
 3155W        W18772   0.660  11.343   3.936 -0.2423  0.0348 -0.0458
 3156W        W18773   9.278  11.614  13.968 -0.0580 -0.1658 -0.0875
 3157W        W18774  15.186   9.465  13.074 -0.2003 -0.1270  0.1229
 3158W        W18775   1.015   4.176   5.628 -0.0523 -0.0474  0.3823
 3159W        W18776   0.795   4.506  14.537 -0.0006  0.0752 -0.1043
 3160W        W18777   7.458  16.586  11.791  0.0940 -0.0075  0.2968
 3161W        W18778   0.931   1.544   5.170 -0.1299 -0.0909 -0.0672
 3162W        W18779   1.723   8.580  15.598  0.5709 -0.1120  0.0786
 3163W        W18780  18.527   5.401   1.690  0.0764  0.2058  0.1107
 3164W        W18781  10.003  12.645   1.142  0.0954  0.0469 -0.0800
 3165W        W18782  14.261   5.642   3.061 -0.0921  0.0855 -0.2934
 3166W        W18783   9.092  18.526  13.347  0.2969 -0.2378  0.0468
 3167W        W18784   9.423  14.542  14.075 -0.0204 -0.0738 -0.2396
 3168W        W18785   8.177   7.955   4.056  0.0490  0.1558 -0.0673
 3169W        W18786  15.984  11.182  11.564 -0.1363  0.0551 -0.2720
 3170W        W18787   9.362   8.818  11.207 -0.0284 -0.2172  0.0703
 3171W        W18788   2.929  16.906   4.599 -0.0871 -0.2531 -0.0073
 3172W        W18789   0.517   6.118   1.594 -0.1346  0.1210  0.0342
 3173W        W18790   4.356   3.305   4.958 -0.0780  0.0327  0.0945
 3174W        W18791   7.532  17.123   3.506  0.0548 -0.0786  0.0301
 3175W        W18792   6.174   9.636   1.897 -0.1673  0.2676 -0.1789
 3176W        W18793   0.495  12.265  10.809  0.2503  0.1023  0.0606
 3177W        W18794   1.671   8.409   0.680 -0.1731 -0.1682 -0.3607
 3178W        W18795  14.812  18.379   4.290 -0.1239  0.3822  0.1206
 3179W        W18796   0.477  16.657   3.288 -0.1402 -0.1592  0.0044
 3180W        W18797  14.734  16.207   4.630  0.1158  0.1016  0.1360
 3181W        W18798  18.035   3.358   2.243  0.0293 -0.0585 -0.1528
 3182W        W18799   0.907   0.554  15.728 -0.0421  0.2873  0.0757
 3183W        W18800  12.969  18.447  15.543  0.3185 -0.0249  0.0140
 3184W        W18801   4.161  11.453   0.339  0.1014  0.0769  0.1460
 3185W        W18802  14.755   1.574  15.141  0.0729  0.0454  0.2024
 3186W        W18803  18.106  12.627  14.173 -0.0846 -0.1063 -0.1686
 3187W        W18804  10.346  12.924   2.256 -0.2675  0.0050 -0.1077
 3188W        W18805   5.868   8.945   3.339 -0.0891  0.1241  0.3210
 3189W        W18806   2.572  11.343  13.915 -0.1575  0.0854 -0.0448
 3190W        W18807   9.385   4.698   0.561  0.1425  0.0238 -0.2160
 3191W        W18808  16.925  16.579  11.337  0.2751  0.2122  0.1259
 3192W        W18809  17.391   6.117  12.999  0.0638  0.1012  0.1153
 3193W        W18810   6.125   6.369   5.683  0.1260  0.0951  0.2532
 3194W        W18811   4.872  18.496  11.211 -0.2054 -0.4009 -0.2002
 3195W        W18812  18.625   9.710  11.883 -0.2340  0.3392  0.3093
 3196W        W18813  12.716  12.492   5.281 -0.1951  0.1246 -0.3658
 3197W        W18814  15.115   3.523  13.996 -0.0495 -0.2044 -0.1633
 3198W        W18815  13.420  13.080   4.437  0.1987 -0.1874 -0.3452
 3199W        W18816   0.591   4.322   0.043 -0.2245 -0.1203  0.2398
 3200W        W18817  15.654  17.013  13.714 -0.0941 -0.2065 -0.2319
 3201W        W18818   8.506   6.181   5.772  0.1857 -0.0017 -0.0884
 3202W        W18819   7.817  15.223  15.457 -0.0694  0.0607 -0.1136
 3203W        W18820   0.978   8.820   0.021 -0.3946  0.1248 -0.3640
 3204W        W18821  17.536   8.692   1.313 -0.0530  0.2011 -0.0696
 3205W        W18822  11.731  17.795   3.559  0.0951  0.2753 -0.1984
 3206W        W18823   7.788  15.363   0.734  0.1330 -0.2597 -0.0978
 3207W        W18824   3.360  10.586  12.979  0.1593 -0.0408  0.2326
 3208W        W18825   0.212   0.286   2.169 -0.0107  0.2110 -0.1012
 3209W        W18826  12.057   6.143  12.806 -0.3031  0.1614 -0.2974
 3210W        W18827   3.365  16.304   2.096 -0.1014  0.1312  0.1032
 3211W        W18828   5.231  12.870   0.785 -0.2443  0.3297 -0.1923
 3212W        W18829  11.597   7.172   2.556 -0.4065 -0.1800  0.0906
 3213W        W18830   7.733   8.533   0.452  0.2684 -0.0299 -0.1800
 3214W        W18831   8.984   1.433   2.135  0.0898  0.3695  0.0794
 3215W        W18832   0.721  14.811   2.404  0.0433 -0.0494  0.1740
 3216W        W18833  11.750  16.827   4.667 -0.1827  0.0240 -0.0016
 3217W        W18834   9.723   5.673   3.939  0.1930  0.1195  0.1492
 3218W        W18835  16.395   8.946  10.957  0.0182  0.1338  0.0149
 3219W        W18836  10.480   7.826   3.148  0.0927 -0.2632  0.1477
 3220W        W18837  15.284  18.237   4.781 -0.1161 -0.1992  0.1467
 3221W        W18838   8.965   9.311  12.079  0.0334 -0.0808 -0.1245
 3222W        W18839   7.587  11.066  15.317  0.0227 -0.3751  0.5249
 3223W        W18840   4.094   8.276   1.558  0.4491  0.1761 -0.0348
 3224W        W18841  12.876   1.656   0.345 -0.1121 -0.1797 -0.3439
 3225W        W18842  13.515  18.225   2.780  0.2171  0.0919  0.2743
 3226W        W18843  16.504  11.088   4.407  0.0259  0.0387  0.2391
 3227W        W18844  13.693   3.250   3.699  0.1381  0.3219 -0.2214
 3228W        W18845   1.499   3.354  11.147  0.0556  0.1631 -0.2336
 3229W        W18846   5.968   8.002   1.403  0.2830 -0.2209 -0.0498
 3230W        W18847  13.909  11.194   0.240  0.0718  0.2797 -0.0008
 3231W        W18848   1.733  10.552   5.396  0.0441 -0.6292  0.0379
 3232W        W18849  15.409   4.784   1.449  0.0592  0.0236 -0.0029
 3233W        W18850   8.861   1.439  14.429 -0.1093 -0.0503 -0.3100
 3234W        W18851   4.673  10.587  14.032 -0.0644 -0.1033  0.1904
 3235W        W18852   7.491  12.876  14.197 -0.1421 -0.0492  0.1466
 3236W        W18853   9.816  14.907   1.064  0.0265 -0.0270  0.0547
 3237W        W18854   6.734  10.279   4.174 -0.3058  0.0980  0.2170
 3238W        W18855   8.749  18.637   1.363  0.0936  0.0402  0.4249
 3239W        W18856  11.977   1.783   3.979 -0.0539 -0.1848 -0.0429
 3240W        W18857  17.275   3.315  15.486  0.1161 -0.1433 -0.2762
 3241W        W18858  16.925  14.956   4.529  0.0599  0.1516 -0.0721
 3242W        W18859   8.479  17.623   5.095  0.0525  0.0789  0.0935
 3243W        W18860   5.297  11.160   2.782 -0.3098 -0.1250  0.0691
 3244W        W18861  15.193  16.850   1.922  0.0580 -0.0975 -0.1263
 3245W        W18862  14.757   7.677   9.962  0.2224  0.2026 -0.2938
 3246W        W18863   3.618  15.298  13.163 -0.1407 -0.1206  0.1694
 3247W        W18864   9.253   0.479  14.061  0.0584 -0.0871 -0.3331
 3248W        W18865   3.036  10.518  14.194  0.1940  0.2479 -0.1022
 3249W        W18866   8.586  16.279   2.240 -0.0625  0.1238 -0.0333
 3250W        W18867   2.857  18.646   4.119 -0.1142  0.1968  0.1395
 3251W        W18868   1.966  13.155   4.382  0.3230 -0.1456 -0.0191
 3252W        W18869   2.196  11.928   1.061  0.1041  0.1656  0.1328
 3253W        W18870  10.138   2.407   2.749 -0.2099 -0.0882  0.4048
 3254W        W18871  11.736   8.638  14.074  0.0049  0.1376  0.0069
 3255W        W18872  15.594   1.722  12.365 -0.1806  0.0216  0.2535
 3256W        W18873   7.293  14.807  12.066 -0.0420  0.0634  0.0019
 3257W        W18874   1.561   3.300   3.223  0.2256 -0.3596 -0.0012
 3258W        W18875  14.410   6.014   4.030 -0.0255  0.1443  0.1555
 3259W        W18876   9.787   7.783  14.312 -0.0385 -0.1559 -0.0834
 3260W        W18877  11.616  13.970  14.394 -0.0912 -0.4235 -0.0675
 3261W        W18878   5.673  14.358  10.885 -0.1948 -0.3077 -0.2406
 3262W        W18879   7.473  16.231  14.802  0.0851  0.1180  0.2499
 3263W        W18880   8.766   4.863   4.830  0.1960  0.1694  0.0189
 3264W        W18881   7.759  18.120  15.167  0.1757 -0.0474 -0.2754
 3265W        W18882   9.384   1.278   2.527  0.1503  0.2582  0.3936
 3266W        W18883   0.144   8.771   4.709  0.1413  0.2575 -0.2910
 3267W        W18884  18.637   1.309  15.064 -0.0406 -0.0768  0.1780
 3268W        W18885   3.691   2.220  14.029  0.2329 -0.1265  0.1950
 3269W        W18886   2.399   4.265   3.744 -0.1157 -0.1801  0.1742
 3270W        W18887   5.916  14.295  11.324  0.2464  0.0999 -0.3216
 3271W        W18888  10.095  17.368   2.522  0.2142  0.1704 -0.0172
 3272W        W18889  15.310  18.508  11.472 -0.1146 -0.0933  0.1254
 3273W        W18890  12.758   4.428   0.475  0.0929 -0.0272  0.1245
 3274W        W18891  18.558   4.022  13.408  0.0322 -0.1906  0.1749
 3275W        W18892  14.422  12.212  11.912 -0.2019  0.2635 -0.1136
 3276W        W18893  14.405   8.599  14.390 -0.1501 -0.0006 -0.0190
 3277W        W18894  17.936  18.613  15.080 -0.4625  0.0972  0.0947
 3278W        W18895   7.247   0.147   1.986  0.0730 -0.0208 -0.0520
 3279W        W18896  14.914   9.640  11.232  0.1419 -0.0448 -0.1649
 3280W        W18897  11.699  18.464  13.272  0.4035  0.2036 -0.1522
 3281W        W18898   8.388  16.154   5.066 -0.1374 -0.1149  0.0595
 3282W        W18899   8.964  18.509  12.806  0.1029 -0.2640  0.1093
 3283W        W18900   5.669  13.343  15.250  0.0586  0.1629  0.2464
 3284W        W18901  12.954  17.073   1.193 -0.1802 -0.2271 -0.0474
 3285W        W18902   2.560  12.629  12.788 -0.0824 -0.0228 -0.1246
 3286W        W18903   1.560  11.342   0.570 -0.0153  0.0838 -0.0828
 3287W        W18904   3.075  13.512  10.404  0.2342 -0.0335 -0.3048
 3288W        W18905   5.592  14.307   4.792 -0.0262 -0.0028  0.1168
 3289W        W18906   5.189  13.274   4.982 -0.0380 -0.2023  0.1304
 3290W        W18907  15.181  17.935  14.427  0.1487  0.3058 -0.0855
 3291W        W18908   2.410   0.926  15.377  0.1011 -0.0706 -0.0956
 3292W        W18909  17.000  15.629  11.396  0.3283 -0.0599  0.0589
 3293W        W18910   5.631   4.142  11.463  0.0522  0.0539  0.0234
 3294W        W18911  18.582   2.680  13.714  0.0054  0.0661 -0.0179
 3295W        W18912   4.539   2.549  14.061  0.2331 -0.1098  0.1012
 3296W        W18913  17.932  14.159   3.281 -0.3814  0.1821  0.3254
 3297W        W18914   4.642  15.210   3.234 -0.1720 -0.4527 -0.1588
 3298W        W18915   2.797   0.272   0.791 -0.0682 -0.0565  0.1716
 3299W        W18916  14.138   5.916  11.731  0.2456  0.0593  0.0414
 3300W        W18917  10.464   6.530  13.572  0.1211 -0.1005  0.0004
 3301W        W18918   9.316   0.719  10.063 -0.0225  0.2326  0.0602
 3302W        W18919  10.699  17.184   4.374 -0.0188 -0.2146  0.0359
 3303W        W18920   9.337   6.892  10.709 -0.1702  0.0914 -0.2519
 3304W        W18921   2.493  10.123   4.409  0.3316  0.1052 -0.0181
 3305W        W18922  11.481  16.163  11.567 -0.0596  0.1347  0.1061
 3306W        W18923  16.145  16.701  12.022  0.0442 -0.0142  0.1187
 3307W        W18924   0.764   1.755   1.282  0.3679  0.1995  0.1580
 3308W        W18925   8.073  16.319  10.607 -0.1219  0.0395 -0.2927
 3309W        W18926   3.955  13.988  13.853 -0.2883 -0.5440 -0.1313
 3310W        W18927   2.802  17.633   3.279 -0.0860 -0.2300  0.0419
 3311W        W18928   7.928  13.909  12.464 -0.0755  0.1729  0.2328
 3312W        W18929  16.362   9.133   0.404  0.0251  0.2067 -0.1166
 3313W        W18930  16.619  17.139   2.801  0.0235  0.0501 -0.3854
 3314W        W18931   1.334   6.012  15.673  0.1843 -0.2478  0.1084
 3315W        W18932   3.171   1.054  14.379  0.2153  0.1624  0.0972
 3316W        W18933  13.029   5.555  12.741 -0.2067 -0.1167 -0.0592
 3317W        W18934  11.978   6.347  15.171  0.2972 -0.1347  0.2704
 3318W        W18935   1.722   0.670  11.085 -0.2960 -0.4123 -0.0410
 3319W        W18936  11.351  15.562  15.111 -0.2123 -0.3078 -0.0174
 3320W        W18937  17.338  15.950  14.084 -0.3765  0.0868 -0.4020
 3321W        W18938   7.886   5.753   0.791 -0.1991 -0.0666 -0.2157
 3322W        W18939   2.286   0.106  12.745  0.1222 -0.2512  0.4531
 3323W        W18940   1.521   4.330   5.040  0.0680  0.0242 -0.3055
 3324W        W18941   7.485   8.510  11.034  0.4209  0.0241 -0.0925
 3325W        W18942  16.126  16.336   2.746 -0.2159  0.2007  0.1642
 3326W        W18943   1.083   9.030   3.621 -0.1657  0.4118 -0.0596
 3327W        W18944   8.828   9.858  13.622  0.1617 -0.1791 -0.2573
 3328W        W18945   1.726   7.979   1.406  0.2222  0.1115  0.2690
 3329W        W18946   4.871  17.901   2.611  0.0683 -0.1080  0.0043
 3330W        W18947   7.086   0.387  15.321  0.2737 -0.0493  0.1276
 3331W        W18948   7.480   5.864  11.159 -0.0316 -0.2701  0.4374
 3332W        W18949   0.059  17.082   0.973  0.2178  0.1149  0.1808
 3333W        W18950   6.479  12.439  10.236  0.1164 -0.0533 -0.0907
 3334W        W18951   6.889  13.438  14.322  0.3549 -0.2321  0.2092
 3335W        W18952  15.879  16.272   3.533  0.2479 -0.1703 -0.0730
 3336W        W18953   2.487   0.938   1.408  0.1155  0.0447  0.2823
 3337W        W18954   1.236  15.093  13.771 -0.2370 -0.1444  0.3119
 3338W        W18955   2.100  15.264  11.353  0.4180 -0.1595  0.1299
 3339W        W18956  12.615  16.905   4.339  0.0338 -0.0035 -0.1154
 3340W        W18957   5.473   4.447  13.683 -0.0572  0.1526  0.0267
 3341W        W18958  11.185   0.842   1.946 -0.2907 -0.3223  0.2401
 3342W        W18959   8.776  10.681   0.664 -0.0771  0.0599 -0.2029
 3343W        W18960   1.110   4.442   2.716  0.0404  0.0374  0.1642
 3344W        W18961  18.225   5.471  13.808  0.0240 -0.3065  0.2141
 3345W        W18962   9.043  10.794   9.645 -0.1616  0.0467 -0.2210
 3346W        W18963   4.762   7.108   0.542 -0.2710  0.1809 -0.2274
 3347W        W18964   5.321  10.595  12.826  0.0684 -0.2983  0.1378
 3348W        W18965  14.555  11.402   3.876 -0.0535  0.1334  0.3388
 3349W        W18966  11.642   0.762   2.894 -0.1948  0.3966 -0.1127
 3350W        W18967  12.230   6.689  14.711  0.1630 -0.0454  0.0484
 3351W        W18968  14.913   7.094  10.736 -0.0986 -0.1274  0.3472
 3352W        W18969  10.058   5.343   4.254 -0.3239  0.1109  0.5340
 3353W        W18970   2.468   3.430   4.731 -0.2093  0.2261 -0.0543
 3354W        W18971  14.316   1.799  14.499  0.0727  0.0310  0.1259
 3355W        W18972  13.048  18.462   3.884 -0.1294 -0.0864 -0.2699
 3356W        W18973   4.168   3.391   2.512 -0.2197  0.2433  0.0144
 3357W        W18974  10.345  15.030  10.218 -0.2963 -0.0330  0.0025
 3358W        W18975  14.000  16.566   5.207  0.0222  0.0556 -0.0288
 3359W        W18976   6.991  18.321   5.174  0.0745  0.0205 -0.2123
 3360W        W18977  11.005   9.246   1.976 -0.1169  0.0992 -0.0789
 3361W        W18978  10.200  16.133   2.851 -0.0685 -0.0604 -0.3401
 3362W        W18979   8.392   1.080  15.505 -0.1130 -0.0390  0.2368
 3363W        W18980  11.673   2.055  13.798 -0.2740 -0.0411  0.0961
 3364W        W18981  18.433   6.191  10.648 -0.0644 -0.3232 -0.0921
 3365W        W18982  14.766  18.226   4.813  0.2631  0.0914  0.3076
 3366W        W18983   4.776   7.548  11.921 -0.4455 -0.0820  0.2893
 3367W        W18984   3.000  12.121  15.478 -0.1931 -0.2448  0.0790
 3368W        W18985  10.301  15.522   2.226 -0.1229 -0.0860 -0.0966
 3369W        W18986  15.129   8.179   3.583 -0.2823  0.1072  0.1385
 3370W        W18987   3.325  10.709   0.859  0.2467 -0.2745 -0.3115
 3371W        W18988   2.285  15.338   1.506  0.1431  0.3121  0.0514
 3372W        W18989  18.263   6.805   3.530 -0.0965  0.1700 -0.0727
 3373W        W18990  11.453   6.848   4.345  0.1179  0.3191  0.0241
 3374W        W18991   2.873   9.161  12.561 -0.1837  0.0776  0.3143
 3375W        W18992   0.742   1.676  11.647 -0.0508 -0.0850 -0.0288
 3376W        W18993  17.785  12.745  13.790  0.2050  0.1535 -0.4892
 3377W        W18994   3.693   1.188   3.344 -0.1775 -0.0706 -0.0910
 3378W        W18995  14.932  15.548   1.035  0.1025 -0.3410  0.2188
 3379W        W18996  11.752   3.714  15.172 -0.0541 -0.0238 -0.1226
 3380W        W18997   0.590   4.761   1.117  0.1796  0.0353  0.1720
 3381W        W18998  11.223   2.372  14.980  0.0958 -0.5075 -0.0290
 3382W        W18999  12.257  16.438   1.046 -0.0362 -0.2356  0.0549
 3383W        W19000   0.529   6.485   0.777  0.2214  0.0887 -0.2378
 3384W        W19001  16.672  12.399   1.560 -0.1061 -0.0902 -0.3428
 3385W        W19002  17.437  16.924  14.902 -0.0662 -0.0085 -0.3312
 3386W        W19003   7.005   5.072   2.047 -0.2150  0.1393 -0.1848
 3387W        W19004  16.540  10.134   0.569  0.1023 -0.2521  0.4040
 3388W        W19005   1.406  18.055  13.032 -0.3371 -0.1020  0.2622
 3389W        W19006   9.304  17.763   3.033  0.1542  0.0935  0.0120
 3390W        W19007  12.282  16.689   4.754 -0.2382 -0.2273 -0.0530
 3391W        W19008   3.719   5.528  11.369 -0.0900 -0.1995  0.1222
 3392W        W19009   3.310   8.715   3.126  0.0126  0.0398  0.2201
 3393W        W19010  14.660   4.663   0.997 -0.0450 -0.1479  0.0330
 3394W        W19011  10.855   9.149   0.017 -0.2026  0.0760 -0.3647
 3395W        W19012  14.296  11.048  15.594 -0.0327 -0.1060 -0.1139
 3396W        W19013   6.806  16.080   5.398 -0.1369 -0.0893  0.2508
 3397W        W19014  18.045   0.103   1.073  0.1481 -0.1214 -0.1342
 3398W        W19015   7.877   2.344  13.691 -0.0367  0.0281  0.1936
 3399W        W19016  11.430   4.153   0.782  0.0422 -0.1173  0.2187
 3400W        W19017   8.849   1.129   4.740 -0.2158  0.1404 -0.1601
 3401W        W19018   5.794  16.968  13.248 -0.0712  0.2637 -0.1593
 3402W        W19019  13.568   2.389   2.875 -0.1926 -0.0716  0.1687
 3403W        W19020   9.107  15.528   1.205 -0.4507 -0.1543  0.0662
 3404W        W19021   6.543  10.948  12.535 -0.0357 -0.0673 -0.0095
 3405W        W19022   4.614   9.474  11.705 -0.1683  0.0378 -0.2829
 3406W        W19023  16.336  12.433   4.932 -0.0655  0.2697  0.1695
 3407W        W19024   7.363  12.826   3.621 -0.1211  0.0143 -0.0247
 3408W        W19025   2.561   8.153   1.155  0.0367 -0.4152 -0.1295
 3409W        W19026   4.774  11.092  14.022 -0.1020  0.2871 -0.0996
 3410W        W19027   1.236   3.554   0.039 -0.0421  0.1895  0.1042
 3411W        W19028  18.397   5.378  10.907  0.1681  0.0433 -0.4744
 3412W        W19029   6.335  14.685   3.874  0.1348 -0.0534 -0.1308
 3413W        W19030   6.930   7.156  12.625  0.1142 -0.3584  0.0961
 3414W        W19031   0.634   3.552   4.678 -0.2083 -0.2071 -0.0181
 3415W        W19032   8.018  17.956   5.139  0.0969 -0.1189 -0.4395
 3416W        W19033  16.744  16.149   2.680  0.1558 -0.0196 -0.2138
 3417W        W19034   8.551   5.823   3.512 -0.1070 -0.0596 -0.1106
 3418W        W19035  17.457  11.099   5.814 -0.3636  0.1075  0.2302
 3419W        W19036  13.945   8.934  14.128  0.1717 -0.1109  0.2961
 3420W        W19037   2.351   1.181   4.419  0.3296 -0.0098  0.1125
 3421W        W19038   8.538   0.197   5.093  0.1981  0.2472 -0.1678
 3422W        W19039  15.924   3.612   4.864 -0.1078  0.1399  0.2549
 3423W        W19040   0.153  12.414  12.598 -0.3026  0.1392 -0.1410
 3424W        W19041   5.521  13.553  11.640  0.1515  0.2259  0.0101
 3425W        W19042  14.625  17.820  12.007  0.2024  0.4365  0.1127
 3426W        W19043   3.476   1.126  12.502  0.4692  0.2881  0.2245
 3427W        W19044   1.016   7.739   0.750  0.0593  0.3331 -0.2443
 3428W        W19045  14.127   9.078   0.666  0.2704  0.2453  0.0451
 3429W        W19046  10.260  17.246   0.148 -0.0931  0.1369  0.1977
 3430W        W19047  17.456  11.925  14.756  0.2016 -0.0329 -0.1275
 3431W        W19048  10.509  18.440  14.722 -0.1496 -0.0832  0.0677
 3432W        W19049   8.096  12.155  10.238  0.2467  0.0337 -0.0519
 3433W        W19050  17.037  18.627  12.112 -0.1704  0.1199 -0.1831
 3434W        W19051   5.510  11.406   1.335 -0.0824 -0.0843  0.3036
 3435W        W19052  14.294  10.290  12.613 -0.4792 -0.0894 -0.0539
 3436W        W19053   1.958  12.245   3.531 -0.0472 -0.1153 -0.2197
 3437W        W19054   3.808  15.116   3.642 -0.2082  0.2390  0.0877
 3438W        W19055  17.567   3.926  12.930 -0.1211 -0.3102  0.1091
 3439W        W19056   0.994   6.279  15.103 -0.1316 -0.0856 -0.2092
 3440W        W19057   5.953   7.451   1.746 -0.3357 -0.1107  0.2052
 3441W        W19058   6.723   0.563  15.685 -0.0648 -0.1106  0.0433
 3442W        W19059   0.853  11.465  13.250  0.1681  0.0500 -0.2313
 3443W        W19060  11.822  11.586  12.046  0.0605  0.1365  0.0334
 3444W        W19061   4.178   9.806  11.369 -0.2569  0.1237 -0.0829
 3445W        W19062   2.105   2.682   3.955 -0.0028 -0.0564 -0.0234
 3446W        W19063   5.638   7.481  15.061 -0.0300  0.0951 -0.2767
 3447W        W19064   2.849   4.469   2.077  0.1096 -0.0606  0.3557
 3448W        W19065  16.378  18.580  13.395 -0.0783  0.2082  0.0363
 3449W        W19066   7.679   2.036  12.643 -0.1652 -0.1434 -0.1672
 3450W        W19067  13.872  17.706  11.558  0.0187  0.2257  0.1415
 3451W        W19068   0.950   8.223  10.771  0.2361  0.1200  0.1328
 3452W        W19069  17.464  17.212  13.232 -0.1944 -0.0167 -0.0210
 3453W        W19070   3.682  15.162  11.637  0.1241 -0.3650  0.3818
 3454W        W19071   1.145   5.223   4.263  0.0986  0.3693  0.0178
 3455W        W19072  10.509  16.785   6.034  0.1527  0.2469 -0.0434
 3456W        W19073  11.876   0.312  11.807 -0.0597  0.1741  0.3172
 3457W        W19074  12.190  14.045   2.119 -0.1303 -0.0033 -0.1741
 3458W        W19075  10.186  10.564  12.896  0.1096 -0.1630 -0.0704
 3459W        W19076  14.384  12.679   4.020  0.1058  0.2165 -0.3112
 3460W        W19077   4.133  13.263   1.846  0.4443  0.0285 -0.0297
 3461W        W19078  16.908   7.960  12.585 -0.2932 -0.0297  0.3166
 3462W        W19079   3.678   6.828   3.603 -0.2088  0.1759 -0.2170
 3463W        W19080  12.733  13.440  14.784  0.0062  0.3909  0.4778
 3464W        W19081   8.435  15.866  14.254 -0.0035  0.2419 -0.0817
 3465W        W19082   0.109  18.127   4.214  0.3885 -0.1180 -0.0964
 3466W        W19083  15.324  14.859   1.473  0.1366  0.1868  0.1313
 3467W        W19084   6.753  15.426   0.385 -0.2391 -0.0833  0.1687
 3468W        W19085   9.859   4.031   1.898 -0.0361 -0.1548 -0.1139
 3469W        W19086   3.800   6.401   5.691 -0.2595  0.1869  0.1295
 3470W        W19087   8.065  14.908   2.537 -0.0015  0.1677 -0.2190
 3471W        W19088   6.684   0.531   0.869  0.1031  0.0480 -0.0453
 3472W        W19089   5.138  12.823  13.672  0.2878 -0.1595 -0.4022
 3473W        W19090   0.012   7.052   3.181  0.1311 -0.2756 -0.0936
 3474W        W19091  15.407  13.849   2.250  0.0942  0.0964  0.1123
 3475W        W19092   7.671   3.032   2.953  0.0041 -0.2944  0.2403
 3476W        W19093  12.592   0.804   1.076  0.0989 -0.2209  0.2652
 3477W        W19094  11.842   8.401   5.615  0.1463  0.0163  0.4789
 3478W        W19095  16.360   8.512  11.846  0.1125  0.1686 -0.0864
 3479W        W19096   9.604   8.100   1.822  0.0957  0.2184  0.1678
 3480W        W19097  11.031  10.262  15.090 -0.2964 -0.1255  0.1291
 3481W        W19098  18.147  18.376  13.121 -0.0016  0.0180  0.0761
 3482W        W19099  17.260   7.663  14.832 -0.2166 -0.0543  0.0153
 3483W        W19100   2.209   2.744  12.295  0.1136 -0.1817  0.0152
 3484W        W19101   6.344  10.583   4.404 -0.3412  0.1877  0.1250
 3485W        W19102   1.798  10.577  15.652 -0.2001 -0.1657  0.3731
 3486W        W19103   3.507  15.686   2.035 -0.0440 -0.0087 -0.0204
 3487W        W19104   4.051   5.798  14.129  0.3754  0.0708  0.4536
 3488W        W19105   5.731  15.614  11.356 -0.1234 -0.2638 -0.0290
 3489W        W19106   7.875  14.557   0.438 -0.0891 -0.2181 -0.0239
 3490W        W19107   1.854   6.023  10.198 -0.2601 -0.0048  0.1175
 3491W        W19108  16.251   3.271  11.555  0.1559  0.2474 -0.1242
 3492W        W19109  13.657   2.846   1.760 -0.3150  0.2497  0.0406
 3493W        W19110  13.845  10.012   0.646  0.0408  0.1799 -0.0632
 3494W        W19111   6.436  13.698  10.767 -0.1576  0.0618 -0.1080
 3495W        W19112   5.202  13.301  13.564  0.0828 -0.1630 -0.1330
 3496W        W19113   8.268  12.516  13.389  0.1269 -0.2585  0.1379
 3497W        W19114   4.227  18.099   4.414  0.2081 -0.0014 -0.2081
 3498W        W19115   6.736  14.615   4.266 -0.1686  0.2863 -0.0351
 3499W        W19116   7.903  17.985   3.857  0.0407  0.1571 -0.1198
 3500W        W19117   2.669   6.671   0.649 -0.0203  0.3777 -0.2100
 3501W        W19118   9.027   7.058   5.688  0.1989  0.0409  0.0752
 3502W        W19119   5.152   8.096  15.740  0.1304 -0.1946  0.1019
 3503W        W19120   8.604  14.918  12.881  0.2567 -0.0406  0.0732
 3504W        W19121   7.913   1.227   4.161 -0.0155  0.3129 -0.1498
 3505W        W19122   9.693  10.964  14.982 -0.1687 -0.1600 -0.1615
 3506W        W19123   8.544  11.203   0.432 -0.1408 -0.2146 -0.1085
 3507W        W19124   3.146   3.720  11.254 -0.1103  0.1037  0.2736
 3508W        W19125  11.589  11.455  15.105  0.0607  0.3027  0.0230
 3509W        W19126   3.059  13.388   3.623 -0.1464  0.6176  0.2630
 3510W        W19127   4.750   8.435  15.179  0.1806 -0.1800  0.0334
 3511W        W19128   5.744   8.571  15.690 -0.2659  0.0838  0.0694
 3512W        W19129   6.095  18.388   1.630  0.0476 -0.2316  0.1165
 3513W        W19130   5.927   1.437  12.287 -0.3297 -0.0188 -0.1419
 3514W        W19131  11.663   0.646   2.032  0.0571 -0.2467  0.1120
 3515W        W19132   9.702  11.281   5.183  0.3006 -0.0272 -0.0148
 3516W        W19133   0.959   6.035  13.853  0.0945 -0.0367 -0.1325
 3517W        W19134  16.725   8.327   4.746 -0.0349 -0.1098 -0.0719
 3518W        W19135  14.548  12.997  14.953  0.1737  0.4820 -0.2336
 3519W        W19136   5.374   6.271   0.178  0.1471  0.0531 -0.2378
 3520W        W19137  17.537   1.754   2.434  0.0603  0.1383 -0.0611
 3521W        W19138   7.648  10.990  13.123 -0.3348  0.0047  0.1323
 3522W        W19139  11.518  17.153   5.031  0.1676 -0.2364 -0.4421
 3523W        W19140   6.419   8.299  14.763 -0.0307  0.0711  0.1322
 3524W        W19141  15.807   1.556   3.447  0.1044 -0.3401 -0.3699
 3525W        W19142   1.570   4.973  11.852  0.4774  0.1672 -0.2237
 3526W        W19143  16.894   5.720   0.827 -0.4801  0.2682 -0.1954
 3527W        W19144   1.296  16.558   3.638  0.0629 -0.1359 -0.2566
 3528W        W19145  17.227  12.405   4.926 -0.0598  0.1886 -0.0989
 3529W        W19146   6.431  16.627   2.400  0.1164  0.0132 -0.1050
 3530W        W19147  13.495   1.775  10.397 -0.0847 -0.0878 -0.4937
 3531W        W19148  17.145   7.940   3.458  0.0055  0.0754 -0.0971
 3532W        W19149  12.162  13.006  13.422  0.1196 -0.2989  0.1982
 3533W        W19150  15.863   8.603   4.363 -0.0181 -0.1766  0.0107
 3534W        W19151   0.145  12.564   3.580  0.1848 -0.0790 -0.0118
 3535W        W19152   4.283  12.450  15.516  0.1063 -0.0066 -0.1802
 3536W        W19153  17.359  17.581  12.119 -0.0800 -0.1288 -0.0379
 3537W        W19154   9.052  17.032   1.884 -0.0481  0.0501  0.2720
 3538W        W19155   0.262  12.183  11.483 -0.0039  0.2272  0.2079
 3539W        W19156   0.336  13.989  12.652  0.3112 -0.0720  0.2074
 3540W        W19157   0.796   1.138   4.914 -0.2448 -0.2187  0.2930
 3541W        W19158  12.458  13.898  11.811 -0.3439 -0.0055 -0.2433
 3542W        W19159  16.795  12.787  15.288 -0.4212  0.1718  0.0798
 3543W        W19160  14.943   1.172  14.883 -0.4041  0.1742  0.1588
 3544W        W19161  16.137  13.131  14.606  0.1691 -0.1387  0.2743
 3545W        W19162  16.211  17.981   3.228 -0.0723  0.4273 -0.2818
 3546W        W19163   7.068  14.329   2.912 -0.3972  0.0686 -0.1610
 3547W        W19164  10.095   8.202  14.521 -0.1124  0.2358  0.0154
 3548W        W19165   2.840   8.734  11.377  0.1255 -0.3682  0.1111
 3549W        W19166   5.587  14.587  11.742 -0.0561  0.0370  0.0326
 3550W        W19167   3.625  12.385   5.426  0.0714  0.1767  0.1050
 3551W        W19168   8.124   2.220   3.708 -0.0278 -0.4398 -0.2953
 3552W        W19169  10.807  16.466  13.441  0.2271  0.0497 -0.0300
 3553W        W19170  10.122   1.522  15.415  0.0993 -0.1039 -0.0862
 3554W        W19171  16.055   5.686  10.508 -0.1561  0.1290 -0.0043
 3555W        W19172   9.796   9.565   5.039 -0.0443 -0.0972  0.1604
 3556W        W19173   8.267  13.954  14.518 -0.1576 -0.3022  0.2545
 3557W        W19174   7.825   7.496   2.853 -0.2103  0.0674 -0.1278
 3558W        W19175   4.459   5.633   3.450 -0.1132 -0.0811 -0.2123
 3559W        W19176  10.342   5.697   4.788 -0.0899 -0.3251 -0.1024
 3560W        W19177  11.444  11.496  11.194  0.1937 -0.1228  0.0958
 3561W        W19178   0.072  13.568  15.489 -0.2269 -0.3068 -0.3744
 3562W        W19179  13.801  16.083   5.220  0.1452  0.1219  0.1958
 3563W        W19180  13.589  12.604  14.079 -0.2494 -0.1877 -0.1137
 3564W        W19181  11.370  16.319   1.943 -0.1412  0.0455 -0.7337
 3565W        W19182  10.448  10.734  11.547 -0.1249  0.1005  0.0674
 3566W        W19183  16.463   1.251  13.182 -0.1077 -0.2833  0.1695
 3567W        W19184  17.146   4.360  12.286 -0.0262  0.0658 -0.1786
 3568W        W19185   6.523   7.840   1.134 -0.0501 -0.0679  0.1751
 3569W        W19186  16.590  17.309   1.216 -0.1853  0.2785 -0.2140
 3570W        W19187  18.443   3.264   3.362 -0.0867 -0.3200 -0.1228
 3571W        W19188   2.923  16.806  10.517  0.1714  0.0624 -0.0123
 3572W        W19189  13.507   3.023   0.439 -0.0209 -0.1966  0.4785
 3573W        W19190   9.953   4.716   5.761  0.0283  0.3481 -0.2424
 3574W        W19191  10.448   5.096   1.713  0.1237 -0.1690 -0.2004
 3575W        W19192  18.572  13.220   1.464  0.0781  0.0508 -0.0355
 3576W        W19193  15.376   8.568   3.404  0.0750 -0.0575  0.1430
 3577W        W19194   2.366  16.755   0.978 -0.0146  0.0001 -0.1855
 3578W        W19195   4.962  11.846   5.129  0.3210  0.3101  0.2351
 3579W        W19196  15.022  10.541   0.943  0.2001  0.1662 -0.0350
 3580W        W19197  17.467   1.229   6.250  0.2292  0.0797 -0.3645
 3581W        W19198  11.474  11.828   4.105 -0.0000  0.3359  0.1744
 3582W        W19199  18.367   8.511   3.440 -0.4190 -0.0251 -0.1230
 3583W        W19200  10.504   4.531  14.073 -0.0807  0.0808  0.1303
 3584W        W19201   0.810   5.596   0.021  0.0563 -0.1239  0.4262
 3585W        W19202   4.298   9.868  14.075  0.1376 -0.0537  0.0177
 3586W        W19203   7.426   2.842   1.217  0.3554 -0.0049  0.0501
 3587W        W19204   6.705  17.722   3.528  0.2315  0.0955 -0.0838
 3588W        W19205   9.973   4.254   1.472 -0.0327 -0.1482 -0.0791
 3589W        W19206  18.285  13.093  14.135 -0.0598 -0.1487 -0.1168
 3590W        W19207   8.469  12.762   5.131 -0.2272  0.4010 -0.0039
 3591W        W19208  16.501   7.114   4.495 -0.3467  0.0579  0.0054
 3592W        W19209   0.993   5.447   4.771  0.1053 -0.1365 -0.3368
 3593W        W19210  16.760   8.304  15.276 -0.1042  0.0182  0.0655
 3594W        W19211  14.535   2.473  14.712 -0.3461 -0.1527 -0.3623
 3595W        W19212  11.714  18.111   4.462  0.1669 -0.0876  0.1954
 3596W        W19213  15.636  15.230  14.735  0.2418  0.0382  0.0374
 3597W        W19214   9.280   5.916  14.256 -0.2191  0.1991 -0.0703
 3598W        W19215  17.051  13.579   0.984  0.3504  0.1234 -0.0468
 3599W        W19216   3.764  13.114   1.169 -0.1419 -0.0952 -0.2100
 3600W        W19217  16.726   5.047  11.134 -0.1358  0.0056 -0.2712
 3601W        W19218   8.042  10.153  15.360 -0.2862  0.0796 -0.0478
 3602W        W19219   6.633  16.772  12.933 -0.2646  0.2071 -0.1381
 3603W        W19220   9.712   9.885   3.080 -0.0012 -0.3274 -0.1141
 3604W        W19221   3.376  14.152  15.143  0.2073  0.1910  0.0332
 3605W        W19222  18.352   7.659  13.543 -0.3556  0.0213 -0.1147
 3606W        W19223  15.873  17.705  13.072 -0.1091  0.0747 -0.0259
 3607W        W19224  13.209   6.882  13.315  0.0050  0.0518 -0.1437
 3608W        W19225   0.832  13.335   4.135  0.1239  0.1578 -0.1469
 3609W        W19226   6.799   8.242   0.282  0.0233  0.2711  0.0503
 3610W        W19227   1.879   5.952  15.485  0.2404 -0.2373  0.2780
 3611W        W19228  15.022   1.637  10.774 -0.2750 -0.3527 -0.2314
 3612W        W19229   0.072   3.939   3.982  0.0488  0.1160 -0.0113
 3613W        W19230   9.050   1.645  12.813  0.0914  0.2408 -0.1109
 3614W        W19231   2.328  16.692   4.951  0.1462  0.1800 -0.0978
 3615W        W19232   3.199   5.661  12.946  0.0168  0.1466  0.0840
 3616W        W19233  10.162   5.868   0.782 -0.2993  0.1761  0.1047
 3617W        W19234  12.625  14.390   0.732 -0.3471  0.6279 -0.0318
 3618W        W19235   1.590  16.997   4.646 -0.0597  0.0558  0.6605
 3619W        W19236  13.600   6.263  14.066  0.0846  0.1577 -0.0270
 3620W        W19237  12.255   8.719   0.286  0.2105 -0.1752  0.4814
 3621W        W19238  13.137  11.214   3.996  0.0394  0.0624  0.1153
 3622W        W19239   0.700   3.585  15.358  0.1619  0.1180  0.3150
 3623W        W19240   3.479  18.589  14.318  0.2825  0.1620 -0.1080
 3624W        W19241  10.040   1.784   1.547 -0.0255 -0.0876  0.0101
 3625W        W19242   2.794   1.244   3.866 -0.4398 -0.1920  0.0831
 3626W        W19243  12.967  16.760   0.377 -0.0760 -0.2969  0.0126
 3627W        W19244   6.320  10.254  15.763 -0.2539  0.0320  0.2000
 3628W        W19245  18.484   0.199  13.580 -0.3089 -0.0374  0.1015
 3629W        W19246  14.452   8.159  15.069  0.0353 -0.1367  0.2201
 3630W        W19247   8.238  14.426   0.864 -0.0563 -0.0335 -0.4233
 3631W        W19248  15.751   9.312  11.244 -0.2289  0.0788  0.1631
 3632W        W19249   0.454  10.058   9.730  0.0196 -0.1084  0.3267
 3633W        W19250   9.614   1.836  15.679 -0.2987 -0.0566 -0.0996
 3634W        W19251   8.015  13.903  10.659 -0.1477  0.1271  0.1092
 3635W        W19252  16.101   9.272  10.770  0.1943 -0.3587  0.1316
 3636W        W19253   5.940  15.816  15.110  0.2313 -0.0316 -0.0478
 3637W        W19254  18.607   6.012   2.290 -0.1809 -0.2477  0.1659
 3638W        W19255  14.022   2.624  14.648  0.0222 -0.2728  0.0733
 3639W        W19256   0.569   8.398   2.953  0.0408 -0.1041 -0.1288
 3640W        W19257  13.902   3.573   3.343 -0.2219 -0.0632 -0.0648
 3641W        W19258   4.948   8.055   5.449  0.1074  0.0234  0.1675
 3642W        W19259  10.492  15.812   1.602  0.1459 -0.0214 -0.1143
 3643W        W19260  15.454  11.664   1.058  0.3707 -0.3401  0.1374
 3644W        W19261   5.387  16.516  14.239 -0.1555 -0.1203 -0.4391
 3645W        W19262   2.204  11.673   2.284  0.1315  0.0199 -0.0974
 3646W        W19263  12.636   8.288  13.830 -0.3018 -0.4462  0.4217
 3647W        W19264  16.611  15.429   2.821 -0.1821  0.0459 -0.1378
 3648W        W19265   3.658   5.596  15.557  0.3845  0.1148 -0.3225
 3649W        W19266  17.192   9.495   4.695 -0.0410  0.1902  0.0660
 3650W        W19267   2.067   8.175  15.595 -0.1120  0.2975 -0.2225
 3651W        W19268   6.824   0.619  12.877  0.1005 -0.4352  0.2661
 3652W        W19269  10.326  18.018  15.711 -0.1215 -0.1949  0.2592
 3653W        W19270  18.529  16.238  10.658  0.2089 -0.1466  0.2938
 3654W        W19271   3.592   6.920  15.590 -0.0475  0.4957  0.0893
 3655W        W19272   6.101   9.889  15.476 -0.3692 -0.0120 -0.1075
 3656W        W19273   0.910   7.085  10.277 -0.2252  0.0426  0.1907
 3657W        W19274   2.321   5.078   5.624 -0.2199  0.5001 -0.4457
 3658W        W19275  16.131  10.247  10.882  0.0855 -0.2824 -0.0147
 3659W        W19276  11.228  17.116   0.698  0.3097  0.1722 -0.0738
 3660W        W19277  11.618  14.545  12.848 -0.1139 -0.1800 -0.1955
 3661W        W19278   4.287   5.258   4.665 -0.1163 -0.0126 -0.2344
 3662W        W19279  10.452  10.002   4.068 -0.1460  0.0394 -0.1678
 3663W        W19280  12.762   8.379  11.191  0.1197  0.0182 -0.2397
 3664W        W19281   2.607  12.313   0.605  0.1042  0.2046 -0.1791
 3665W        W19282  13.235   8.193  12.783 -0.1100 -0.0230  0.1171
 3666W        W19283   4.065  14.708   3.441 -0.0694 -0.1106 -0.2666
 3667W        W19284   4.176  14.526   1.841 -0.1330 -0.1068 -0.1210
 3668W        W19285   7.611   2.767  13.878 -0.3063 -0.0065  0.0464
 3669W        W19286  15.143   1.990   1.763 -0.0162  0.1389  0.0176
 3670W        W19287   4.224   1.413  11.116  0.0865 -0.0239  0.0717
 3671W        W19288  11.643   0.321   6.225 -0.0340  0.1257  0.2529
 3672W        W19289   3.462   7.011  10.466  0.0782 -0.3942 -0.0071
 3673W        W19290   9.192   3.554   2.442  0.0911 -0.1546 -0.0237
 3674W        W19291  12.116   2.698   2.677  0.0492 -0.0013  0.1457
 3675W        W19292  13.899  10.855   4.686  0.3305  0.2619  0.1057
 3676W        W19293   2.079  17.007   4.519 -0.1072 -0.1029 -0.2670
 3677W        W19294   8.487   3.014  14.694  0.1318 -0.0335 -0.0148
 3678W        W19295   3.916  15.782  13.037  0.0457 -0.0249  0.0081
 3679W        W19296  12.444  10.257  11.098 -0.6194  0.1005 -0.0777
 3680W        W19297  11.245   2.210   1.059 -0.0982 -0.0133  0.4660
 3681W        W19298   9.221   9.446  13.866  0.0666 -0.0039  0.1974
 3682W        W19299  10.631  16.668  11.791  0.3897  0.1876 -0.0815
 3683W        W19300  18.299  11.272   0.867 -0.1921 -0.1098 -0.0516
 3684W        W19301   3.354  17.607  11.101 -0.2359  0.0429 -0.3483
 3685W        W19302  12.582  18.598  13.693 -0.0880  0.0896  0.0151
 3686W        W19303   9.469  14.314   4.604  0.1969 -0.0498  0.0828
 3687W        W19304   9.233   9.388   4.485 -0.4259  0.0346  0.1996
 3688W        W19305  15.303   2.428   4.922 -0.0183 -0.2076 -0.2229
 3689W        W19306  13.919   6.165  15.084  0.0318 -0.0686 -0.2258
 3690W        W19307  13.579  10.656  10.607  0.0449 -0.1366 -0.0839
 3691W        W19308  12.763  14.243  11.668 -0.0033 -0.1357 -0.2578
 3692W        W19309   7.902   9.093  12.043  0.0145  0.0158 -0.3002
 3693W        W19310   1.705   4.101   0.714 -0.2141  0.1246  0.1546
 3694W        W19311  17.684   6.690  11.776  0.0628  0.1688  0.2682
 3695W        W19312   2.746  15.091   1.752  0.0187 -0.0965 -0.0050
 3696W        W19313  11.632   9.167   2.547 -0.0756 -0.0075 -0.0172
 3697W        W19314   3.222  14.773  15.008  0.0421 -0.0585  0.1275
 3698W        W19315  17.612   3.535  13.442 -0.1781  0.0751  0.1167
 3699W        W19316   4.196   2.840   2.515 -0.1084 -0.1884  0.3564
 3700W        W19317   5.065  15.962   9.377 -0.2150 -0.2039 -0.2130
 3701W        W19318   4.653  14.874   4.624 -0.1059  0.4972 -0.2250
 3702W        W19319   4.541   7.983   0.849  0.0905  0.0532 -0.4856
 3703W        W19320  12.664  11.036  15.600  0.4051 -0.0320  0.2424
 3704W        W19321  16.520   3.573  15.043  0.1684  0.1066  0.0252
 3705W        W19322  17.831  15.389  13.965 -0.0097 -0.0400 -0.1694
 3706W        W19323   5.743   1.475   0.330 -0.0617 -0.0454 -0.0299
 3707W        W19324  10.049  14.720   3.356  0.1071  0.0705  0.2645
 3708W        W19325   0.123   5.847   1.725 -0.2986  0.3272 -0.0837
 3709W        W19326  10.106  18.453  14.401 -0.2368  0.1308  0.1690
 3710W        W19327  16.701   9.499   5.013  0.0079  0.1004 -0.2000
 3711W        W19328   3.869   9.643   2.773  0.1810 -0.0695  0.0584
 3712W        W19329  15.494  15.096  12.459 -0.1362  0.2151 -0.1269
 3713W        W19330   4.016   7.168  12.509 -0.1803  0.0371 -0.0943
 3714W        W19331   7.708   3.136   4.825  0.0193  0.0149  0.0116
 3715W        W19332   6.157  10.789  12.872 -0.4438 -0.1739 -0.0634
 3716W        W19333  14.403   5.102   3.780  0.2603  0.3850  0.2425
 3717W        W19334   4.555  15.736  15.011 -0.0979  0.3313  0.1152
 3718W        W19335  11.474  18.361   5.356  0.0462 -0.0734 -0.1491
 3719W        W19336   7.912   5.789   2.637 -0.1750  0.0090 -0.0720
 3720W        W19337  17.336   5.794  11.170 -0.1764 -0.1774  0.0717
 3721W        W19338  18.075   8.095   3.303 -0.0631  0.1490 -0.2565
 3722W        W19339  16.122   0.305  13.279 -0.3419  0.0952  0.0227
 3723W        W19340  16.879  18.268   2.666  0.2141  0.0437 -0.0707
 3724W        W19341  12.527  16.252   5.403  0.0513  0.0397  0.1552
 3725W        W19342   3.745   8.026   1.913  0.0025 -0.1536 -0.4569
 3726W        W19343  13.888  10.354  10.808 -0.0568 -0.1175 -0.0205
 3727W        W19344  13.059  14.570  10.803 -0.0357 -0.1129  0.1266
 3728W        W19345   2.430  16.698   4.010  0.0789 -0.2749 -0.3105
 3729W        W19346  11.733  11.018  14.916 -0.1571 -0.1376  0.0851
 3730W        W19347  11.534   2.637   1.085 -0.0090 -0.1932  0.0255
 3731W        W19348   7.390   5.536   2.915 -0.2288 -0.0014 -0.1392
 3732W        W19349  17.340   0.801   5.932  0.0169  0.0788 -0.1912
 3733W        W19350  12.568  15.187  13.521 -0.4937 -0.1629  0.0217
 3734W        W19351   5.189  16.809   1.614  0.1788 -0.1875 -0.2751
 3735W        W19352  11.348   8.070   1.809  0.0804 -0.2066  0.1378
 3736W        W19353  11.930  10.723  12.950 -0.1148  0.1316 -0.2563
 3737W        W19354  12.029   5.520   0.590  0.2249 -0.2789 -0.1229
 3738W        W19355   1.144  17.781  11.676 -0.0989  0.0360 -0.0154
 3739W        W19356   7.010   8.968   1.734 -0.4321  0.0381 -0.2727
 3740W        W19357  10.653  15.804   3.395 -0.1687  0.2632  0.1960
 3741W        W19358  16.812  11.564  12.580  0.0971  0.1035 -0.2169
 3742W        W19359  10.744  15.163  13.150 -0.1577  0.0787 -0.0468
 3743W        W19360   0.428  17.001  15.320  0.1120 -0.1740  0.1478
 3744W        W19361  15.479   1.190   3.882  0.0188  0.3401  0.0794
 3745W        W19362   3.053   4.614   5.605 -0.1543 -0.0683 -0.0726
 3746W        W19363  14.542  16.044  14.827  0.1129 -0.1376 -0.2249
 3747W        W19364   4.186   7.038   1.778 -0.0166  0.1067  0.1292
 3748W        W19365   4.034   1.985   1.994 -0.1454 -0.0353 -0.0833
 3749W        W19366   2.625   5.447  14.822  0.1182 -0.2787 -0.2382
 3750W        W19367   9.704   1.746  13.778 -0.3900 -0.4385 -0.1915
 3751W        W19368  13.367  15.058  12.199 -0.1757  0.0366 -0.1165
 3752W        W19369  16.541   6.154   2.866  0.1248 -0.3441  0.0585
 3753W        W19370   3.501  12.959  15.149  0.0069 -0.1442 -0.1244
 3754W        W19371   8.126   0.773  15.110  0.1875 -0.0900  0.0365
 3755W        W19372  13.391  14.639   3.040 -0.2159  0.1140  0.0628
 3756W        W19373  13.740   8.612  15.625  0.0961  0.1738  0.1759
 3757W        W19374   3.402  18.580   2.402 -0.1135 -0.1724 -0.0345
 3758W        W19375   3.819  13.857   0.292  0.3150  0.1829  0.1054
 3759W        W19376  11.455   2.927   4.553  0.4486 -0.1435  0.0692
 3760W        W19377   0.165  14.447  12.368 -0.1186  0.1414  0.2639
 3761W        W19378  10.531   8.273  15.668  0.5188  0.0858  0.1089
 3762W        W19379  13.052  14.672  15.210  0.1887 -0.2657  0.1611
 3763W        W19380  15.056  16.610   2.842 -0.2506  0.2285 -0.3971
 3764W        W19381  18.347  18.014  13.483  0.3417 -0.2248  0.0337
 3765W        W19382  13.351  14.983   2.625  0.1401  0.0567  0.1049
 3766W        W19383   8.097   1.287   1.653 -0.4564 -0.3094  0.1747
 3767W        W19384  15.588   8.935  11.605  0.2147  0.1613  0.0759
 3768W        W19385  12.444  10.443  12.930  0.5310  0.2590  0.1766
 3769W        W19386  15.910  17.717  12.484 -0.1537  0.0195 -0.1097
 3770W        W19387  14.020   8.451   4.307 -0.0551  0.0469 -0.3216
 3771W        W19388   8.882  15.629   2.928  0.1442 -0.0565 -0.3121
 3772W        W19389   4.184   8.390  14.321  0.0325  0.1344  0.3652
 3773W        W19390   9.001  16.092   0.937  0.0840  0.0063 -0.3718
 3774W        W19391  14.825   9.419   1.686 -0.2284 -0.2123  0.0533
 3775W        W19392   5.556  13.270  12.968 -0.0379 -0.3734 -0.0879
 3776W        W19393   1.066   8.055   4.585 -0.0840 -0.1079 -0.1295
 3777W        W19394  13.433   0.610  13.767  0.3658 -0.3565 -0.0819
 3778W        W19395  15.659  10.768   1.014  0.0480 -0.1345  0.0107
 3779W        W19396   0.492  18.480  12.369  0.3449 -0.1378  0.0529
 3780W        W19397   4.104   0.560   5.057 -0.0545 -0.2217 -0.1605
 3781W        W19398   9.308   3.060   4.305 -0.1172 -0.0266  0.0931
 3782W        W19399   8.384   3.568  13.926 -0.0402 -0.4207 -0.0414
 3783W        W19400   3.556  16.620  11.883  0.2652  0.1754 -0.3719
 3784W        W19401   0.494   2.835  10.793 -0.3877  0.1401 -0.2447
 3785W        W19402  18.178   0.704  11.758  0.1451 -0.1174 -0.0691
 3786W        W19403   7.414  14.350  15.113  0.2296 -0.0873  0.0536
 3787W        W19404   9.062   0.806  11.061  0.0517 -0.1475 -0.0926
 3788W        W19405  11.550   6.988  12.747  0.3048 -0.3212 -0.1033
 3789W        W19406  12.060   9.015   0.660 -0.1456 -0.2258  0.2942
 3790W        W19407   4.952  16.196  14.907  0.5946 -0.0152 -0.3205
 3791W        W19408  12.576  10.846  10.363  0.1010  0.0095 -0.2863
 3792W        W19409   0.384  10.503  15.287  0.1297 -0.2979  0.0193
 3793W        W19410   9.005  10.857   1.590  0.2260  0.0140 -0.1344
 3794W        W19411   8.191  12.404  15.301 -0.1511 -0.2809 -0.1110
 3795W        W19412   3.499   7.004  11.864  0.2149 -0.1011 -0.0331
 3796W        W19413  13.685  17.627  15.313 -0.0089  0.0545 -0.1451
 3797W        W19414  13.683   1.493   3.473 -0.0168  0.1065  0.0475
 3798W        W19415  18.032   2.466   1.736 -0.2035  0.1845 -0.0442
 3799W        W19416  11.682  14.636   2.197  0.0489 -0.1571 -0.0193
 3800W        W19417   0.815   2.664  15.791  0.0169 -0.3324 -0.1153
 3801W        W19418   5.622  15.964  11.798  0.0708 -0.1691  0.1599
 3802W        W19419  12.659   4.155  11.607  0.0402 -0.0594  0.3786
 3803W        W19420   7.406   4.903   4.263  0.1422 -0.2058  0.2344
 3804W        W19421   2.691   8.644   0.763 -0.2796  0.0774  0.1128
 3805W        W19422   4.729  18.418  13.702 -0.1224 -0.1153 -0.0038
 3806W        W19423  17.712   3.122  14.133 -0.2013  0.0181 -0.0988
 3807W        W19424   6.803  14.646  12.274  0.0844 -0.0404  0.1134
 3808W        W19425   5.708  11.379  12.625 -0.0117  0.3094  0.1125
 3809W        W19426   2.743  14.765  15.122 -0.1909  0.1879 -0.1656
 3810W        W19427   5.510   8.686  13.792  0.0259  0.1226  0.2118
 3811W        W19428   5.185  10.893  14.268  0.0111 -0.0541  0.1402
 3812W        W19429  15.543   9.967  15.575 -0.2227 -0.1874  0.0093
 3813W        W19430  11.407  16.009   2.792 -0.3683 -0.0122 -0.1085
 3814W        W19431   8.682  16.623  11.470  0.0293 -0.0691 -0.2812
 3815W        W19432  11.352  13.089  11.451 -0.4308  0.0015 -0.0197
 3816W        W19433  12.825  17.413   1.990 -0.0856 -0.1433  0.0911
 3817W        W19434  16.569  14.537   1.038  0.3182  0.1070  0.0356
 3818W        W19435  11.772   7.954  15.595 -0.3312 -0.0719  0.0913
 3819W        W19436   2.321   4.534   2.900 -0.0839 -0.1647 -0.1842
 3820W        W19437  12.698   8.861   4.654  0.0955  0.0819  0.2446
 3821W        W19438  16.158  13.989   4.977 -0.3737  0.1121  0.3728
 3822W        W19439  12.739   4.136  13.100  0.3212 -0.3217  0.0659
 3823W        W19440   6.804   3.388  15.152 -0.1130 -0.1787  0.2995
 3824W        W19441  14.721   2.179   4.843  0.3319 -0.1143 -0.2605
 3825W        W19442   2.133   3.674  12.945 -0.1274  0.2953 -0.0257
 3826W        W19443   3.571   5.459  12.103 -0.1371  0.2179 -0.1931
 3827W        W19444  17.048   8.954  12.653 -0.0870 -0.1220  0.0245
 3828W        W19445   7.403   7.486  12.529  0.2004 -0.0331  0.0058
 3829W        W19446   8.597  13.897   1.682  0.0581  0.3804  0.0153
 3830W        W19447  15.203   8.858   2.265 -0.0390  0.1732 -0.1478
 3831W        W19448  15.682   3.763   1.153 -0.0708 -0.3862  0.2190
 3832W        W19449   0.120   4.664   1.014  0.0044 -0.1132  0.0540
 3833W        W19450   0.044   4.321   0.251  0.2885  0.0298  0.2760
 3834W        W19451  13.694   2.998  14.569  0.0582  0.0691 -0.2912
 3835W        W19452  10.405  12.860  11.618 -0.4051  0.0438 -0.2185
 3836W        W19453   9.693   2.548   5.422 -0.0703  0.1177 -0.3778
 3837W        W19454  16.713  15.871   1.778 -0.0436  0.5294 -0.0067
 3838W        W19455   0.832   4.997   2.698 -0.2125  0.0059 -0.0647
 3839W        W19456  18.492   4.882  13.670 -0.2925 -0.2645 -0.1896
 3840W        W19457  10.302  16.063   2.350  0.1146  0.0021  0.0654
 3841W        W19458   5.037  12.546   4.279 -0.2633 -0.1919  0.2926
 3842W        W19459   3.221  18.387   4.386  0.0416  0.1714 -0.0038
 3843W        W19460   3.880  13.454   2.988 -0.1179  0.0677 -0.4218
 3844W        W19461  15.074   1.985   3.235 -0.1201  0.0111  0.1006
 3845W        W19462   2.180   2.497   4.423 -0.1394 -0.1585  0.0138
 3846W        W19463   9.971   6.906   2.246 -0.2575  0.0591  0.0018
 3847W        W19464  15.037  15.522  13.465 -0.0377  0.2005 -0.0845
 3848W        W19465  14.446   2.254   2.816  0.1646  0.1981 -0.1669
 3849W        W19466  12.018   2.031  12.958  0.0980  0.0462 -0.3499
 3850W        W19467  18.539  11.216  12.951 -0.2213 -0.0997 -0.1094
 3851W        W19468   9.037  16.603   0.429  0.2035 -0.3654  0.0395
 3852W        W19469   1.678   9.466  13.721  0.2727 -0.3907  0.0149
 3853W        W19470   5.020   9.876  10.974  0.3605 -0.2060 -0.2301
 3854W        W19471   2.285  14.486  13.896  0.1037  0.2157 -0.1788
 3855W        W19472  17.514   6.384  14.070 -0.4926  0.0635 -0.0284
 3856W        W19473  14.151  10.296   0.411  0.2223 -0.2582 -0.0226
 3857W        W19474   7.518  16.653   3.275  0.3433 -0.1816  0.3207
 3858W        W19475   8.373   1.775   2.142 -0.0172 -0.0115  0.1756
 3859W        W19476   0.643   4.700   5.039  0.1494 -0.0156  0.0631
 3860W        W19477  13.284  11.707  10.896 -0.0142  0.0349  0.2064
 3861W        W19478   7.004   4.657   0.704 -0.0259 -0.3283  0.3297
 3862W        W19479  10.687   7.269  13.174 -0.1574 -0.0790  0.4575
 3863W        W19480  17.309  12.827   0.662 -0.4809 -0.0146  0.1639
 3864W        W19481   1.905  14.109  12.366  0.1093  0.1133 -0.3518
 3865W        W19482  16.451  10.283   3.084  0.4876  0.3178 -0.0190
 3866W        W19483  17.112  11.427  13.964 -0.3092 -0.1894 -0.1230
 3867W        W19484   1.217   3.930   0.427  0.1844 -0.1690 -0.1095
 3868W        W19485  14.525  14.772  14.261  0.1512  0.1049 -0.0327
 3869W        W19486   3.693   8.949   1.417 -0.1582 -0.2395  0.1617
 3870W        W19487  13.290   2.716  13.745  0.1105 -0.0094  0.0830
 3871W        W19488   1.119   3.730  13.921 -0.2756  0.1855 -0.0261
 3872W        W19489   2.900   1.255   5.524 -0.4646 -0.0210 -0.3780
 3873W        W19490   0.259  17.567  11.995  0.1016  0.2119 -0.3089
 3874W        W19491   7.473  13.227  13.857  0.2247 -0.0078 -0.2418
 3875W        W19492  12.223   9.772   3.133 -0.0456  0.2423 -0.3679
 3876W        W19493   9.833  10.313   2.813  0.1304  0.0626 -0.0557
 3877W        W19494   9.198  14.956  15.201 -0.2007  0.2277 -0.1391
 3878W        W19495  14.896   2.548  14.176  0.0716 -0.1377  0.0291
 3879W        W19496  13.608  13.254   3.992  0.3378  0.1310  0.3823
 3880W        W19497   3.105   8.684   4.821 -0.0815 -0.1396  0.0717
 3881W        W19498   1.135  11.329   0.282 -0.2362 -0.2555  0.1252
 3882W        W19499   8.487   4.540  14.309  0.1447 -0.0638 -0.3111
 3883W        W19500  11.228  11.595  12.945  0.2480  0.1352 -0.1452
 3884W        W19501   4.321   4.745   4.837 -0.0941 -0.2145 -0.2976
 3885W        W19502  17.908   0.425  12.681  0.1621  0.3557  0.0049
 3886W        W19503  15.784   7.295   1.059 -0.1005 -0.5363 -0.1545
 3887W        W19504  10.866   3.217  11.497  0.0006 -0.2083  0.1315
 3888W        W19505  10.912  18.453   1.540 -0.2934  0.4384 -0.1294
 3889W        W19506   7.019   7.327   5.323  0.0627  0.0213  0.2905
 3890W        W19507  16.182   5.950  11.627 -0.1008 -0.0611 -0.1706
 3891W        W19508   3.113   8.672  10.804  0.0240  0.1008  0.0731
 3892W        W19509  10.287  15.865   4.193 -0.2630 -0.1483  0.1981
 3893W        W19510  10.693   1.334  12.564  0.0709 -0.2001  0.1009
 3894W        W19511   4.005  15.245  14.510  0.1745 -0.2770  0.3288
 3895W        W19512  11.300  15.500  13.247  0.1297 -0.1032  0.1730
 3896W        W19513   2.656  15.915   3.017 -0.0556  0.0716  0.1758
 3897W        W19514  18.584  15.194  14.249 -0.1617 -0.2212  0.0192
 3898W        W19515   3.136   1.235   0.626 -0.0004  0.1686  0.0865
 3899W        W19516  10.783   0.171   5.303 -0.1668 -0.0610  0.2163
 3900W        W19517  13.080   5.443   5.909 -0.0119 -0.2394 -0.1694
 3901W        W19518  16.554   3.883   2.526 -0.0241 -0.0120  0.1468
 3902W        W19519  17.493   7.913  15.613  0.0808 -0.3139  0.0777
 3903W        W19520   5.028   2.572   3.531  0.0047  0.0643  0.3708
 3904W        W19521  14.278  13.480  12.091 -0.0180  0.1175 -0.0602
 3905W        W19522  16.094   0.309  12.192 -0.3650  0.0328  0.1793
 3906W        W19523   2.778   7.689  10.720  0.3225  0.1876  0.0814
 3907W        W19524  14.983  11.284   1.281 -0.0651 -0.0382 -0.1076
 3908W        W19525   2.208   9.805   3.836  0.3396 -0.1768 -0.1938
 3909W        W19526  13.367   0.828   5.567  0.1698 -0.0947  0.1178
 3910W        W19527  14.870   5.665   2.388 -0.2114 -0.0912  0.3154
 3911W        W19528   0.349  11.911  10.281 -0.0650 -0.0733  0.0996
 3912W        W19529   3.170   5.301   2.574  0.2089 -0.1418 -0.1124
 3913W        W19530  14.827  14.072   4.423 -0.0703 -0.0232  0.0387
 3914W        W19531   3.666   0.276   0.915  0.1724 -0.1555 -0.1574
 3915W        W19532  16.791   9.040   0.222 -0.0050  0.0332  0.0176
 3916W        W19533   9.747  17.541   5.416 -0.1249  0.1146 -0.2459
 3917W        W19534  13.077   4.382  13.617  0.1740 -0.1106 -0.2969
 3918W        W19535  17.374   3.857   3.376  0.2657 -0.3404  0.5164
 3919W        W19536  16.174   7.279   1.830 -0.0216  0.1222  0.2004
 3920W        W19537   3.515   6.722  11.389  0.1118  0.2013 -0.6692
 3921W        W19538   0.106   1.838   5.666 -0.3554 -0.1405  0.1425
 3922W        W19539  15.728   3.647   0.161 -0.2258 -0.0193 -0.1813
 3923W        W19540  13.303  14.063  11.266  0.2837  0.0119 -0.0974
 3924W        W19541  17.761   6.349  12.181  0.0960 -0.2014 -0.4551
 3925W        W19542   0.047   2.620   2.570  0.0571 -0.1419  0.0302
 3926W        W19543  10.699   1.702  13.733 -0.3229 -0.0484  0.0475
 3927W        W19544   0.047   1.274   2.406  0.0453 -0.0051  0.1750
 3928W        W19545   0.331  10.188   3.626 -0.0730 -0.0154 -0.0638
 3929W        W19546   9.201  14.488  10.308  0.1805  0.0322  0.1473
 3930W        W19547   7.284   5.752   4.529  0.0020 -0.1579 -0.1474
 3931W        W19548   4.930  17.318   0.513  0.2820  0.1383 -0.2642
 3932W        W19549  12.954   0.733  14.082 -0.2813  0.1420  0.0403
 3933W        W19550   4.985  13.081   0.097 -0.0084 -0.2512  0.0610
 3934W        W19551  16.540   6.667   4.707  0.0618  0.1226  0.1913
 3935W        W19552   2.803   0.253   4.522 -0.1870  0.1481  0.0677
 3936W        W19553   1.283   1.957  14.997  0.1912 -0.3615 -0.0237
 3937W        W19554   4.004  10.183   2.954  0.0183 -0.3120 -0.1307
 3938W        W19555   5.589   1.937   1.677  0.1477  0.1664  0.0633
 3939W        W19556   3.445  17.788   0.071  0.3225 -0.2551  0.4189
 3940W        W19557   8.753  10.097  11.985 -0.2304  0.3824  0.1230
 3941W        W19558  14.535  12.260  14.664  0.2350  0.1852 -0.1092
 3942W        W19559   8.441   5.598   5.092  0.0485  0.3867  0.2273
 3943W        W19560  13.722  10.294   2.502 -0.1596 -0.0517  0.2183
 3944W        W19561   1.766  14.436   2.616  0.2636 -0.0586 -0.1643
 3945W        W19562  11.234   8.835   2.165 -0.0409  0.1585  0.0110
 3946W        W19563   5.336   2.904   2.440 -0.4264 -0.1313 -0.4962
 3947W        W19564  17.659  15.931  13.640 -0.1631  0.0660 -0.2130
 3948W        W19565  13.746   7.894  12.513 -0.0011  0.2037 -0.5218
 3949W        W19566  15.937   2.522   3.316 -0.2811  0.0972 -0.0213
 3950W        W19567  13.800   1.961   2.031 -0.1575 -0.0092  0.0867
 3951W        W19568   2.031  16.038  12.058 -0.3126  0.1019  0.3721
 3952W        W19569  18.242  17.845   1.315 -0.0599 -0.1424 -0.1724
 3953W        W19570   9.306  12.410  13.002 -0.3464  0.1730  0.2408
 3954W        W19571  15.048   0.098  14.657 -0.1985  0.2209 -0.0019
 3955W        W19572   2.378   7.179   4.180 -0.0159  0.5474  0.1669
 3956W        W19573   6.644   7.051   3.360 -0.0566 -0.2221 -0.2750
 3957W        W19574  10.925  15.214   0.135 -0.0387 -0.0995 -0.1486
 3958W        W19575  14.545   5.699  13.299 -0.3088 -0.1344  0.0789
 3959W        W19576   8.732  11.223  13.397  0.1942  0.1151 -0.1889
 3960W        W19577   9.107  17.296  12.903 -0.0771 -0.0150  0.1246
 3961W        W19578   5.067   4.356   1.432 -0.1730  0.0188 -0.4059
 3962W        W19579   9.645   0.977   0.138 -0.2824 -0.0413 -0.2456
 3963W        W19580  13.303  10.507  11.587 -0.0875 -0.1444 -0.0960
 3964W        W19581  18.476   6.545  15.291 -0.2624  0.1117 -0.1662
 3965W        W19582  15.190   1.645  12.061 -0.2043  0.0916 -0.3583
 3966W        W19583  15.771  17.026   1.667  0.0166 -0.3262  0.1426
 3967W        W19584  13.722   9.676  11.362  0.2523  0.1543 -0.2139
 3968W        W19585  15.903  18.239   1.829  0.4145 -0.1686 -0.3829
 3969W        W19586   7.569   8.037  13.768  0.0476  0.3252  0.4485
 3970W        W19587   5.535   8.544  15.082 -0.4149 -0.1013 -0.2896
 3971W        W19588   8.941  16.104   5.352  0.1808  0.1408  0.2010
 3972W        W19589   7.938  11.441  12.844  0.0485  0.1308  0.2866
 3973W        W19590  10.391  16.421  12.379  0.0153 -0.3715 -0.1417
 3974W        W19591   9.994   7.343  15.012 -0.0932  0.1157  0.0987
 3975W        W19592   6.061   1.717   1.406 -0.0736  0.0228  0.1464
 3976W        W19593   0.854   3.815   5.291  0.1601  0.2461  0.2863
 3977W        W19594   0.660  11.428   1.743  0.1018  0.0464 -0.1294
 3978W        W19595   2.822   2.803   0.413 -0.3686 -0.2924 -0.1725
 3979W        W19596   0.481  16.989   1.371  0.2134  0.1020  0.0783
 3980W        W19597   1.528  11.214   1.157  0.1585 -0.3469 -0.2335
 3981W        W19598  12.981   5.666  11.368  0.0248 -0.0066 -0.5038
 3982W        W19599  14.314   4.134  11.637 -0.0622  0.0741 -0.0650
 3983W        W19600  15.810   2.403  12.168  0.0554 -0.0677  0.0932
 3984W        W19601   8.225  15.439  15.654  0.0767  0.0904  0.3363
 3985W        W19602   4.742   6.281   5.905 -0.1998 -0.2682  0.2326
 3986W        W19603  14.231   7.483   3.531 -0.0449  0.1941  0.0664
 3987W        W19604   5.698   0.651   4.990  0.1005  0.0039 -0.1735
 3988W        W19605   9.059  12.850  11.979 -0.1884 -0.1080 -0.2700
 3989W        W19606   2.304  14.183  11.872 -0.1267 -0.2263 -0.0300
 3990W        W19607  14.941  12.524  14.625 -0.0104  0.2753  0.0807
 3991W        W19608   4.126   8.425   3.678 -0.3721 -0.3455 -0.2529
 3992W        W19609  10.664  14.986   3.867 -0.0017  0.0801 -0.0941
 3993W        W19610  13.542   5.754   2.703 -0.4037 -0.1838 -0.1394
 3994W        W19611  15.799  16.804  14.681 -0.0660 -0.0226  0.1270
 3995W        W19612  18.107   1.215  12.341 -0.0509  0.1610  0.1040
 3996W        W19613  17.627  11.346   2.453 -0.3261 -0.1483  0.0174
 3997W        W19614   4.084   3.939   2.604  0.3391 -0.2178  0.1298
 3998W        W19615  10.581   2.288  13.625  0.0607 -0.1569 -0.1872
 3999W        W19616   6.148  12.907   1.213  0.0860 -0.0263 -0.0013
 4000W        W19617  12.312  13.670  14.721 -0.2616  0.0532  0.0783
 4001W        W19618   5.380   3.938   2.426  0.0893  0.1668 -0.0620
 4002W        W19619  17.979   8.074  11.015  0.1203 -0.1791  0.0516
 4003W        W19620  17.141   9.585   1.628  0.3191 -0.1560  0.1621
 4004W        W19621   4.440  18.534  15.730  0.1983 -0.0972  0.1096
 4005W        W19622  14.367   9.751  10.317 -0.1429 -0.0206  0.1022
 4006W        W19623  11.087   3.556  12.861  0.1114  0.0540 -0.0293
 4007W        W19624   7.016  10.686   2.060 -0.2114  0.0810 -0.3600
 4008W        W19625  12.088   1.022   2.923  0.0198 -0.0030  0.0376
 4009W        W19626  17.365   7.522  13.485  0.0678 -0.0864  0.0002
 4010W        W19627  16.828   5.448  13.403  0.4816 -0.1020 -0.1140
 4011W        W19628   6.972  12.252  12.641  0.0613  0.0804  0.0921
 4012W        W19629   9.417  16.281   3.341 -0.0640 -0.2412 -0.1931
 4013W        W19630  14.529  15.763  14.236 -0.0001  0.0078  0.0378
 4014W        W19631  17.261  10.447   3.159  0.2640  0.1221  0.1203
 4015W        W19632   1.514  11.894  12.879 -0.0987  0.1434 -0.0668
 4016W        W19633  13.099   7.570   0.002 -0.2073  0.1489 -0.1674
 4017W        W19634   8.432   6.188   4.128 -0.0916  0.2317 -0.2099
 4018W        W19635  17.689   7.253   2.308  0.2945  0.0182  0.1140
 4019W        W19636  14.815  16.542   1.204  0.1419  0.0434 -0.0195
 4020W        W19637   3.782  13.186  11.842  0.1858 -0.0904  0.0379
 4021W        W19638   4.292   4.864  13.371  0.1738 -0.0079 -0.1006
 4022W        W19639  13.772  14.992   3.000  0.1676  0.2107  0.2387
 4023W        W19640   3.035  14.220   3.941  0.3618 -0.0349  0.0925
 4024W        W19641   7.026  10.763   5.540 -0.1621  0.4267 -0.0382
 4025W        W19642  12.538   6.502  15.307  0.0279 -0.1023  0.1879
 4026W        W19643   4.732   4.878  14.545 -0.3666 -0.0738  0.0735
 4027W        W19644   9.140   7.595   4.767  0.0514 -0.2432 -0.3392
 4028W        W19645   0.456  10.584  14.129  0.2262  0.2468 -0.1923
 4029W        W19646  10.045   0.658   5.375 -0.4348  0.1286  0.1443
 4030W        W19647   1.177   5.115  13.622 -0.0595 -0.2400 -0.1117
 4031W        W19648  14.404   1.345   1.683  0.0423 -0.0817  0.4131
 4032W        W19649   1.543   0.875   0.438 -0.2128 -0.1833  0.1291
 4033W        W19650   5.161   2.908  14.141  0.2079 -0.2450  0.0190
 4034W        W19651   8.093   6.205   3.367  0.2084  0.0710 -0.1196
 4035W        W19652   6.840  10.361   1.752  0.0243 -0.2959 -0.0054
 4036W        W19653   2.765  12.501   2.429 -0.2339 -0.1595  0.0290
 4037W        W19654  14.583  12.935   4.388  0.0910  0.2454 -0.0748
 4038W        W19655  18.235  11.922  10.873  0.0560  0.1369  0.1738
 4039W        W19656   8.363  10.518  12.597  0.1888 -0.2322  0.2850
 4040W        W19657   6.089  16.435   3.468  0.0901 -0.1393 -0.3912
 4041W        W19658   4.467   3.797  14.825  0.0628 -0.1489  0.2503
 4042W        W19659  10.652   0.125   1.133  0.2977  0.1735 -0.3299
 4043W        W19660   3.736   5.800  11.815 -0.1172  0.0546  0.1809
 4044W        W19661   5.042   8.499   3.780 -0.1946 -0.1377 -0.0259
 4045W        W19662   1.232  10.276  14.666  0.1751 -0.0232 -0.2676
 4046W        W19663   6.776   3.070  11.775 -0.2478  0.0335  0.0961
 4047W        W19664  14.770   3.802   4.263 -0.0232 -0.1535  0.2773
 4048W        W19665  11.802   3.886   5.005  0.1906  0.2149  0.2078
 4049W        W19666   4.682  12.243  12.711  0.2539 -0.4039  0.2372
 4050W        W19667  17.215  16.527  14.680 -0.0483 -0.0090 -0.0175
 4051W        W19668  12.252   8.383   2.609  0.0845 -0.2501 -0.1516
 4052W        W19669  14.208  16.860  13.253 -0.0631  0.0820 -0.2399
 4053W        W19670  17.543  15.839  11.257  0.0599 -0.0046  0.2365
 4054W        W19671   7.031   3.680  13.057 -0.1453  0.0695  0.0103
 4055W        W19672  17.873   7.100   3.171  0.1443  0.1456 -0.0663
 4056W        W19673   7.351   4.112  14.992  0.1328  0.0548 -0.0455
 4057W        W19674   0.130  15.314  10.771  0.0367 -0.1357  0.0351
 4058W        W19675  18.567  16.795  13.187 -0.0292 -0.2756 -0.0472
 4059W        W19676   0.393  14.585  12.844 -0.1172 -0.0149 -0.0942
 4060W        W19677   4.102   5.916   0.845  0.1356  0.0230 -0.0971
 4061W        W19678  16.946   0.335  11.807 -0.1385 -0.0341  0.1088
 4062W        W19679  11.303   5.077   3.891 -0.1004  0.2608 -0.1072
 4063W        W19680  11.743   4.684  14.421 -0.2034 -0.0374 -0.0718
 4064W        W19681   4.508  17.310  10.315  0.2963 -0.1887 -0.0479
 4065W        W19682   7.279  10.638  13.150  0.3043 -0.1839  0.2425
 4066W        W19683  12.837  12.276   2.130  0.1668 -0.1373  0.1433
 4067W        W19684   2.493   3.391   3.724 -0.1866  0.4882  0.4456
 4068W        W19685   6.522  18.321  14.584 -0.1779 -0.1473  0.1998
 4069W        W19686  17.711  10.544   3.916 -0.1642  0.1641 -0.1503
 4070W        W19687   0.701   1.128  13.806 -0.1520  0.2128  0.0503
 4071W        W19688  14.635   6.566   3.365 -0.0756  0.2610  0.1775
 4072W        W19689   8.596   7.386   1.918 -0.1521  0.0898 -0.0711
 4073W        W19690   7.490  16.351  12.390  0.3062 -0.0299  0.0905
 4074W        W19691  13.492  17.944   1.591  0.1086  0.1150  0.0117
 4075W        W19692   7.805   3.190   1.192 -0.0994  0.0702  0.1366
 4076W        W19693   9.950   8.275  14.990  0.0178  0.0988 -0.1911
 4077W        W19694   4.341   0.139  11.400  0.1628 -0.0279 -0.1802
 4078W        W19695   1.089   7.099   2.058 -0.0800  0.2136 -0.1471
 4079W        W19696   5.998   3.955  15.314 -0.3630 -0.2036 -0.0370
 4080W        W19697  12.107  11.206   5.336  0.0837  0.1279 -0.1933
 4081W        W19698  11.698  12.790  12.856  0.0789  0.0541 -0.1711
 4082W        W19699  18.649   6.694  13.379  0.1526  0.0950  0.1253
 4083W        W19700  12.394  12.730  15.042 -0.1037  0.0705 -0.1723
 4084W        W19701   3.010  13.078   2.187  0.1102 -0.4286 -0.1168
 4085W        W19702  12.888  12.530   1.732  0.0157  0.2178  0.2388
 4086W        W19703  15.421  15.743  15.610  0.1231 -0.0897  0.0379
 4087W        W19704  12.659   7.589   3.933  0.0468 -0.0070 -0.0081
 4088W        W19705  13.723  14.540   1.244  0.0669  0.0199  0.0397
 4089W        W19706  17.825  15.051   4.457 -0.2907 -0.1393 -0.0133
 4090W        W19707   4.708   2.989   0.290 -0.0146 -0.0950  0.0779
 4091W        W19708   7.784  13.705  10.201  0.0561  0.2618  0.2178
 4092W        W19709  17.101   3.685   4.331  0.0395 -0.1529 -0.0494
 4093W        W19710   0.596   2.211  12.427 -0.2474 -0.1612  0.0529
 4094W        W19711  12.177   6.467   5.323  0.0289  0.0562 -0.3226
 4095W        W19712   8.137   2.185   2.675 -0.1116 -0.3039  0.1461
 4096W        W19713  16.499   0.783  13.704  0.2603 -0.2366 -0.0701
 4097W        W19714   1.892  11.618  13.353  0.3214  0.2570 -0.0019
 4098W        W19715  10.476  15.123   2.548 -0.2655 -0.0370 -0.0374
 4099W        W19716  18.015   4.490  11.223  0.1226 -0.1099  0.0634
 4100W        W19717  10.645  13.237   2.636  0.4932 -0.0266  0.0395
 4101W        W19718   3.088  13.037  14.866 -0.1596 -0.2689  0.1484
 4102W        W19719  16.839  16.629   4.296  0.3394 -0.1664  0.0368
 4103W        W19720   3.213   4.385  12.622  0.1185  0.2416 -0.1086
 4104W        W19721  12.983   6.751   4.989 -0.3057  0.0938  0.3098
 4105W        W19722  18.382  17.573   3.730 -0.0820 -0.0068  0.0237
 4106W        W19723  16.966  11.927  13.586  0.0442  0.0801  0.1439
 4107W        W19724   0.768   0.804   4.401 -0.2866  0.2561  0.0460
 4108W        W19725  17.460   0.702  13.840 -0.1403  0.0311  0.2960
 4109W        W19726   1.679  14.788  12.432 -0.1698 -0.2423 -0.4540
 4110W        W19727   5.312  17.287  12.889 -0.0164 -0.1197 -0.1755
 4111W        W19728   2.919   0.745   3.668 -0.0607  0.3016  0.1636
 4112W        W19729  17.941   2.764   3.996 -0.0440  0.4296  0.1570
 4113W        W19730  14.034  14.167   0.521  0.1554 -0.2642 -0.3768
 4114W        W19731   4.747  14.452   2.933  0.2392 -0.1041  0.2758
 4115W        W19732  11.845  17.211   5.429  0.1039  0.1498 -0.1972
 4116W        W19733   6.837   6.365   1.781  0.0845  0.1698 -0.3285
 4117W        W19734  12.976  10.829  11.356  0.2177  0.1162  0.0259
 4118W        W19735  17.702   9.332   0.267  0.0280 -0.0736 -0.0335
 4119W        W19736   7.662   6.340   0.710  0.0939  0.1602 -0.0665
 4120W        W19737   5.447  15.697   2.310  0.0794 -0.0053 -0.3031
 4121W        W19738  10.754  15.407  14.532  0.0879 -0.1737 -0.1720
 4122W        W19739   1.627  11.558   5.186  0.1186  0.0802 -0.3380
 4123W        W19740  13.732   8.071  10.493 -0.1663 -0.0977 -0.1250
 4124W        W19741   2.472  11.020   0.458 -0.1348 -0.0188  0.1355
 4125W        W19742   3.688   2.862  11.627 -0.1281  0.0648 -0.1284
 4126W        W19743  14.044  17.426  14.258 -0.0040  0.5333  0.2144
 4127W        W19744   8.215  14.481   3.065 -0.1553 -0.1296  0.4309
 4128W        W19745   0.701  16.469  11.299 -0.0178  0.2913 -0.1251
 4129W        W19746   5.479   3.684  11.509  0.3407 -0.4365  0.0161
 4130W        W19747   6.698   8.597   3.653 -0.0094  0.3011 -0.0710
 4131W        W19748   6.485   2.716  11.470  0.1651 -0.3800  0.0290
 4132W        W19749  14.476  17.874   0.631  0.3334 -0.3154 -0.0830
 4133W        W19750   5.021   1.647   1.247  0.1333  0.0559  0.0750
 4134W        W19751   6.631   6.516  13.437  0.0432 -0.0009  0.0678
 4135W        W19752  16.723  11.860   4.310 -0.2748  0.0638 -0.1626
 4136W        W19753   0.687   6.449  13.559 -0.2603  0.1883 -0.2961
 4137W        W19754   7.967  17.226   1.947  0.2070  0.0958  0.0748
 4138W        W19755  11.580   6.236  13.065  0.1495  0.0934 -0.2061
 4139W        W19756   1.673   3.738   0.361  0.2454 -0.1214  0.1748
 4140W        W19757  14.895  11.824  11.483  0.3030 -0.1563  0.0527
 4141W        W19758   9.622  13.395   2.526 -0.0684  0.1772 -0.2696
 4142W        W19759  14.951   0.407  13.176 -0.0498 -0.1375  0.2896
 4143W        W19760   0.904  10.831   5.227 -0.2806  0.4609 -0.0353
 4144W        W19761   6.964   5.142  15.553 -0.2649 -0.0410  0.1818
 4145W        W19762  14.859  14.476  13.943 -0.5789  0.0731 -0.1284
 4146W        W19763   0.891  17.122  10.113 -0.0634  0.0771 -0.3787
 4147W        W19764  12.630   2.778   2.908 -0.0710  0.0970 -0.4419
 4148W        W19765  18.324   2.308  11.479 -0.0979 -0.0027  0.0693
 4149W        W19766  10.858   5.075   2.104  0.1109  0.4357 -0.1276
 4150W        W19767  12.279   2.541   3.149 -0.0528 -0.0483  0.1646
 4151W        W19768   8.345  10.096  12.889 -0.0613  0.0277 -0.2444
 4152W        W19769  12.266  13.706   5.426  0.0496  0.0693 -0.0906
 4153W        W19770   8.577  18.247   2.693 -0.1819  0.2617 -0.2189
 4154W        W19771  13.226  18.355  12.022  0.1874 -0.1035 -0.0450
 4155W        W19772  10.635   6.005  12.707  0.1128  0.2769 -0.3791
 4156W        W19773  17.103  11.940   2.185  0.0262  0.1061 -0.1487
 4157W        W19774   3.526  16.302   1.596  0.1836  0.3610 -0.2247
 4158W        W19775   4.792   8.088  12.863 -0.0241  0.1185  0.2153
 4159W        W19776   3.893  15.619   4.735  0.0631  0.2058 -0.1213
 4160W        W19777   7.866  16.669  15.403  0.1222 -0.4101 -0.0329
 4161W        W19778   1.311   8.597   3.721  0.4075  0.2328  0.2476
 4162W        W19779  13.118   6.980   0.817 -0.0752 -0.1229 -0.0006
 4163W        W19780   1.670  10.680  13.048  0.0543 -0.0397  0.2159
 4164W        W19781   9.586   1.788   0.735  0.2067  0.1088  0.4373
 4165W        W19782  14.454  16.658   3.111  0.2185  0.1072  0.0636
 4166W        W19783   0.208   0.849  13.856 -0.0024 -0.2013  0.0975
 4167W        W19784   9.834   8.978   1.029 -0.2014 -0.0725  0.0561
 4168W        W19785  17.704  13.501  10.783  0.1108 -0.1958 -0.0905
 4169W        W19786   8.807  18.383   3.680 -0.2426  0.0114 -0.2550
 4170W        W19787   5.057   1.054  12.195  0.2099 -0.0515  0.0708
 4171W        W19788  15.643  14.133  15.129 -0.0445 -0.1958  0.0709
 4172W        W19789   5.667  18.480   9.870  0.1190  0.1993 -0.4408
 4173W        W19790  14.773   1.728   5.350 -0.1038  0.0348  0.1003
 4174W        W19791  16.349   0.839  14.597 -0.3924  0.0541 -0.3071
 4175W        W19792   0.138   7.333  13.513  0.0600  0.1213  0.1973
 4176W        W19793   2.759  12.811   5.580  0.0449  0.2947  0.0469
 4177W        W19794  11.917   0.965   2.361 -0.0794 -0.4740 -0.2054
 4178W        W19795   8.145  16.599   3.829  0.1354  0.1777 -0.0470
 4179W        W19796  14.057   6.716   2.431 -0.4165 -0.0900  0.2811
 4180W        W19797   6.895  17.908  13.664 -0.0860  0.0434 -0.1226
 4181W        W19798  15.226  15.230  14.361  0.1682 -0.1531  0.0085
 4182W        W19799  16.876   1.524  10.547  0.2055 -0.0319  0.0503
 4183W        W19800  14.699  15.868   5.660  0.2735  0.6222 -0.2414
 4184W        W19801   0.116  10.331  13.825  0.5026 -0.1082 -0.0974
 4185W        W19802   4.770  12.987  13.354  0.1178 -0.0719  0.1703
 4186W        W19803  16.933  16.627   1.654  0.1836 -0.0526  0.1987
 4187W        W19804  17.712  10.217   0.051  0.0451 -0.1070 -0.0840
 4188W        W19805  16.936   0.359   5.682 -0.0065  0.0799 -0.3385
 4189W        W19806   4.306  10.090   0.910  0.1037  0.0426 -0.0489
 4190W        W19807   5.822  13.657   0.214  0.0202  0.1616 -0.1317
 4191W        W19808   4.993  13.776  14.632  0.3437 -0.0155  0.1136
 4192W        W19809  12.043   0.506   2.994  0.3066  0.2319 -0.1723
 4193W        W19810  17.044   3.006  11.865 -0.0151  0.0375  0.0822
 4194W        W19811  16.455  18.454   4.664  0.1798 -0.0381 -0.0877
 4195W        W19812   3.935   4.403   5.469 -0.0302 -0.0145 -0.0418
 4196W        W19813   6.285  17.743   0.059 -0.1175 -0.0206 -0.0190
 4197W        W19814   3.327  16.886  14.646  0.0654  0.1354 -0.0731
 4198W        W19815   1.455  15.500   0.103  0.1168 -0.2287 -0.2189
 4199W        W19816   2.611   9.895   0.586 -0.0149  0.2546  0.1210
 4200W        W19817  15.314   8.173  13.545  0.0560  0.2114  0.3858
 4201W        W19818  14.426  16.391  12.260  0.0255 -0.1322 -0.3555
 4202W        W19819   0.435  11.039  14.353  0.2487  0.0329  0.1280
 4203W        W19820   2.813  14.118   1.233 -0.2257  0.2040  0.2327
 4204W        W19821  14.119  18.496  11.284  0.0574  0.0882 -0.0791
 4205W        W19822  17.404  12.825  13.343 -0.4704  0.2420  0.1023
 4206W        W19823   9.557   4.557  14.942 -0.2940 -0.3878 -0.2204
 4207W        W19824   9.273   2.216   2.103  0.1313  0.0476  0.1263
 4208W        W19825  17.084   1.074   4.183  0.1482  0.1382  0.1738
 4209W        W19826  14.915  10.661  13.983 -0.2875  0.1551  0.0013
 4210W        W19827   8.562  10.303  13.753  0.1316  0.0071 -0.0006
 4211W        W19828   2.096   1.045   1.048 -0.0303  0.1538 -0.2100
 4212W        W19829  16.163   8.164   6.054 -0.2417 -0.1996  0.1655
 4213W        W19830   1.547   9.230  14.282  0.2392 -0.1094  0.0858
 4214W        W19831  17.640  16.844  12.084  0.1379  0.0159  0.1091
 4215W        W19832  10.137  16.204   5.118 -0.1533  0.2023 -0.0719
 4216W        W19833   1.259  10.264   9.911  0.0916  0.0215  0.1112
 4217W        W19834  15.089   1.789  12.523 -0.1063 -0.2800 -0.2046
 4218W        W19835  13.594   5.269   3.772 -0.0071 -0.1504 -0.1884
 4219W        W19836   2.912  12.060   2.622  0.3778 -0.0396  0.1057
 4220W        W19837  12.254  13.259   2.235  0.2157  0.0322 -0.0585
 4221W        W19838   4.417   0.928   5.168 -0.0752  0.1641 -0.0630
 4222W        W19839  14.400   6.901   0.602 -0.0723  0.0626 -0.2050
 4223W        W19840   3.033   6.228   2.147 -0.2797  0.2711 -0.1189
 4224W        W19841  11.732   0.041   5.842  0.3145  0.3110  0.0432
 4225W        W19842   8.993  10.463   1.188  0.2455  0.1967  0.0553
 4226W        W19843   2.134  15.037  12.548  0.3835 -0.1189 -0.4757
 4227W        W19844   1.879  15.589   1.287 -0.1406  0.2013  0.0909
 4228W        W19845  11.219   2.050   0.140  0.1628  0.2865 -0.4456
 4229W        W19846   7.360   5.355   3.846  0.1193 -0.2608 -0.1360
 4230W        W19847  11.888  14.833  11.759  0.1147 -0.0376 -0.0214
 4231W        W19848  14.311  12.700  15.398  0.1279  0.1627 -0.1901
 4232W        W19849   2.005   2.661  13.123  0.1764  0.1800  0.0651
 4233W        W19850  17.661  15.363   5.531  0.1029 -0.0836  0.3021
 4234W        W19851  12.010  17.506   6.425  0.1072  0.0859 -0.3171
 4235W        W19852  12.669  17.807   1.128 -0.0965  0.4068 -0.0443
 4236W        W19853   8.734  17.897   1.676  0.0164 -0.0350 -0.2767
 4237W        W19854  16.526   1.142  12.319  0.0843 -0.0924  0.0861
 4238W        W19855   4.104  11.324  14.529  0.1997 -0.2660  0.4785
 4239W        W19856   2.166   0.693   4.328  0.1100  0.1441  0.2375
 4240W        W19857   2.171   6.920   2.795  0.2333 -0.0498  0.0047
 4241W        W19858   5.950  15.500  13.767  0.1346  0.0206 -0.0197
 4242W        W19859  12.668  18.048   3.122 -0.0909 -0.2293 -0.0326
 4243W        W19860  11.407  17.214   2.325 -0.1325  0.2450 -0.1557
 4244W        W19861  13.641  15.803  14.672  0.0628  0.1620 -0.0284
 4245W        W19862  12.528   2.995   2.493  0.0688 -0.0653  0.1718
 4246W        W19863   8.504   0.701   0.014  0.0682  0.0500 -0.0796
 4247W        W19864  16.304  12.313  13.641  0.0808  0.0210 -0.5410
 4248W        W19865  15.962  16.713   5.182 -0.0370 -0.2006 -0.0473
 4249W        W19866   9.956   6.884  12.923  0.0112  0.1032 -0.1052
 4250W        W19867   0.295   1.138   4.861  0.0320 -0.2938 -0.1333
 4251W        W19868   2.678  10.594   4.216 -0.1279 -0.0904 -0.3514
 4252W        W19869  10.673   7.508   2.386 -0.1998 -0.2360 -0.0380
 4253W        W19870  18.151  11.896  11.391 -0.0750  0.1938 -0.2955
 4254W        W19871  15.818   1.844   2.199  0.0169  0.2093 -0.0484
 4255W        W19872  18.355  11.090  15.121  0.2496 -0.1108  0.1281
 4256W        W19873  10.662   2.623   0.429  0.0233 -0.1254 -0.3223
 4257W        W19874   9.781  16.994   2.743  0.0957  0.1494  0.0063
 4258W        W19875   0.636  12.804  11.485  0.1270  0.0337  0.1446
 4259W        W19876   9.875  16.644   5.854 -0.1800 -0.0045 -0.2014
 4260W        W19877  14.020  17.442  14.757  0.3732 -0.0098 -0.1582
 4261W        W19878   6.941   9.168   2.926 -0.2243  0.1756  0.0176
 4262W        W19879  17.228  12.151   1.364 -0.2832  0.1813  0.0045
 4263W        W19880   1.042   2.247  13.136  0.0321  0.0933 -0.0399
 4264W        W19881   1.413   9.193  13.345  0.3854  0.1602  0.0091
 4265W        W19882  15.477  10.401   2.934  0.0099  0.1496  0.0434
 4266W        W19883   7.272  11.016   3.379 -0.0068 -0.1339  0.3465
 4267W        W19884  10.422   1.108  15.527  0.1157  0.0428  0.4300
 4268W        W19885  14.023  15.065  15.033 -0.1635 -0.1439  0.1844
 4269W        W19886   8.897   3.509  14.838 -0.0350 -0.1865  0.0034
 4270W        W19887  15.374   1.352   4.612  0.1029  0.1415 -0.4370
 4271W        W19888  17.189   4.524  13.573  0.0931 -0.0695  0.2074
 4272W        W19889  11.853  10.112   4.046  0.3303  0.0922 -0.2145
 4273W        W19890  17.839  11.122  11.805  0.1304  0.1469 -0.2153
 4274W        W19891  10.278  17.728   2.281 -0.0714 -0.2096  0.1186
 4275W        W19892  17.419   1.700  15.662 -0.0569 -0.0714 -0.2373
 4276W        W19893  17.725  14.057   2.315  0.0593  0.1529  0.1308
 4277W        W19894   0.025  11.854  13.354 -0.0413 -0.0049 -0.0049
 4278W        W19895  15.947   5.117   4.479  0.2977  0.0938  0.1241
 4279W        W19896  15.875  11.212  14.936  0.2809 -0.1114  0.2756
 4280W        W19897  15.001  13.594  12.059  0.2175  0.0683  0.0817
 4281W        W19898  18.162   4.585  14.077 -0.0212 -0.1375  0.4041
 4282W        W19899   0.151  12.951  14.883 -0.0840 -0.0421 -0.0535
 4283W        W19900  13.556   6.511  15.006 -0.0686 -0.0398 -0.0955
 4284W        W19901   8.287  12.104  11.966 -0.1587  0.0456  0.1359
 4285W        W19902  11.837  11.086  14.422  0.1699  0.3519 -0.1361
 4286W        W19903  12.858   4.672   0.031  0.1606 -0.0324 -0.0862
 4287W        W19904  11.951  11.788   1.921  0.2197  0.1731  0.2428
 4288W        W19905   0.009  12.318  13.617  0.0712  0.2559  0.1206
 4289W        W19906   0.922   0.465  11.501  0.2977  0.0378  0.1259
 4290W        W19907   0.216  16.680  15.050  0.2846  0.1382  0.2652
 4291W        W19908  13.946  14.047  11.787  0.4591 -0.0476 -0.1221
 4292W        W19909  16.023  10.087   0.554 -0.0630  0.3770 -0.1297
 4293W        W19910  10.982  12.997  11.047 -0.3565  0.2875  0.2677
 4294W        W19911  10.163   0.693   4.332 -0.1736  0.3415 -0.2770
 4295W        W19912  17.659  18.037  14.289 -0.2712  0.0776  0.1466
 4296W        W19913   0.382  10.750  11.286  0.0687  0.1828  0.0297
 4297W        W19914   6.872  14.483   0.193  0.2304  0.1996  0.0161
 4298W        W19915  11.548  17.929  10.324 -0.1830  0.2105 -0.1313
 4299W        W19916  11.340   4.869  13.463 -0.0262  0.2310 -0.0755
 4300W        W19917   9.231   7.800  14.404 -0.1094 -0.0339  0.6013
 4301W        W19918   0.350  15.908  13.427 -0.1175 -0.0833  0.1378
 4302W        W19919  12.510  13.250  11.941 -0.2778  0.2369  0.3183
 4303W        W19920   3.693  10.237   2.027  0.1519 -0.1819  0.1254
 4304W        W19921   4.284   6.663  12.647  0.1457 -0.1970  0.1141
 4305W        W19922  13.618  18.545   1.288 -0.1323  0.0743 -0.1387
 4306W        W19923  17.763  15.767   5.247  0.2190 -0.2234 -0.0954
 4307W        W19924   1.277   7.966  15.277  0.0194 -0.1756  0.2984
 4308W        W19925  16.975   1.404  14.870 -0.3971 -0.2730  0.0932
 4309W        W19926  11.812   0.987   0.924 -0.1339  0.0129 -0.2177
 4310W        W19927   1.702  16.775   0.478 -0.0036 -0.0483 -0.2696
 4311W        W19928   4.648  13.609   1.441 -0.0924  0.2313 -0.4903
 4312W        W19929  10.163  18.477   3.391 -0.0883 -0.4033 -0.2679
 4313W        W19930  18.584  18.653   1.028  0.1949 -0.0549  0.0544
 4314W        W19931   8.216   3.903  13.241  0.0855  0.2466  0.0548
 4315W        W19932   6.151  15.034  13.801  0.2177  0.1127  0.3088
 4316W        W19933  17.378   9.757  10.361 -0.1161 -0.0023  0.1182
 4317W        W19934  13.692   5.961  14.483 -0.2046 -0.1028 -0.4045
 4318W        W19935  16.064  15.081   1.370 -0.1171 -0.3174  0.2811
 4319W        W19936  12.677  12.330  15.260 -0.1020  0.2739  0.1974
 4320W        W19937  12.240  17.078   5.742 -0.0453  0.1554 -0.1199
 4321W        W19938  10.557  10.060  14.253 -0.3007 -0.2116 -0.3180
 4322W        W19939   5.815   7.200  12.327  0.0549  0.2091 -0.0522
 4323W        W19940  15.430   2.649   4.515 -0.0233  0.0738 -0.2252
 4324W        W19941   6.305  18.409  15.379 -0.2070  0.2970  0.0224
 4325W        W19942   4.333  17.919   1.112  0.0978  0.1529 -0.3117
 4326W        W19943   3.460   1.486  12.186  0.2904  0.1606 -0.3140
 4327W        W19944   3.039  16.847   1.551 -0.0737  0.4153 -0.0515
 4328W        W19945   9.779  11.380  15.655 -0.1735  0.1029  0.0930
 4329W        W19946   0.750   2.940  11.460  0.1299 -0.0553  0.0903
 4330W        W19947   3.085  15.082   1.303  0.2440  0.2957 -0.0030
 4331W        W19948   9.551   2.351   0.619  0.1005  0.3287 -0.1134
 4332W        W19949   7.641   6.401  12.422 -0.2612 -0.2508 -0.2708
 4333W        W19950  11.980  15.563   0.601  0.1321 -0.0163  0.1043
 4334W        W19951  17.297  14.274   0.409  0.0445 -0.0167  0.1618
 4335W        W19952   9.472  11.227   4.469  0.1246 -0.1653 -0.2628
 4336W        W19953  12.798  12.938   5.070  0.2345  0.1727 -0.0233
 4337W        W19954   2.750   8.679   1.494 -0.0694  0.0797  0.2014
 4338W        W19955   2.321   4.137  11.654 -0.2935  0.0761 -0.1503
 4339W        W19956   6.216  12.485   4.860  0.0112  0.1676 -0.0146
 4340W        W19957  10.291  11.313   0.855 -0.1660  0.0245  0.1767
 4341W        W19958  11.330   4.218  12.705  0.3122 -0.0552  0.0642
 4342W        W19959   6.202  13.360   0.287  0.0653 -0.3936  0.0966
 4343W        W19960  10.383  11.422  10.549 -0.1880 -0.2930  0.1784
 4344W        W19961   1.733   2.717   1.135  0.0759 -0.1891  0.1032
 4345W        W19962   7.928   0.998   3.666  0.0423 -0.0464 -0.2607
 4346W        W19963   6.385   2.572  12.898 -0.4008 -0.2583  0.2600
 4347W        W19964  11.571   2.531  13.633 -0.2606  0.4775  0.3328
 4348W        W19965   1.238   9.494   4.283 -0.0401 -0.0407  0.0929
 4349W        W19966  18.380   4.868  11.876 -0.0768  0.0870 -0.1075
 4350W        W19967  17.009  10.799   0.598  0.1919  0.2692  0.0802
 4351W        W19968  11.962   7.962   2.414  0.0561 -0.0233  0.3429
 4352W        W19969  17.484   5.861  15.381 -0.0206  0.0532  0.2764
 4353W        W19970  15.419  11.371  14.398 -0.1620 -0.0247  0.3895
 4354W        W19971  11.903   1.091  13.320  0.2277 -0.2798  0.3380
 4355W        W19972  18.655   0.752   4.982 -0.0964  0.0055 -0.3652
 4356W        W19973   0.066   6.747   4.100 -0.0399 -0.0474  0.0308
 4357W        W19974  13.605   1.379   5.415  0.0094  0.1221  0.2604
 4358W        W19975   1.731   0.366  14.062  0.0298 -0.0862  0.0427
 4359W        W19976   4.631   3.156  15.571 -0.0029  0.0098 -0.1194
 4360W        W19977   2.388   2.325   1.507  0.1577  0.0007 -0.0536
 4361W        W19978   4.378  18.132   2.889 -0.0427 -0.2987  0.0005
 4362W        W19979   1.600  18.205   3.778  0.1122  0.3620  0.0278
 4363W        W19980   9.718   1.940  13.259 -0.1364  0.0048 -0.1114
 4364W        W19981  15.153   7.696   1.740  0.5644 -0.1357  0.1029
 4365W        W19982   1.030  11.596  11.253 -0.1218 -0.0454 -0.1205
 4366W        W19983   6.895   0.113   1.625  0.3321 -0.0506  0.2567
 4367W        W19984   1.070  16.256  15.371  0.2431  0.0563 -0.2457
 4368W        W19985  11.283  16.133  12.108 -0.2330 -0.0645 -0.0000
 4369W        W19986   2.212   1.485  11.207 -0.2238 -0.0105 -0.3019
 4370W        W19987  12.283   8.955  11.716  0.0051 -0.1947 -0.0800
 4371W        W19988  12.174  16.310  12.285  0.1432 -0.0239  0.0544
 4372W        W19989   7.122   5.090  14.227 -0.1881  0.2081  0.0854
 4373W        W19990   7.153  15.623  13.385 -0.4266  0.1590 -0.2336
 4374W        W19991   9.877   0.904  13.170  0.2999 -0.2361  0.0821
 4375W        W19992   0.997   4.281   5.111  0.0383 -0.1831  0.2888
 4376W        W19993  11.779   0.479   2.489  0.0824 -0.0829 -0.1506
 4377W        W19994   0.052   9.590  13.362 -0.1105  0.0494 -0.2411
 4378W        W19995  17.130   6.813  12.379  0.0921 -0.3134 -0.0119
 4379W        W19996   3.876  11.953   1.059 -0.2970  0.0166 -0.3879
 4380W        W19997   5.030  18.104   9.806  0.0062 -0.2700  0.2975
 4381W        W19998  10.979  15.339  14.084 -0.3123  0.1729  0.1365
 4382W        W19999   3.905   0.999  10.472  0.5995  0.2272  0.1170
 4383W        W20000  16.981   6.529  15.789 -0.0513 -0.0802  0.3909
 4384W        W20001  17.595  17.674  11.401 -0.0933 -0.1094  0.1112
 4385W        W20002  10.623   9.462   1.681  0.1524 -0.0987 -0.1590
 4386W        W20003   6.674  10.965  15.386 -0.0501 -0.3659  0.1373
 4387W        W20004   2.046  13.938   0.412  0.0239  0.0735 -0.3032
 4388W        W20005   8.614  17.026  10.342  0.0585  0.2876 -0.0097
 4389W        W20006   7.149  11.392   2.897 -0.0119  0.1439  0.0933
 4390W        W20007  11.053   9.383  11.749  0.2379 -0.1950 -0.0711
 4391W        W20008   5.632   4.021  13.246  0.0186 -0.1995  0.0883
 4392W        W20009   4.903  17.710  13.015 -0.0390 -0.0891  0.1564
 4393W        W20010  12.609   3.689   0.033 -0.0669  0.0412 -0.1630
 4394W        W20011  14.634   7.082  11.919  0.1219 -0.2000 -0.3545
 4395W        W20012  14.961   0.025  12.391  0.1538 -0.1554  0.1509
 4396W        W20013  13.471   3.552  13.547  0.0302  0.1117  0.0072
 4397W        W20014   5.183   4.958   4.292  0.2641 -0.1124  0.2353
 4398W        W20015  15.197   2.916  12.610 -0.0262  0.3239  0.0051
 4399W        W20016  12.855  17.912  15.675  0.1370  0.2369  0.3385
 4400W        W20017   3.923  16.486  12.203  0.0982  0.1793  0.0090
 4401W        W20018  13.592   0.466   5.251 -0.1601 -0.0348 -0.0662
 4402W        W20019   9.592   5.679   3.440 -0.2216  0.0967 -0.3617
 4403W        W20020  10.613  14.251  13.099 -0.2773 -0.1102 -0.0089
 4404W        W20021  17.610  10.495   4.995  0.1779 -0.0884  0.1442
 4405W        W20022   0.367  17.700   4.130  0.1401  0.1699  0.1776
 4406W        W20023  14.700   1.317   6.292  0.0718 -0.0178  0.2534
 4407W        W20024  16.605   6.971  13.130 -0.1889 -0.0160  0.2523
 4408W        W20025  11.639  14.698   0.215 -0.0354  0.1965  0.2186
 4409W        W20026   2.004   8.524   4.833  0.0076  0.0389 -0.1371
 4410W        W20027   7.738  17.422   4.006  0.1547 -0.0867  0.2129
 4411W        W20028   0.046  10.669   3.712  0.1054  0.0419  0.2959
 4412W        W20029   8.573   4.933   1.558 -0.3158  0.2322  0.3538
 4413W        W20030   0.031   3.649  15.358  0.2503  0.0892 -0.1720
 4414W        W20031   9.526   6.993  13.556  0.3150  0.0103 -0.2479
 4415W        W20032  18.031   0.443   2.977 -0.2252  0.1575  0.0659
 4416W        W20033   2.672   7.349   0.154 -0.0717  0.1209 -0.3132
 4417W        W20034  17.940   7.628   1.102  0.0593 -0.1784 -0.0738
 4418W        W20035  14.918   4.930   1.378  0.3944  0.0286  0.2004
 4419W        W20036  13.089   9.355  11.315 -0.1957 -0.0753  0.0656
 4420W        W20037   2.998  16.684  12.298  0.0555  0.1976  0.0350
 4421W        W20038  15.920   0.737  13.799  0.0899  0.1808  0.1845
 4422W        W20039   9.238   5.620   1.316  0.1694  0.0721 -0.0073
 4423W        W20040   4.467   2.195  12.681  0.1009  0.1206 -0.1093
 4424W        W20041  12.500   4.504  14.964  0.1658 -0.2298 -0.2954
 4425W        W20042   7.932  16.343  15.778 -0.4002 -0.1527 -0.2258
 4426W        W20043   8.565   2.196  12.838 -0.1919 -0.3183 -0.0323
 4427W        W20044  16.165   2.953   3.059  0.1610 -0.0804  0.0325
 4428W        W20045  11.816   0.176   0.438 -0.1510 -0.0122 -0.2883
 4429W        W20046  14.340   9.420  12.025 -0.0153  0.0497 -0.1130
 4430W        W20047   8.860  17.859  14.266  0.3451 -0.2093  0.0541
 4431W        W20048   5.189  10.553  12.325  0.1853 -0.0834 -0.2425
 4432W        W20049   1.769   2.723   4.811  0.0741 -0.4246  0.1348
 4433W        W20050   4.355   5.604   5.485  0.3142  0.0636 -0.0360
 4434W        W20051   6.675  11.527  10.468 -0.0993  0.0434  0.0883
 4435W        W20052  18.370   2.572   0.692  0.0956 -0.2293 -0.0042
 4436W        W20053  15.847   4.538   3.330 -0.0959  0.0775  0.0705
 4437W        W20054   9.978   4.311  13.138 -0.0820  0.0335 -0.0541
 4438W        W20055   4.646  13.087   1.606  0.0677 -0.0836 -0.2792
 4439W        W20056   2.214  16.723   0.103  0.2661 -0.1255  0.3101
 4440W        W20057   0.359   5.660   3.008 -0.3517  0.1847  0.2350
 4441W        W20058  13.793  16.762   2.633  0.0769  0.0469  0.1134
 4442W        W20059   0.443   7.052   1.509 -0.1885 -0.3819  0.0646
 4443W        W20060   0.693  11.051  12.089 -0.0659  0.1012 -0.1344
 4444W        W20061   3.725   7.013   1.493 -0.3843 -0.1827  0.2198
 4445W        W20062   4.923   0.099  14.429 -0.1188 -0.0352  0.0123
 4446W        W20063   1.943  18.441   2.332  0.1311 -0.2980 -0.0710
 4447W        W20064  14.016   7.278   2.460 -0.0264  0.1356  0.1236
 4448W        W20065  14.361  15.797  15.291  0.1370  0.1954  0.3343
 4449W        W20066  11.228   2.700   1.876 -0.0393  0.1925 -0.0245
 4450W        W20067   2.127  11.620  10.948 -0.1848 -0.1734  0.2053
 4451W        W20068  12.375  10.645  11.881  0.0344 -0.0046 -0.1156
 4452W        W20069   8.345   5.535  11.581 -0.0220  0.1148 -0.1215
 4453W        W20070  16.525   2.854  13.505 -0.1765 -0.5477 -0.0586
 4454W        W20071   7.850   5.419   1.851 -0.0054  0.1359  0.2238
 4455W        W20072   5.473  14.626  13.359 -0.0788  0.1321 -0.0236
 4456W        W20073  12.776   3.363  14.114  0.0252 -0.4736  0.1303
 4457W        W20074   2.391   7.411  10.975  0.1001 -0.2898  0.0940
 4458W        W20075  12.754   2.661  10.647  0.2055 -0.1970  0.1544
 4459W        W20076  15.972  16.637   3.945 -0.0269 -0.1975  0.1839
 4460W        W20077  12.700  10.189  14.347 -0.1825 -0.1957  0.2161
 4461W        W20078  11.267   9.256  13.672 -0.1086 -0.3646 -0.0407
 4462W        W20079   9.823   5.523  15.587 -0.2035 -0.2124  0.0943
 4463W        W20080   6.389  16.062  12.432 -0.0239  0.0170  0.1034
 4464W        W20081   1.735  17.909  15.381 -0.1291 -0.2299  0.2268
 4465W        W20082   5.931   1.996   0.184  0.2727  0.1648 -0.0662
 4466W        W20083   9.272   0.350   1.176 -0.3111  0.2708  0.3520
 4467W        W20084   9.003  14.180   2.624  0.4926  0.0675 -0.0818
 4468W        W20085  10.713  15.258  11.350  0.1272  0.0839  0.1108
 4469W        W20086  16.834   0.231   4.608 -0.0818 -0.0195 -0.0247
 4470W        W20087  11.960   5.958   4.109 -0.0432  0.1765  0.0601
 4471W        W20088   9.109  15.126   1.514 -0.0508  0.1550 -0.0975
 4472W        W20089   2.622  15.194   2.224  0.0813  0.1301  0.3413
 4473W        W20090   6.368  11.281   4.324 -0.1282  0.1209  0.1578
 4474W        W20091   9.697   9.369   2.633 -0.0342  0.0842  0.0165
 4475W        W20092   8.514   0.201  12.114 -0.0917  0.0772  0.0985
 4476W        W20093   8.107   2.031  12.162  0.0452  0.1480 -0.1065
 4477W        W20094  18.428   7.955   4.038 -0.0225 -0.1741 -0.1873
 4478W        W20095  18.518   7.726   0.199 -0.1978  0.1320 -0.1001
 4479W        W20096   1.595  14.282  12.729 -0.3499  0.0149  0.3116
 4480W        W20097  12.456  13.155  12.415 -0.0197 -0.0520 -0.2550
 4481W        W20098  14.080   2.965  11.642  0.0297  0.4302 -0.1477
 4482W        W20099  15.971  13.477  11.732 -0.4661 -0.0358 -0.0202
 4483W        W20100   9.205  15.404  15.630  0.2299  0.0810  0.2422
 4484W        W20101  15.532  13.789  11.413 -0.0744 -0.0641  0.1927
 4485W        W20102  16.629  18.620  11.802  0.0124 -0.0525 -0.0863
 4486W        W20103  13.598   4.272   2.922 -0.1797  0.0030 -0.2057
 4487W        W20104  15.729   2.057  13.145  0.1948 -0.0119  0.2081
 4488W        W20105   8.326  14.987   3.019  0.0319 -0.1292 -0.0654
 4489W        W20106  10.043  12.285   4.517  0.1497  0.0911  0.0407
 4490W        W20107   8.052   6.563  14.729 -0.0944 -0.0654  0.2453
 4491W        W20108   1.544   8.610   2.213 -0.1662  0.3125 -0.2457
 4492W        W20109   8.313   4.605  13.623  0.0859  0.0413  0.1001
 4493W        W20110  14.357   7.815  13.624  0.0058 -0.1005 -0.0372
 4494W        W20111  18.410   3.020   2.374  0.2719 -0.0316 -0.0189
 4495W        W20112   0.659  15.355   5.713  0.1548 -0.2833  0.4381
 4496W        W20113  16.209   0.204   3.314 -0.0681  0.1101 -0.2627
 4497W        W20114   7.528  13.942  13.379 -0.0939  0.3396 -0.1702
 4498W        W20115  10.750   3.018   2.568 -0.4675 -0.0403 -0.0085
 4499W        W20116  15.445  11.403  13.867  0.0887 -0.2553  0.1723
 4500W        W20117  16.419  13.596  12.715 -0.0126  0.0244 -0.0894
 4501W        W20118   3.089  14.083  11.264 -0.1458 -0.0552 -0.3027
 4502W        W20119   6.398   9.987   0.875  0.0751 -0.0318 -0.2449
 4503W        W20120   4.474  17.061  13.271 -0.0217  0.2703 -0.3577
 4504W        W20121   8.326   0.647  12.501 -0.3057 -0.1623  0.2305
 4505W        W20122   2.916  17.410   5.491 -0.2260  0.2886  0.1370
 4506W        W20123   3.258   2.735  13.285  0.1008  0.1369 -0.0100
 4507W        W20124  10.873   3.312   1.259 -0.4294  0.2326 -0.1520
 4508W        W20125   4.779   9.892   0.904  0.0174  0.1543  0.2400
 4509W        W20126  13.604  12.331   3.673  0.2517 -0.0719  0.0475
 4510W        W20127  17.386  17.145   2.237  0.0173 -0.2667  0.0332
 4511W        W20128   3.923   1.814  13.305 -0.2361  0.2058 -0.1277
 4512W        W20129   4.906  14.081   5.032 -0.0123  0.0590  0.0867
 4513W        W20130  12.776   7.109   4.075  0.1625  0.0440 -0.2332
 4514W        W20131   0.402  15.652  12.432 -0.0622  0.0154 -0.2195
 4515W        W20132   3.726  15.859  15.704  0.2814 -0.1129  0.3655
 4516W        W20133   6.655   3.929  13.434  0.1204 -0.1395 -0.0102
 4517W        W20134   9.316  16.134   3.887  0.0747 -0.0758 -0.1562
 4518W        W20135  12.622   9.586  15.042  0.3527  0.0383 -0.1345
 4519W        W20136   8.516  13.495  14.778 -0.1839 -0.3299  0.0845
 4520W        W20137  17.567  18.257   4.658  0.1445 -0.1887 -0.1870
 4521W        W20138  17.409   1.931   4.474  0.2547 -0.1757 -0.0821
 4522W        W20139   2.389  13.144  11.882 -0.1916 -0.1493 -0.3560
 4523W        W20140   0.980  18.190   5.823  0.0348  0.1868  0.0811
 4524W        W20141   5.795   9.932   0.092  0.1596 -0.0304  0.0089
 4525W        W20142   2.789   6.494   3.392 -0.1460 -0.0103  0.5718
 4526W        W20143   4.212  17.998   1.977 -0.1319  0.2739 -0.1653
 4527W        W20144   2.790  10.532   2.047 -0.0959 -0.0422 -0.2715
 4528W        W20145  14.897   8.395  13.089 -0.3284  0.2623  0.1825
 4529W        W20146  10.577   5.681  12.322 -0.2006 -0.0369 -0.5096
 4530W        W20147  17.584   0.877   5.287  0.2129 -0.2635 -0.1149
 4531W        W20148   0.018  15.963  12.532 -0.1648 -0.1053  0.2193
 4532W        W20149   8.530   1.600   4.852  0.0022 -0.1232 -0.0866
 4533W        W20150  15.909  16.689   3.155  0.0473  0.0306 -0.0576
 4534W        W20151   9.870   1.196   2.303  0.2640 -0.0563 -0.1123
 4535W        W20152  10.409  16.962   9.876 -0.3428 -0.0624 -0.2277
 4536W        W20153  18.266   1.715  14.423 -0.3443  0.2923 -0.2859
 4537W        W20154   0.401   8.114   2.462  0.2056 -0.1193 -0.0391
 4538W        W20155   4.026  18.375   4.746 -0.0974  0.1385  0.0578
 4539W        W20156   1.800  18.521  14.206  0.1044 -0.1512  0.0678
 4540W        W20157  13.823  18.506  13.924 -0.0091 -0.5206  0.1801
 4541W        W20158  13.217   3.394   2.314 -0.0543 -0.1443 -0.2945
 4542W        W20159   4.352   6.063  13.794  0.2202 -0.1316  0.0981
 4543W        W20160   1.602  14.009   3.390  0.2467 -0.2670 -0.1238
 4544W        W20161  18.566  12.798   2.103  0.0212 -0.0909  0.0235
 4545W        W20162   2.229   1.650   3.446  0.2141 -0.1892  0.1356
 4546W        W20163  16.677  15.696  12.472  0.0288 -0.1172  0.1188
 4547W        W20164  14.293   8.272  11.216 -0.1357 -0.0844  0.1782
 4548W        W20165  10.087   8.706  11.210 -0.0052  0.0504 -0.1110
 4549W        W20166   8.577  18.633   0.013  0.1648  0.1082  0.2601
 4550W        W20167   2.708   3.578  12.146 -0.0107  0.3111 -0.1892
 4551W        W20168   5.886   9.769  12.955 -0.1351 -0.1842 -0.6172
 4552W        W20169   5.052   1.951   3.968 -0.0949 -0.0474  0.1083
 4553W        W20170   7.961   9.673   4.415  0.0746 -0.1812 -0.4488
 4554W        W20171   4.905  10.382   0.254 -0.1553  0.0495 -0.0750
 4555W        W20172   8.199  13.486  12.463 -0.2870  0.1039  0.0544
 4556W        W20173  11.448  11.187  10.798 -0.0882 -0.1297 -0.0551
 4557W        W20174  18.186   6.916   1.966 -0.1499 -0.1012 -0.2325
 4558W        W20175   7.624   2.833   4.370 -0.1125 -0.0691 -0.0095
 4559W        W20176  14.295   3.612   4.119 -0.2702 -0.0992  0.2187
 4560W        W20177  16.041   7.705  12.334  0.1950  0.1751 -0.3501
 4561W        W20178   0.709   9.398  14.893  0.2865  0.2109  0.3221
 4562W        W20179   1.027   1.706  14.519 -0.2871 -0.0420 -0.1840
 4563W        W20180   7.118   1.455   1.195  0.0676  0.0033 -0.3645
 4564W        W20181   7.900   2.741   2.025 -0.0457  0.1634 -0.4284
 4565W        W20182   8.176  13.342  15.439  0.3987 -0.2315  0.0556
 4566W        W20183  12.603   8.300   4.945 -0.1945 -0.2871 -0.2358
 4567W        W20184   2.182  10.869  14.754  0.1943  0.4683  0.0852
 4568W        W20185   5.000  12.310  11.974  0.1640 -0.4020 -0.0727
 4569W        W20186  11.687   7.092  13.214  0.2390 -0.2926 -0.0555
 4570W        W20187   9.277   8.923   4.681  0.0325  0.0270 -0.3027
 4571W        W20188  16.208   0.889   4.130  0.0065  0.2367 -0.2247
 4572W        W20189   0.981   5.544  13.696 -0.0042 -0.1407 -0.2196
 4573W        W20190  10.223   2.753   2.326 -0.0287 -0.2138  0.1250
 4574W        W20191   2.009   4.218  14.714  0.2130 -0.0786  0.1766
 4575W        W20192  15.466   1.825  13.862  0.2138 -0.0701  0.1080
 4576W        W20193   1.960  13.031   0.458 -0.0544  0.1672  0.2229
 4577W        W20194   2.164  14.271   3.976  0.0060 -0.2320  0.1254
 4578W        W20195  18.034   3.064  15.007  0.3377 -0.1607  0.2989
 4579W        W20196   2.708   7.173  14.875  0.2624 -0.0385  0.0429
 4580W        W20197   0.937   6.887   3.241 -0.0771 -0.0114  0.0606
 4581W        W20198  13.935  14.287   2.399 -0.1553  0.1943  0.0208
 4582W        W20199   8.395  12.415  12.455 -0.0007 -0.1104 -0.0194
 4583W        W20200  18.067  17.011  11.826 -0.2737 -0.0733  0.1742
 4584W        W20201  15.268  11.950  13.076 -0.0946 -0.2418 -0.1641
 4585W        W20202  16.251  18.167  11.661  0.1109  0.3026  0.2239
 4586W        W20203  14.217  13.394   2.046 -0.3497 -0.1021 -0.0628
 4587W        W20204   0.756  14.150   1.305  0.0415 -0.0602 -0.0168
 4588W        W20205   9.650  10.721   5.371  0.1325  0.0523 -0.0814
 4589W        W20206  14.941  11.623   0.880 -0.1783  0.1355  0.0868
 4590W        W20207   6.977  12.833   0.543  0.1440 -0.2555 -0.1122
 4591W        W20208   4.654   7.483  15.165  0.0773  0.1552  0.1664
 4592W        W20209  18.077   1.612   3.912 -0.0022 -0.0745 -0.1677
 4593W        W20210   2.557  11.822   3.583  0.1591 -0.0437 -0.1676
 4594W        W20211   0.334   5.241   2.662 -0.2196  0.0932 -0.1109
 4595W        W20212  12.661  14.595  12.516 -0.0713 -0.0334  0.2095
 4596W        W20213   5.886   2.683  13.187  0.4886  0.2444 -0.0827
 4597W        W20214  10.592   4.705   3.280  0.1330  0.3055  0.0975
 4598W        W20215   3.442   9.386  11.769 -0.5085 -0.1482 -0.1224
 4599W        W20216  15.984  18.478  15.361  0.1873 -0.1879 -0.1343
 4600W        W20217   0.259   2.982  14.067 -0.1567 -0.0201 -0.2271
 4601W        W20218  11.348  16.169  14.356 -0.1721 -0.0650  0.1274
 4602W        W20219   4.948  14.221   0.814 -0.0801 -0.1559 -0.1255
 4603W        W20220  10.663   7.457  13.924 -0.1651  0.1495 -0.1692
 4604W        W20221   1.033   0.907   1.064 -0.1478  0.2270 -0.1477
 4605W        W20222   1.118   2.109   1.289  0.3146 -0.1346  0.2696
 4606W        W20223  16.659  17.037  13.981  0.2269 -0.0645  0.1721
 4607W        W20224  12.400  16.228   1.583 -0.0133  0.0180  0.0121
 4608W        W20225  16.797   0.588  10.676  0.0413  0.2090 -0.0420
 4609W        W20226   2.516   1.049   3.459  0.0957  0.1203 -0.1759
 4610W        W20227   1.886  10.792   3.987 -0.1013  0.0176 -0.1999
 4611W        W20228   4.235  11.778  11.591 -0.0737 -0.0386  0.2076
 4612W        W20229   1.983  11.136   2.066 -0.1249 -0.0288  0.2802
 4613W        W20230  14.279   8.581   2.588 -0.0906 -0.2556 -0.1619
 4614W        W20231   6.225  14.837   4.485 -0.0459  0.0125 -0.4355
 4615W        W20232   5.886  11.247   1.827  0.2117  0.3311  0.3299
 4616W        W20233  16.892   1.591   5.482 -0.0699 -0.1868  0.0884
 4617W        W20234   8.243  10.348  14.120 -0.0434 -0.1754 -0.1578
 4618W        W20235  18.463   9.211   2.296 -0.1293  0.0445  0.0739
 4619W        W20236  14.844  12.092   3.309  0.1080 -0.0000 -0.1934
 4620W        W20237   6.128   8.596   1.354 -0.0530 -0.1755  0.1641
 4621W        W20238  17.653  13.150  12.387 -0.1496  0.2233 -0.1495
 4622W        W20239   0.111  16.467  12.776 -0.0879  0.0595 -0.2340
 4623W        W20240  11.463  18.082  15.615 -0.1647 -0.1316 -0.0139
 4624W        W20241  17.029   5.599   3.355  0.4926 -0.0607  0.0840
 4625W        W20242  10.565   4.300   5.032 -0.2396 -0.0522  0.0157
 4626W        W20243   3.963  13.215   4.776  0.2109 -0.1607  0.0368
 4627W        W20244  16.905  11.428   1.414  0.0101 -0.2813  0.0082
 4628W        W20245  12.016  17.358  14.465 -0.3073 -0.1409  0.4366
 4629W        W20246  12.728   4.960  14.812 -0.4136 -0.1722 -0.1854
 4630W        W20247   4.771   2.674  14.817 -0.0436  0.0540  0.1124
 4631W        W20248  18.172   6.542  14.782 -0.2310  0.0975 -0.0938
 4632W        W20249   8.482   7.617  15.536 -0.1812 -0.1850  0.2019
 4633W        W20250   1.580  17.524  12.759  0.0418 -0.1147  0.1196
 4634W        W20251  11.017   7.129   0.273  0.1374 -0.2497  0.0671
 4635W        W20252  10.337   8.590   1.787 -0.2598  0.0098  0.1760
 4636W        W20253   2.470   1.958  11.537 -0.2347  0.0896  0.2005
 4637W        W20254  15.793   6.249  12.374 -0.2098  0.3001 -0.0653
 4638W        W20255  15.721  13.045   3.970 -0.0593 -0.1256  0.2024
 4639W        W20256   7.548   8.780  12.903  0.1012 -0.0633 -0.3243
 4640W        W20257   8.242  11.335  10.618  0.4657  0.2929  0.2167
 4641W        W20258   7.583   2.274   3.480  0.0594 -0.3162  0.1129
 4642W        W20259   0.763  16.615  15.139 -0.0211 -0.0364  0.1790
 4643W        W20260  12.134   1.280   2.050  0.1491  0.0125  0.0138
 4644W        W20261   1.335   2.969   3.954  0.0307  0.0836 -0.0805
 4645W        W20262   7.708   0.995  15.325  0.2343 -0.0078  0.1481
 4646W        W20263   0.356   5.992  12.770 -0.0325 -0.1243  0.0069
 4647W        W20264   6.579   4.809  12.940 -0.0715 -0.1161  0.1717
 4648W        W20265  17.490  12.559   4.164  0.0960  0.2472  0.0895
 4649W        W20266   2.956   1.195  11.444  0.0999  0.3980  0.1395
 4650W        W20267  15.052   4.512   1.743  0.1523  0.0280 -0.1249
 4651W        W20268  15.762   9.301   3.552  0.1493 -0.1623 -0.5596
 4652W        W20269  18.226   3.713   1.395  0.1250 -0.1829 -0.1784
 4653W        W20270   5.321  13.533   2.643  0.0152 -0.3438 -0.2287
 4654W        W20271   7.336  16.037  15.691  0.0146 -0.0772  0.2762
 4655W        W20272   6.620   5.637  12.891  0.1104  0.0179  0.3205
 4656W        W20273   5.367   4.141  14.152 -0.2392 -0.0631 -0.0171
 4657W        W20274  18.101  12.596   0.321  0.2860 -0.1633  0.1258
 4658W        W20275   1.600   9.269  11.004 -0.0582 -0.2558 -0.0356
 4659W        W20276   3.361   9.670  13.656 -0.0172  0.1210 -0.0644
 4660W        W20277   5.526  10.396  13.887 -0.2872 -0.0869 -0.1343
 4661W        W20278  11.065  12.431   3.334  0.0935 -0.2703  0.2262
 4662W        W20279   3.964   3.919   0.708 -0.1161 -0.1437  0.4164
 4663W        W20280  15.413  13.367  15.138 -0.0578  0.0016 -0.0842
 4664W        W20281  16.982  15.963   3.181 -0.1682  0.2927 -0.0791
 4665W        W20282   9.727   0.046   1.162 -0.0527 -0.2253  0.1502
 4666W        W20283  13.766  11.527   5.298  0.0978  0.2143 -0.1169
 4667W        W20284  14.611   5.263   2.185 -0.1662 -0.0774 -0.0067
 4668W        W20285  18.504   7.143   2.731 -0.1711 -0.0531 -0.0261
 4669W        W20286  15.106  10.041  13.515  0.1601  0.4968 -0.1122
 4670W        W20287  14.397  15.080  11.197  0.0315  0.1850  0.2757
 4671W        W20288  13.767  18.172   2.258  0.1415 -0.3041  0.1672
 4672W        W20289   6.910   8.086   1.305  0.0686  0.2753 -0.4617
 4673W        W20290   1.821  13.209  11.320 -0.1354 -0.0791 -0.0634
 4674W        W20291   1.775  10.306   1.589  0.3496 -0.0290  0.0948
 4675W        W20292   2.042   7.297  10.591 -0.0940  0.0224 -0.0093
 4676W        W20293  12.322   1.957   1.542  0.2058  0.1195  0.1012
 4677W        W20294  11.856  16.527  14.657  0.1737  0.0960  0.0640
 4678W        W20295  12.871  15.091  12.479  0.0850  0.3196 -0.1582
 4679W        W20296  11.925   5.231   6.563 -0.1165 -0.0332 -0.2952
 4680W        W20297   7.479   3.356   4.417 -0.0489  0.2430 -0.1531
 4681W        W20298   0.504   4.965   2.316 -0.0552  0.1553  0.1107
 4682W        W20299   7.115  12.049   2.844 -0.0661  0.1730  0.0709
 4683W        W20300   1.928   5.983  14.960  0.0141 -0.0998 -0.4196
 4684W        W20301   2.567   7.847   3.645 -0.1353 -0.1771  0.2440
 4685W        W20302  10.066   3.467   1.987  0.2764  0.0016  0.0754
 4686W        W20303   0.576   5.504  13.390  0.0605  0.2116 -0.0491
 4687W        W20304   0.168   9.572   2.177 -0.2280  0.1555  0.0886
 4688W        W20305   3.604   5.142   3.969  0.3375  0.0702 -0.0850
 4689W        W20306  10.282   5.725  15.318  0.0435  0.2029  0.1034
 4690W        W20307  14.363  13.376   3.108  0.0554  0.2855  0.0900
 4691W        W20308  16.671  12.176   2.444 -0.2936 -0.0794  0.0504
 4692W        W20309  16.576   4.632   2.488  0.3217 -0.0350  0.0652
 4693W        W20310   3.314  17.725  14.231 -0.3498 -0.1877 -0.3188
 4694W        W20311   4.968   0.697   4.011  0.0591 -0.0470  0.0506
 4695W        W20312   5.828  15.842  13.402 -0.0770  0.1664  0.1012
 4696W        W20313  15.820   2.495   4.870 -0.0066  0.1255 -0.1732
 4697W        W20314   6.334  11.363   4.803  0.3817 -0.0861  0.1554
 4698W        W20315   3.610  11.241  15.400 -0.2528 -0.2205  0.4630
 4699W        W20316  16.341  16.353  11.038  0.5331 -0.0507 -0.1135
 4700W        W20317  14.192  13.207  11.290  0.1136 -0.1034 -0.3099
 4701W        W20318  15.534  18.177  13.555 -0.1534 -0.1274 -0.0541
 4702W        W20319  12.453  10.776  11.409  0.1392 -0.0289  0.0373
 4703W        W20320   7.026  15.695   0.764 -0.1527  0.0089 -0.4092
 4704W        W20321  13.962   2.434  15.607  0.4530 -0.1868  0.0766
 4705W        W20322   8.827  12.153  11.473 -0.2931  0.2706 -0.3686
 4706W        W20323   2.122  10.761   9.921  0.0310 -0.2370  0.0993
 4707W        W20324   8.243  12.307  11.134 -0.4008  0.0863 -0.0597
 4708W        W20325   7.173  11.920  12.317  0.1059  0.2872 -0.2232
 4709W        W20326  13.558   6.267   5.398  0.0532 -0.4067  0.0448
 4710W        W20327  10.396   2.166   2.247  0.2069  0.1013 -0.0728
 4711W        W20328   8.864   2.434   3.986 -0.1417  0.0519 -0.0494
 4712W        W20329  17.743  15.385   3.513 -0.1794  0.0854  0.1871
 4713W        W20330  18.393  12.302  11.255 -0.1123 -0.0309 -0.1235
 4714W        W20331   2.398  16.310  11.824 -0.0670  0.0473  0.0845
 4715W        W20332  15.287  15.584   3.649  0.0791  0.2422 -0.3447
 4716W        W20333  12.902   7.824   0.454  0.0421  0.2140 -0.0764
 4717W        W20334  13.377  17.071  12.112 -0.3122  0.5445 -0.1963
 4718W        W20335   3.357  11.088  13.189  0.1853  0.0534 -0.0061
 4719W        W20336  14.737  12.622  11.057 -0.0656 -0.3809  0.4169
 4720W        W20337  15.936  17.846  15.254 -0.0695 -0.2505 -0.1767
 4721W        W20338   8.071   6.807   1.605  0.2457  0.4825 -0.0381
 4722W        W20339   3.193   9.967  10.715  0.2032 -0.0281  0.2102
 4723W        W20340   0.199  12.136   5.887 -0.1930  0.0954 -0.0001
 4724W        W20341   2.230   8.177   4.595 -0.2198 -0.1795  0.1536
 4725W        W20342  13.246  16.517  14.226 -0.0355 -0.4179 -0.1304
 4726W        W20343   1.339  17.782   4.401  0.0144 -0.1390  0.1658
 4727W        W20344   1.374  11.211   3.285 -0.1377  0.3120  0.3564
 4728W        W20345  10.797  12.521  13.871 -0.1832 -0.0536 -0.0436
 4729W        W20346   7.606   7.302   1.567 -0.2977  0.1303  0.0500
 4730W        W20347   6.037   4.864  12.525 -0.2117 -0.1739 -0.0036
 4731W        W20348   3.748  14.954   1.780 -0.0978 -0.0789  0.1452
 4732W        W20349  17.959  13.966  15.551 -0.3685 -0.1924 -0.2208
 4733W        W20350  18.643  14.862  12.113  0.2139  0.1673 -0.1975
 4734W        W20351  15.894   1.056   3.672 -0.0824  0.0105 -0.3041
 4735W        W20352  15.399   2.636   1.228  0.2458 -0.1393  0.1882
 4736W        W20353   2.386   3.566   0.008 -0.0460 -0.4138  0.0901
 4737W        W20354   3.036   9.410  10.663 -0.1538 -0.1867 -0.1652
 4738W        W20355   9.233  11.409  11.124 -0.1658 -0.1870 -0.2333
 4739W        W20356  15.098   2.263  14.611 -0.0606  0.1751  0.2145
 4740W        W20357   4.715  15.334   4.849 -0.0658 -0.1624  0.1763
 4741W        W20358   6.276  11.498   2.597 -0.1543 -0.2228 -0.0509
 4742W        W20359   8.061  17.051  11.514 -0.1580  0.4743  0.0084
 4743W        W20360   2.820   5.079   2.336 -0.0309  0.2368  0.2389
 4744W        W20361  18.084  11.162   3.438  0.0557  0.1522 -0.0824
 4745W        W20362   1.952   1.934   4.448 -0.2333  0.0051  0.2394
 4746W        W20363  18.473   5.468   1.073  0.2773  0.1999  0.0580
 4747W        W20364   3.597  11.191   0.725 -0.1991  0.4509  0.1457
 4748W        W20365  16.350  17.111  12.246  0.0695 -0.3330 -0.0918
 4749W        W20366  14.301  15.789   2.745  0.1131  0.0778 -0.2415
 4750W        W20367   6.211   6.093   2.409 -0.1803  0.0038 -0.1355
 4751W        W20368   8.472   1.336   2.316 -0.1471  0.1159 -0.0522
 4752W        W20369  10.483   2.316   4.212 -0.0348  0.0150 -0.2214
 4753W        W20370  13.841  15.837   2.951  0.1472 -0.0319  0.7525
 4754W        W20371  11.904   7.009  13.656 -0.0975 -0.0763  0.1118
 4755W        W20372   9.132  12.127  12.672 -0.0552 -0.1873 -0.0697
 4756W        W20373   6.440  15.454  14.049  0.3878 -0.2943 -0.0662
 4757W        W20374  11.807   4.185  15.715  0.2382 -0.0727  0.0883
 4758W        W20375  13.547   4.057   2.330 -0.3891 -0.0145 -0.1785
 4759W        W20376  14.956   8.564  10.164 -0.0033 -0.1119 -0.2143
 4760W        W20377   9.285   3.174   3.770  0.3422 -0.0760  0.0161
 4761W        W20378   2.794  11.261   1.553  0.0030 -0.0945  0.1783
 4762W        W20379   2.384   1.262   9.799  0.1424 -0.3931  0.5258
 4763W        W20380  17.147   3.456  12.046  0.3377 -0.0162 -0.0096
 4764W        W20381  11.774   5.903   1.437  0.2565 -0.1688 -0.4466
 4765W        W20382  17.753   0.007   1.470  0.0944 -0.0748 -0.1990
 4766W        W20383  15.891  13.560   4.134 -0.1739  0.0008 -0.0290
 4767W        W20384   1.528   5.731   1.195 -0.1804 -0.0144  0.0296
 4768W        W20385  17.501  14.015  14.151  0.3190 -0.2817 -0.1819
 4769W        W20386   7.493   4.856   1.549 -0.1563  0.1210  0.1401
 4770W        W20387   0.799  12.159   5.102 -0.1953  0.2952 -0.0355
 4771W        W20388  17.993   7.520  12.289  0.0382  0.1268  0.2487
 4772W        W20389   8.647   8.066   4.039  0.1946  0.2977  0.1257
 4773W        W20390   1.697   4.061   3.335  0.0596 -0.3405 -0.1999
 4774W        W20391  16.253   4.208  15.458 -0.4767 -0.2473  0.1609
 4775W        W20392  16.806  12.501   2.900 -0.0808 -0.0775  0.2407
 4776W        W20393   7.194   8.275   1.012 -0.0326 -0.2545 -0.1554
 4777W        W20394  11.640   9.261  14.903 -0.1662  0.0218 -0.0781
 4778W        W20395  13.534  13.547   1.103 -0.3395 -0.1288 -0.0316
 4779W        W20396  14.279   5.043  11.871  0.0182  0.0992  0.1544
 4780W        W20397  17.565   2.770   4.853 -0.2775  0.0075 -0.0444
 4781W        W20398  17.530   9.501   2.574 -0.1534  0.1327  0.0490
 4782W        W20399   5.618   4.734  14.957 -0.0941 -0.0718  0.1004
 4783W        W20400   1.530  17.809   3.437  0.0977 -0.1314 -0.1461
 4784W        W20401   4.377  15.797  11.103  0.0552  0.0141 -0.0384
 4785W        W20402   4.049   4.934   5.764  0.0102  0.1496  0.2585
 4786W        W20403   0.218   9.326  14.491  0.0614  0.1304  0.2709
 4787W        W20404   5.593  10.134  10.265 -0.1952  0.3443  0.1511
 4788W        W20405   9.533  12.033   0.494 -0.1190  0.2985  0.3181
 4789W        W20406   4.324  17.739  15.601  0.1860 -0.2471  0.0061
 4790W        W20407   5.220   6.670  15.619  0.3786  0.3742 -0.0825
 4791W        W20408  10.099   7.620   6.473 -0.1586  0.0445 -0.0127
 4792W        W20409   4.885   8.484   3.320  0.4195  0.2459  0.1419
 4793W        W20410  11.103   2.637   0.744  0.2037  0.3239 -0.1507
 4794W        W20411  12.229   9.707  11.579 -0.0687  0.1894 -0.2902
 4795W        W20412   9.297  17.553  14.093  0.0427 -0.4434 -0.2066
 4796W        W20413  12.853   0.845  13.536 -0.4848 -0.3276 -0.3483
 4797W        W20414  11.928   0.746   6.409  0.3327  0.1373  0.2043
 4798W        W20415   3.363  13.139  13.242  0.1653  0.1011 -0.0402
 4799W        W20416  17.084  13.656  14.472 -0.2909  0.0225  0.0077
 4800W        W20417  16.628  11.018  15.767  0.0236 -0.1346  0.0229
 4801W        W20418   5.377   6.316  14.838 -0.0829  0.2834  0.2012
 4802W        W20419   7.846  10.240   1.894 -0.2063 -0.0459  0.1615
 4803W        W20420   0.953  16.754   1.488 -0.3142 -0.0245 -0.1960
 4804W        W20421   4.990  16.334   1.470 -0.0309  0.1514  0.0501
 4805W        W20422  17.524   2.465  13.811  0.0203 -0.0770 -0.0049
 4806W        W20423  17.869  10.566   5.870 -0.2014  0.2995 -0.0036
 4807W        W20424  10.317   8.164   0.874  0.1829 -0.0430  0.0696
 4808W        W20425  15.364  12.997   4.771 -0.0381 -0.1214  0.0385
 4809W        W20426   5.365  16.841   3.173  0.0296  0.0744  0.0566
 4810W        W20427   4.599  12.891   4.274  0.3995 -0.0195  0.1947
 4811W        W20428  15.655   3.495  10.277  0.1027  0.0776  0.2334
 4812W        W20429  13.727   7.472  13.979 -0.0282 -0.3330 -0.0836
 4813W        W20430  17.985  12.780   3.941  0.1742 -0.0638 -0.3369
 4814W        W20431  10.364   0.409  15.741  0.2415 -0.1035 -0.0614
 4815W        W20432   7.518  13.077  10.996 -0.0191  0.1469 -0.3608
 4816W        W20433   0.235   0.232   4.985  0.2919  0.1860  0.2139
 4817W        W20434   3.654   8.678   4.844  0.0644 -0.0593 -0.5408
 4818W        W20435   7.111   7.304  14.314 -0.1360  0.2128 -0.0185
 4819W        W20436  11.544   9.194  15.434 -0.2854  0.0859  0.1243
 4820W        W20437  14.497   6.233  11.552  0.2152  0.1606  0.1948
 4821W        W20438   2.695   1.949   5.169 -0.0694  0.0047 -0.2174
 4822W        W20439  17.441   7.306  15.670  0.0363 -0.1526 -0.0877
 4823W        W20440  15.726   5.506  14.975 -0.1186 -0.1893 -0.0673
 4824W        W20441  17.970   8.195  12.794 -0.0424  0.2772  0.1662
 4825W        W20442   3.828   3.298   1.329  0.1619  0.0792 -0.1588
 4826W        W20443  14.258   5.909   0.941 -0.1237 -0.0437  0.1280
 4827W        W20444  11.023  12.583   1.535 -0.1782 -0.2842  0.1217
 4828W        W20445  11.542   4.516   3.735  0.4385 -0.0855 -0.1124
 4829W        W20446   3.229  12.919  14.042  0.0221 -0.0408  0.0661
 4830W        W20447   9.815   9.352   1.364  0.1124 -0.3326  0.1279
 4831W        W20448  14.374  10.718  10.017 -0.0334  0.2191  0.1578
 4832W        W20449   1.221  16.121  13.595 -0.2285 -0.3136 -0.3658
 4833W        W20450   9.439  14.021   3.483 -0.3798 -0.0758 -0.0022
 4834W        W20451   4.524   7.100   4.998  0.4398  0.0270  0.2168
 4835W        W20452   7.973  15.554  12.392 -0.2571 -0.1492 -0.2285
 4836W        W20453   9.296   1.940   0.325  0.1706 -0.0836 -0.0869
 4837W        W20454   0.410   1.519  14.940  0.2236  0.4890  0.0702
 4838W        W20455  15.931  15.660  13.620 -0.3091 -0.2473  0.0731
 4839W        W20456  15.627   4.687  13.235  0.0309 -0.4879  0.1295
 4840W        W20457   7.124   2.216   2.083 -0.1666  0.0513  0.0217
 4841W        W20458   1.162   1.732  15.427 -0.0652  0.0727  0.0296
 4842W        W20459  13.958   9.380   1.793 -0.2432  0.0109 -0.3586
 4843W        W20460  13.500   1.692   3.874 -0.0898  0.2009  0.0147
 4844W        W20461  15.302   8.948  10.188 -0.0672  0.1884  0.1401
 4845W        W20462  14.667  18.568  11.173 -0.0950 -0.2335 -0.0667
 4846W        W20463   2.008  15.511   0.062  0.1181 -0.2196 -0.0872
 4847W        W20464   7.524  11.943   1.226  0.0161 -0.1570  0.4087
 4848W        W20465   9.099   0.871   1.424 -0.0320 -0.0686 -0.2190
 4849W        W20466   0.664   4.671   3.064 -0.1058  0.1036  0.1983
 4850W        W20467  17.374   8.389   5.530  0.2096  0.1171  0.0249
 4851W        W20468   1.722  15.058   4.224 -0.0135 -0.0001 -0.1526
 4852W        W20469   3.168   5.617   0.081 -0.2072 -0.0863  0.0801
 4853W        W20470   2.045  17.631  14.470  0.1028  0.1632 -0.1110
 4854W        W20471  16.243   4.339  14.967 -0.2641  0.1406 -0.1043
 4855W        W20472   8.682   8.937  13.525 -0.2157  0.1049  0.0655
 4856W        W20473   8.224  15.328  10.818 -0.0811 -0.1175  0.2540
 4857W        W20474  16.285  16.800  15.694 -0.1176  0.0433  0.0855
 4858W        W20475   6.171   7.159   4.959  0.0334  0.0344 -0.2611
 4859W        W20476   3.543  11.496  13.398  0.0540 -0.1036 -0.1265
 4860W        W20477   4.656  17.362   0.005 -0.0474  0.0113  0.2122
 4861W        W20478  18.241   0.924   1.651 -0.1980 -0.1332 -0.0704
 4862W        W20479  12.601   3.617   3.922  0.0052  0.1854  0.4041
 4863W        W20480  17.641   3.413   0.122  0.1689 -0.0820 -0.0389
 4864W        W20481   4.051   9.772   0.579 -0.0914 -0.2342 -0.0909
 4865W        W20482  15.431  13.541   2.841 -0.1735  0.0592  0.2575
 4866W        W20483  11.194  12.474   2.182 -0.0711  0.1402  0.0950
 4867W        W20484   7.470  17.147   5.394 -0.3297  0.0604 -0.0200
 4868W        W20485   7.202   2.438  12.953  0.1369  0.1128  0.0554
 4869W        W20486  15.535   6.332  13.907  0.2097 -0.0846 -0.1190
 4870W        W20487  16.667  14.084   4.891  0.0283  0.1548 -0.0732
 4871W        W20488  15.881   4.915  15.661  0.0944 -0.3080 -0.3787
 4872W        W20489  11.208  11.539   3.278 -0.0649  0.0332 -0.1360
 4873W        W20490   7.516   3.956   5.361  0.0905  0.3565  0.3713
 4874W        W20491   3.772  11.704  14.415 -0.1544 -0.1977  0.0635
 4875W        W20492   3.581   8.184  13.727  0.0290 -0.0795  0.0412
 4876W        W20493   6.328   6.703   1.239  0.1626 -0.3394 -0.1983
 4877W        W20494   9.885  18.304  11.679  0.4598 -0.0113  0.3824
 4878W        W20495   7.156   2.925   3.065  0.0319 -0.4467 -0.0277
 4879W        W20496   5.745   5.688   2.484 -0.0435 -0.0082 -0.1788
 4880W        W20497   2.585  14.439   4.189  0.0606 -0.3938 -0.1304
 4881W        W20498  12.327  12.185  13.969  0.0363  0.1652 -0.1689
 4882W        W20499  14.879   8.295  14.181 -0.2095  0.0407  0.3049
 4883W        W20500   7.020  17.329  12.759 -0.2615  0.0064 -0.2239
 4884W        W20501  18.389   5.701   3.342  0.1116  0.1638  0.0948
 4885W        W20502   4.968   3.403  12.310  0.3482  0.2479  0.0103
 4886W        W20503  17.735   6.738   2.197  0.3518 -0.2019 -0.0986
 4887W        W20504   2.540  15.356  11.534 -0.0413  0.1261  0.1116
 4888W        W20505  17.796  14.336   4.984 -0.0518 -0.1450  0.1703
 4889W        W20506   5.498   2.358   1.326  0.1731 -0.3335 -0.1839
 4890W        W20507  10.348   4.689   5.463 -0.2131  0.1649  0.0410
 4891W        W20508  12.674  13.783  11.253  0.3158  0.0286  0.2074
 4892W        W20509  17.966   0.626   1.915  0.3269 -0.2552  0.0458
 4893W        W20510  17.035  14.250   1.804  0.0104 -0.0828  0.1225
 4894W        W20511   1.338  16.746   5.003 -0.0177  0.0434  0.0988
 4895W        W20512   9.846   9.862   1.471 -0.2220 -0.4208 -0.1562
 4896W        W20513   7.562  10.585   0.947 -0.3301  0.1659  0.2335
 4897W        W20514  14.235   3.054  13.054 -0.3990  0.1924 -0.1158
 4898W        W20515   3.105   3.028   3.143 -0.0678 -0.3713  0.0128
 4899W        W20516  16.945  11.169  14.387  0.2291  0.0822 -0.2278
 4900W        W20517   0.205  10.105   4.568 -0.0548  0.2133 -0.2198
 4901W        W20518  16.842   4.931  13.530  0.0299  0.3071 -0.3181
 4902W        W20519  11.328  14.883  12.517 -0.2666 -0.4178 -0.0946
 4903W        W20520  14.288   7.988   1.332 -0.1561  0.0759 -0.1586
 4904W        W20521  12.375   1.733  12.885  0.1492  0.2071  0.3977
 4905W        W20522  13.009  14.541   2.679  0.2675 -0.3255 -0.1684
 4906W        W20523  16.620   8.579  10.682 -0.3048  0.0412 -0.2391
 4907W        W20524  17.427  17.605  13.525  0.0823 -0.0898  0.3210
 4908W        W20525  13.387  18.212   5.683 -0.1491 -0.0013 -0.0227
 4909W        W20526  16.199   2.699   2.349  0.1074  0.1675  0.0691
 4910W        W20527  14.439   8.369  12.711  0.2065  0.1928  0.1503
 4911W        W20528   4.177   0.396  10.871 -0.1468 -0.2514  0.1787
 4912W        W20529   0.199   5.704  13.131 -0.2102  0.2714  0.2119
 4913W        W20530   7.019   0.240   1.183 -0.1995 -0.0622 -0.0806
 4914W        W20531   8.724  15.518   4.384  0.1400  0.0470 -0.1591
 4915W        W20532   7.284  14.888  13.817 -0.2640  0.0080  0.3171
 4916W        W20533   0.055   7.993  15.048  0.1547  0.2166 -0.0473
 4917W        W20534   9.084   8.046  14.834  0.0486  0.0132  0.2651
 4918W        W20535  10.479   5.879  13.199 -0.1371 -0.1360  0.0586
 4919W        W20536   0.464  15.553   4.910 -0.2610  0.0705  0.1587
 4920W        W20537   9.171  14.631  14.858 -0.4809  0.0265  0.1069
 4921W        W20538   4.767   3.440   1.122 -0.0930 -0.1270 -0.1271
 4922W        W20539  12.700  18.001   2.006  0.0666  0.1974  0.0208
 4923W        W20540   4.674   4.442   4.293 -0.2275 -0.0266 -0.0093
 4924W        W20541   9.976   1.461  12.846  0.0673 -0.0242 -0.1361
 4925W        W20542  15.901  12.990   2.157 -0.3805  0.2260  0.1979
 4926W        W20543  10.162  15.831  10.594 -0.0043  0.1355 -0.0881
 4927W        W20544  15.767  13.683  15.336 -0.1355  0.4592 -0.1417
 4928W        W20545   7.142  13.248   3.721  0.2790 -0.2807 -0.1868
 4929W        W20546   5.902   6.542   2.964  0.0166 -0.0446 -0.2579
 4930W        W20547  14.105   9.432   4.886  0.0240 -0.0630  0.3623
 4931W        W20548  14.003  16.650  13.638  0.0931  0.3134  0.2092
 4932W        W20549  11.063   1.504   5.304 -0.0337 -0.2934  0.2498
 4933W        W20550  12.633   6.975  11.379 -0.1162 -0.1177 -0.2405
 4934W        W20551   5.986  14.319   4.426  0.0147 -0.1822 -0.0081
 4935W        W20552   6.875  10.462  13.975  0.0327 -0.0773 -0.5102
 4936W        W20553  18.469  15.067   4.466 -0.1716  0.2021  0.0168
 4937W        W20554  17.600  12.927  12.919 -0.0373 -0.0160  0.1948
 4938W        W20555  17.742   0.802   0.394  0.0517 -0.2205 -0.1180
 4939W        W20556  10.443   5.273  11.118  0.2671  0.1295  0.1087
 4940W        W20557   0.372   1.743   0.899 -0.1885 -0.3539 -0.4048
 4941W        W20558   7.158   6.720   0.263  0.0641 -0.1908 -0.1782
 4942W        W20559  11.529   0.841   6.024  0.0718 -0.0295 -0.1220
 4943W        W20560   4.712  11.993  13.336 -0.3009 -0.1484 -0.0159
 4944W        W20561  17.877   7.806   2.277 -0.3821  0.1238 -0.0043
 4945W        W20562   6.283  12.232   0.923 -0.0917 -0.2436 -0.1377
 4946W        W20563   4.129   3.041   4.547 -0.3883  0.0479  0.0805
 4947W        W20564   9.820  17.844   0.708  0.0449  0.0107  0.3211
 4948W        W20565   1.617  14.508   4.211  0.0424  0.0221  0.1310
 4949W        W20566   4.631   2.603  12.339 -0.0262 -0.2835 -0.0517
 4950W        W20567  17.093  15.199   1.464  0.0265 -0.0825  0.1577
 4951W        W20568  17.381  14.567   9.523 -0.0950  0.2440  0.0193
 4952W        W20569  11.416   8.563   4.655 -0.3207 -0.0891  0.0801
 4953W        W20570  11.720  16.309   1.086  0.1407  0.0277 -0.1873
 4954W        W20571  17.950   5.263   2.528  0.0627  0.1480  0.2469
 4955W        W20572   5.162  13.386   4.058 -0.2093 -0.0736  0.2176
 4956W        W20573  11.998  13.159   4.930  0.3034 -0.1365  0.0573
 4957W        W20574  15.729   4.690   4.032  0.1511  0.0208  0.1225
 4958W        W20575  12.991  17.186  12.435  0.4647 -0.2832 -0.2327
 4959W        W20576  18.541   3.602   5.262 -0.0626 -0.2558  0.0461
 4960W        W20577   7.912  15.516   4.706 -0.1522 -0.2091 -0.0631
 4961W        W20578   4.055   4.520  15.363 -0.0210 -0.0782 -0.0366
 4962W        W20579  11.369   9.690  11.550  0.1062 -0.0165  0.0172
 4963W        W20580   4.772   9.286  12.245 -0.1507  0.1088 -0.1136
 4964W        W20581   6.308   5.744  13.870 -0.0472  0.1793  0.0986
 4965W        W20582  18.257   1.996   1.875 -0.1586 -0.0007  0.0177
 4966W        W20583   7.901  12.890   3.238 -0.1478 -0.2389  0.0490
 4967W        W20584   9.445   5.545  12.035  0.2247  0.0808 -0.2981
 4968W        W20585  10.811  13.549   1.556 -0.0345  0.1300 -0.1050
 4969W        W20586   2.223   4.908   1.140  0.0784  0.0921 -0.0620
 4970W        W20587   7.890  17.658   2.237 -0.3296 -0.0420 -0.2076
 4971W        W20588   2.307   2.509   0.069 -0.1169  0.1227  0.1655
 4972W        W20589  12.743   8.357  14.842 -0.1081 -0.0488  0.1767
 4973W        W20590   2.502   9.683   1.529 -0.0708 -0.0440  0.2820
 4974W        W20591  18.110   4.690  12.298  0.1853 -0.1135 -0.2112
 4975W        W20592   1.178  16.676  13.672 -0.3466  0.1711  0.1001
 4976W        W20593  10.697   9.429   4.220  0.2805  0.0682  0.0348
 4977W        W20594  12.348  12.593   1.427 -0.1421 -0.0823 -0.0317
 4978W        W20595  16.716   0.774  14.969  0.3194  0.1467 -0.1875
 4979W        W20596  17.095   5.454  14.314 -0.2071  0.0659 -0.4193
 4980W        W20597   1.936  16.437  13.176 -0.0078 -0.5283  0.3773
 4981W        W20598  12.090  13.826  15.651  0.1216  0.0389 -0.0358
 4982W        W20599   6.882   3.824   4.927 -0.0476 -0.1788  0.1017
 4983W        W20600  11.703  13.517  11.792  0.0097  0.1458  0.0022
 4984W        W20601   0.356  13.346  12.182 -0.3202  0.1289 -0.5608
 4985W        W20602   7.732  12.829  12.832  0.1647 -0.0081 -0.0927
 4986W        W20603   6.642  15.380   1.765  0.2578  0.0551  0.0280
 4987W        W20604  13.380   0.799  13.273  0.3462  0.1594  0.0462
 4988W        W20605   7.484   8.564   3.006  0.0095 -0.0633 -0.0916
 4989W        W20606   9.209  10.058   3.855  0.2289  0.0387 -0.1390
 4990W        W20607   6.171  11.694  13.482 -0.0190 -0.0355  0.1107
 4991W        W20608   5.495   5.281  14.216 -0.0822 -0.0764 -0.1394
 4992W        W20609  17.733   8.319   4.162  0.0959 -0.2091 -0.1880
 4993W        W20610  13.148   6.127   1.009 -0.1347 -0.1661 -0.1062
 4994W        W20611   8.452   3.343   1.853 -0.1901 -0.2244  0.0884
 4995W        W20612  10.891   9.811  15.156  0.0126  0.0067  0.3588
 4996W        W20613  15.075  11.571   5.075  0.0231  0.1148  0.5121
 4997W        W20614  14.896   4.082  11.718  0.1468  0.0496 -0.2795
 4998W        W20615   0.008   4.901   3.957  0.1272  0.2057  0.0862
 4999W        W20616  12.712   7.167  13.415 -0.0967 -0.1886  0.0098
 5000W        W20617   8.829  10.494  14.973 -0.1284 -0.2084  0.1814
 5001W        W20618   4.031  13.322  12.614  0.2186 -0.1903  0.1957
 5002W        W20619  16.453   5.086   2.312 -0.3589  0.3005  0.0499
 5003W        W20620   9.333  16.688   5.558  0.1703 -0.1546  0.0345
 5004W        W20621  10.763   0.955  12.844  0.1370 -0.1528 -0.0425
 5005W        W20622  13.486  10.790  14.323 -0.1414  0.0721 -0.2750
 5006W        W20623  15.862  17.378   0.850 -0.0522  0.1387  0.1813
 5007W        W20624   4.711   8.910  15.033 -0.7346 -0.1078  0.1856
 5008W        W20625   0.983   7.083  13.832 -0.1489  0.0306 -0.2811
 5009W        W20626  12.112   1.722   0.674 -0.1159  0.2194  0.0905
 5010W        W20627   3.494   3.390   3.286 -0.1151  0.1775 -0.0143
 5011W        W20628   0.754   8.492  14.501  0.1915 -0.2842  0.5081
 5012W        W20629  14.071   7.448   4.464  0.0513 -0.1291 -0.1863
 5013W        W20630  14.454   5.282  12.440  0.0574  0.0358 -0.1802
 5014W        W20631  13.778  15.807  11.160 -0.1037  0.0617  0.1921
 5015W        W20632   1.650   9.182  11.868  0.0983 -0.1878  0.2310
 5016W        W20633   4.306   1.170  11.514  0.0280  0.0282 -0.1389
 5017W        W20634   1.748   8.158   2.316 -0.0404 -0.2689 -0.1958
 5018W        W20635   0.239  11.863   2.259  0.0584 -0.1550 -0.0797
 5019W        W20636   3.564   1.950  10.419 -0.1702 -0.0784  0.1262
 5020W        W20637  13.941  12.480   0.807 -0.2625  0.0092 -0.0961
 5021W        W20638  18.388   2.076   3.443  0.2227  0.2708  0.1336
 5022W        W20639  13.955  13.571  11.001 -0.1922 -0.1966  0.0614
 5023W        W20640  15.414   6.397  12.688 -0.3624  0.1175 -0.0422
 5024W        W20641   1.193   1.258  15.477  0.1578 -0.0948  0.2767
 5025W        W20642  17.256  18.552   1.307 -0.1406  0.1345  0.0852
 5026W        W20643   4.402  13.301  14.322  0.2310  0.0580  0.0251
 5027W        W20644   1.705   0.713   4.318  0.0198  0.3335 -0.2491
 5028W        W20645  15.508   1.507  15.647 -0.1487 -0.1540  0.2724
 5029W        W20646   6.024  17.750   4.173  0.1476 -0.0373 -0.2610
 5030W        W20647  17.374   0.097   5.050  0.3781 -0.1720  0.1009
 5031W        W20648   0.226  17.023   0.021  0.2337  0.0896 -0.0491
 5032W        W20649  17.989  10.950  11.265 -0.0083 -0.1724  0.0850
 5033W        W20650  16.083  13.877   3.660 -0.0829 -0.1039  0.0102
 5034W        W20651  16.477  13.240  13.401 -0.2775  0.1362 -0.0848
 5035W        W20652  12.333  13.446  13.246 -0.4104  0.0134  0.0339
 5036W        W20653   3.972   6.656  14.539  0.2545 -0.0588 -0.0010
 5037W        W20654   1.657   3.881  14.863  0.1296  0.0399  0.2386
 5038W        W20655  17.809   6.859   3.703  0.2846  0.0947 -0.0151
 5039W        W20656  13.223  18.501  14.074 -0.0726  0.3005  0.1595
 5040W        W20657  11.666  10.780   2.787 -0.0458 -0.0435 -0.4136
 5041W        W20658   0.370   5.210   5.230  0.1162  0.3131  0.0679
 5042W        W20659   0.724   8.407  11.197  0.2128 -0.0275 -0.1375
 5043W        W20660  15.549   9.902   4.227 -0.1530 -0.2800 -0.0895
 5044W        W20661  10.980   5.942  13.155  0.2843 -0.2350  0.0106
 5045W        W20662  11.205  15.221   1.685  0.0361  0.0042 -0.0163
 5046W        W20663   7.689  14.292   2.010  0.2050  0.1056  0.2061
 5047W        W20664  11.158   6.411   1.146 -0.0946  0.3466  0.1716
 5048W        W20665  12.538  10.191   1.265  0.2273  0.2515 -0.0927
 5049W        W20666  11.038  16.392  15.295 -0.0502  0.3510 -0.0016
 5050W        W20667   0.792   5.581  11.665  0.0118  0.1172 -0.0895
 5051W        W20668   4.170  14.586  15.286  0.1441 -0.0788  0.1137
 5052W        W20669  15.961   9.741  15.395 -0.2520  0.1372  0.0021
 5053W        W20670   6.791  10.844   1.555  0.3668  0.1714 -0.2659
 5054W        W20671   9.536   6.352   4.529  0.2157  0.3487 -0.3403
 5055W        W20672   3.252  10.045  14.953 -0.1721  0.1756 -0.1403
 5056W        W20673  12.139  13.023   0.085 -0.1999  0.0242 -0.0584
 5057W        W20674   6.635  12.923   1.491 -0.2130 -0.0149 -0.0111
 5058W        W20675   6.204   2.045  12.163 -0.1409 -0.0231 -0.1324
 5059W        W20676  17.695   4.537   1.633  0.2632  0.0124 -0.2005
 5060W        W20677  12.824   9.697   0.945 -0.0595 -0.1340  0.2864
 5061W        W20678  18.467  15.337  11.832  0.1768  0.0418  0.4796
 5062W        W20679   0.434   7.941   3.203 -0.0567 -0.0915 -0.2055
 5063W        W20680  13.282  17.332   2.082 -0.1987  0.1219 -0.0209
 5064W        W20681  13.589   0.381  13.056 -0.1850 -0.2219  0.0005
 5065W        W20682   3.623   0.661  15.104  0.1751  0.1298 -0.0107
 5066W        W20683  16.655   5.208   5.125 -0.1356 -0.2128 -0.4592
 5067W        W20684  12.489   2.615  15.773  0.3471 -0.0014  0.1193
 5068W        W20685  11.043  12.744  15.190 -0.3936  0.0371 -0.0136
 5069W        W20686   9.039   8.366   5.259  0.1480  0.0357  0.1370
 5070W        W20687  11.393  16.728  12.741 -0.1704 -0.0823 -0.1363
 5071W        W20688   7.184   3.931  11.363 -0.3677  0.1505  0.0715
 5072W        W20689  17.602   1.837   3.064  0.1869 -0.2733 -0.2689
 5073W        W20690  13.551  17.707   2.595  0.0998  0.1466  0.3676
 5074W        W20691   4.717   5.452   2.609 -0.0600 -0.0805 -0.1151
 5075W        W20692   0.430  10.957   1.934 -0.1269  0.0260 -0.2311
 5076W        W20693   5.936  13.245  11.753 -0.1060  0.1448  0.0147
 5077W        W20694   7.431  12.178   5.349 -0.1052  0.1214  0.2853
 5078W        W20695   0.522  14.248  14.041  0.1874 -0.1894  0.3532
 5079W        W20696   9.730   2.822   0.810  0.0604 -0.1920  0.4383
 5080W        W20697   5.074  10.571   4.755  0.0101 -0.0771 -0.1393
 5081W        W20698   4.853   7.937  15.369  0.2051 -0.0359 -0.0832
 5082W        W20699   2.889  17.685  13.932  0.4518  0.4332  0.2469
 5083W        W20700  12.477   4.490   4.018  0.0492  0.0770  0.1730
 5084W        W20701   3.354  10.004  14.017 -0.0480  0.0846  0.3001
 5085W        W20702  12.667   4.588   4.905 -0.0534 -0.0944  0.0459
 5086W        W20703   5.236  14.047  10.640  0.2032 -0.0693 -0.1252
 5087W        W20704   2.164  16.038   3.000 -0.1405  0.1394 -0.4071
 5088W        W20705   3.466   9.539  10.867  0.0633 -0.0411 -0.2416
 5089W        W20706  17.733   4.982   1.727 -0.2254  0.0890  0.0438
 5090W        W20707   6.446   2.494  14.998 -0.0728  0.1300  0.0865
 5091W        W20708  12.817   5.836  13.197  0.0482  0.2935  0.3510
 5092W        W20709   8.684   8.078   1.459 -0.0742 -0.0653 -0.0175
 5093W        W20710   9.756   3.816  12.034  0.1382  0.0057 -0.1052
 5094W        W20711   5.800   8.500  11.160  0.2926  0.0739 -0.1032
 5095W        W20712  18.097  12.945  12.875  0.0469 -0.2248  0.2633
 5096W        W20713  15.045   5.226  12.561 -0.1019  0.1067  0.1684
 5097W        W20714   5.788   5.776   0.007 -0.3628  0.0936 -0.1429
 5098W        W20715  11.747   8.712   3.511  0.2513  0.2979 -0.0223
 5099W        W20716   4.909   4.818   1.293 -0.1938  0.1928 -0.1095
 5100W        W20717   2.459   2.598  15.420 -0.3266 -0.2204  0.1636
 5101W        W20718  13.708  16.593  12.861  0.1244  0.0004  0.3135
 5102W        W20719  12.180   5.266  13.341  0.0077 -0.0564  0.4573
 5103W        W20720  15.799  15.421  10.191  0.3018 -0.4781 -0.0273
 5104W        W20721  13.760   1.350   5.925  0.0112 -0.1413  0.1480
 5105W        W20722   9.853  14.755  12.262 -0.1825 -0.1818  0.1854
 5106W        W20723   9.782   7.527   5.195  0.1322 -0.3792  0.1697
 5107W        W20724   6.221   1.247   5.879  0.1598  0.4524 -0.3509
 5108W        W20725  14.655   8.991  11.746 -0.1587  0.1092  0.1572
 5109W        W20726  12.253  11.290  14.125 -0.3891  0.4320  0.0088
 5110W        W20727   9.353  10.490   2.679  0.1448  0.0927  0.0455
 5111W        W20728   6.447   4.605   4.398 -0.1729 -0.0090  0.0741
 5112W        W20729   7.028  15.957  13.023  0.1673  0.1308  0.0929
 5113W        W20730   2.831  15.267   0.397 -0.1218  0.1542  0.0581
 5114W        W20731   5.332  14.931   1.481  0.1508  0.3247  0.0424
 5115W        W20732  11.357   3.503   5.403  0.2593 -0.0954 -0.1468
 5116W        W20733  14.307   8.949   4.280 -0.4055 -0.0985  0.3151
 5117W        W20734   1.159  16.941  12.694  0.2230 -0.0389 -0.1436
 5118W        W20735   5.031   6.432   2.938  0.3694 -0.1869  0.1032
 5119W        W20736   4.504  12.088  11.116 -0.0630 -0.3243 -0.1954
 5120W        W20737  16.208   1.532  15.442 -0.0406 -0.2208  0.0240
 5121W        W20738  18.250   0.575  10.136 -0.0373  0.0887  0.2683
 5122W        W20739   6.260   6.876   5.980  0.0860  0.0332 -0.0058
 5123W        W20740  17.185  10.800   2.749 -0.0010 -0.1246  0.2366
 5124W        W20741   2.027   5.422  14.116  0.0390  0.0763  0.0676
 5125W        W20742   2.332   7.427  12.689 -0.0267  0.0573  0.0757
 5126W        W20743  17.613  13.367   9.467 -0.1219 -0.1592 -0.2852
 5127W        W20744   8.808  17.086   0.759 -0.3281 -0.2325 -0.2095
 5128W        W20745   7.588   0.389   3.227 -0.1625  0.3719 -0.2825
 5129W        W20746   7.357  13.967  10.098  0.1276 -0.0860  0.1963
 5130W        W20747  14.470   1.945  13.531 -0.1547 -0.1844 -0.0423
 5131W        W20748  12.799   0.490  12.139 -0.3520 -0.0152 -0.2991
 5132W        W20749   7.372  12.939   4.537  0.1491  0.0095 -0.0620
 5133W        W20750   8.938   7.424  15.564  0.1668  0.0389  0.1369
 5134W        W20751  13.904  17.899  13.295 -0.2455 -0.1776 -0.0437
 5135W        W20752  16.208   4.855   3.546  0.4214 -0.1726 -0.2755
 5136W        W20753   4.733   1.427  14.976  0.0195 -0.0117  0.1198
 5137W        W20754   0.898   5.146   5.257 -0.0080  0.0549  0.3206
 5138W        W20755   8.382   9.834   4.092  0.2757  0.2167  0.0389
 5139W        W20756   2.534   0.742   4.645 -0.0925  0.1190 -0.1465
 5140W        W20757  16.617  16.842  13.278 -0.2282  0.0651  0.1940
 5141W        W20758  16.992   7.330   2.135 -0.0358 -0.3137 -0.0267
 5142W        W20759  17.203   6.909   0.762  0.3118  0.0850  0.2085
 5143W        W20760   2.835   7.310  15.356 -0.2420 -0.1634 -0.0057
 5144W        W20761   1.198   7.301   0.727  0.0734 -0.2708 -0.2183
 5145W        W20762   3.840   9.987   0.073 -0.1478  0.1892 -0.2358
 5146W        W20763  14.599   8.200   2.200  0.1550  0.0099 -0.2849
 5147W        W20764   1.425  13.826  15.031  0.0585 -0.2788  0.3326
 5148W        W20765  13.376  16.448   5.862 -0.0457 -0.1154 -0.1936
 5149W        W20766   2.725  11.414   0.422 -0.0416 -0.0668  0.0755
 5150W        W20767   3.003   1.323  12.627  0.1707  0.1171 -0.3853
 5151W        W20768   2.114   2.838   1.499  0.4372 -0.1497 -0.4232
 5152W        W20769   0.303   0.279  12.354  0.1249  0.1300  0.2005
 5153W        W20770  14.377   4.681  15.632 -0.0987  0.1581  0.0264
 5154W        W20771  13.516  10.104   2.002  0.1327 -0.1368  0.0446
 5155W        W20772   3.844  10.773  13.934 -0.1770 -0.1545 -0.0427
 5156W        W20773  13.050  11.153   0.704  0.8001  0.1306 -0.5355
 5157W        W20774   5.872  17.722  12.042 -0.1982  0.0552 -0.1218
 5158W        W20775   9.161  13.671   1.750 -0.1185 -0.3326 -0.0709
 5159W        W20776  11.953   1.511  12.669  0.1378  0.2234  0.0577
 5160W        W20777   9.509  16.544  13.435  0.2233  0.1562  0.2378
 5161W        W20778  13.018   3.454   0.152  0.3191  0.1024  0.4560
 5162W        W20779   0.795   0.650  14.750 -0.0331  0.0641  0.2227
 5163W        W20780   7.652  13.878   2.562  0.1749  0.3850  0.0353
 5164W        W20781  10.527  10.612   3.887 -0.3774  0.2242 -0.0377
 5165W        W20782  16.729  11.120  12.082 -0.2432 -0.0664 -0.0001
 5166W        W20783   3.729  12.461  13.575 -0.1121 -0.2627 -0.4211
 5167W        W20784   2.672   0.149   1.532  0.2291  0.1798 -0.1573
 5168W        W20785  12.381  16.002   3.052 -0.3579  0.0492 -0.1502
 5169W        W20786  15.508  17.295   2.722  0.1177  0.1426  0.1994
 5170W        W20787   9.001  13.437   5.409 -0.1022  0.1270  0.5317
 5171W        W20788  14.191   4.562  14.435 -0.1291 -0.3864  0.1135
 5172W        W20789  17.383   1.191  15.780  0.0503 -0.0118  0.3195
 5173W        W20790   3.992   6.002  15.207 -0.1110  0.1456  0.3326
 5174W        W20791  12.449   1.019   1.621 -0.1379  0.1762 -0.1039
 5175W        W20792  10.767   7.597  12.261 -0.0178  0.0107  0.1334
 5176W        W20793   6.890   5.250  13.125  0.3569  0.3168  0.0610
 5177W        W20794   8.833  16.163  13.433  0.1930 -0.1137  0.4872
 5178W        W20795   8.599   8.252  11.015 -0.1111  0.0161  0.7292
 5179W        W20796   6.247   7.387   1.356  0.1046 -0.1821  0.2942
 5180W        W20797  12.859  10.385   2.590 -0.0584 -0.1466 -0.0053
 5181W        W20798   1.006   3.676   2.248 -0.0407  0.0359 -0.1772
 5182W        W20799  16.991  10.054   4.606 -0.2236 -0.0308  0.2679
 5183W        W20800   2.945   9.417   4.714  0.2645 -0.0749  0.1378
 5184W        W20801   5.517   0.574   1.644  0.1741 -0.0399  0.2156
 5185W        W20802   9.724   9.765  15.517  0.1135  0.1774 -0.0530
 5186W        W20803   0.971  12.671   2.265  0.1601 -0.1789  0.1310
 5187W        W20804  17.317   8.986  14.200  0.2228  0.1545  0.3022
 5188W        W20805   7.077   7.845   1.744 -0.2660  0.3077  0.0140
 5189W        W20806  14.299   1.593  12.620 -0.2712 -0.0062  0.1145
 5190W        W20807   4.020   1.438  13.599  0.1177 -0.0247 -0.0134
 5191W        W20808   1.647  18.004   1.222 -0.1236  0.2006 -0.0201
 5192W        W20809   0.542   2.404  15.501 -0.1582  0.1243 -0.3261
 5193W        W20810   8.389   0.037  11.602  0.2381  0.1275  0.0758
 5194W        W20811  16.854   9.439  11.530  0.0164  0.2393  0.4291
 5195W        W20812   6.931   1.569   5.627 -0.0922  0.0954 -0.0230
 5196W        W20813  15.891  12.360   0.736 -0.0489  0.3987  0.2377
 5197W        W20814  13.537  14.094   2.086 -0.0021 -0.2120 -0.1155
 5198W        W20815   4.217  10.273  14.840  0.0919 -0.0752  0.1805
 5199W        W20816   1.289  11.731   1.334 -0.0532 -0.1834 -0.1575
 5200W        W20817   4.962  12.390  11.448 -0.2984 -0.0783  0.0733
 5201W        W20818   0.725   6.420   2.274 -0.0551  0.1760  0.0288
 5202W        W20819   9.162  14.345   1.035  0.0172  0.3188  0.0021
 5203W        W20820   2.046  16.469  10.921  0.3476 -0.5103 -0.1061
 5204W        W20821   5.962   7.561   2.837  0.1469 -0.0229 -0.0337
 5205W        W20822  10.911  16.456  12.291 -0.2800 -0.1195 -0.2779
 5206W        W20823   0.326   1.513   2.786  0.2849  0.0765 -0.0595
 5207W        W20824  17.458   2.801  11.458  0.1052 -0.0511 -0.1126
 5208W        W20825   9.159   3.080   2.246  0.0339  0.0634 -0.0152
 5209W        W20826   4.455   4.325   2.698 -0.0769 -0.0698 -0.0769
 5210W        W20827   4.209  12.527   4.159 -0.0495 -0.1783 -0.3087
 5211W        W20828   9.703  15.698  14.497 -0.0834  0.3288  0.1380
 5212W        W20829  13.462  15.593  13.490 -0.1193 -0.0346 -0.1262
 5213W        W20830   5.387   4.585   1.716 -0.1289  0.0929  0.0194
 5214W        W20831  10.541   3.093  15.496 -0.0175  0.3046 -0.1714
 5215W        W20832  10.733  13.247  13.206  0.1641 -0.0400 -0.1507
 5216W        W20833   8.603   9.599  15.085 -0.2588  0.2262  0.2841
 5217W        W20834   4.098   6.027  11.620 -0.0410  0.2286 -0.0260
 5218W        W20835  13.210  16.246  12.095 -0.0807 -0.2561  0.0757
 5219W        W20836   2.907   2.716   2.343 -0.0692  0.1433 -0.0995
 5220W        W20837   7.456   2.994   0.702  0.0363 -0.1069 -0.2322
 5221W        W20838  12.829  12.281  13.340 -0.2070  0.1128 -0.1419
 5222W        W20839  11.105  12.278   0.287 -0.1896 -0.0073  0.1553
 5223W        W20840   2.272   2.689   4.879 -0.5256 -0.1944 -0.3387
 5224W        W20841   5.602   2.809  14.984  0.1808  0.0370 -0.0250
 5225W        W20842   0.953   9.030   1.701  0.0028  0.1461 -0.0576
 5226W        W20843  18.055  17.559  15.738 -0.3906 -0.0719 -0.1785
 5227W        W20844   7.364  12.169  10.826  0.2590 -0.1314 -0.2731
 5228W        W20845   0.083   7.207   0.227  0.2691  0.3112 -0.0583
 5229W        W20846  10.392  18.332   2.367  0.2480  0.1642 -0.3865
 5230W        W20847  13.571   4.864  12.361  0.0574  0.1759  0.3119
 5231W        W20848  14.368  16.312   1.492 -0.0435 -0.4311  0.0306
 5232W        W20849  12.547  17.554  11.962 -0.0659 -0.0310 -0.0120
 5233W        W20850   8.371  12.920   1.828 -0.3368  0.1173  0.1437
 5234W        W20851  12.459   6.089   2.807 -0.0120  0.4457  0.0442
 5235W        W20852   4.352  13.581  12.304 -0.0959  0.0735 -0.2301
 5236W        W20853   0.375   8.078   1.883  0.2288 -0.2083  0.0272
 5237W        W20854  14.518   5.591   3.683 -0.0117 -0.0082  0.2325
 5238W        W20855   4.349   7.132   4.216  0.0977  0.2139  0.2381
 5239W        W20856  13.744  11.995  13.925  0.2337 -0.1619 -0.0016
 5240W        W20857   7.867  16.470   1.828  0.3284 -0.1177  0.1849
 5241W        W20858   4.278   7.204  14.538 -0.0802 -0.0023  0.1373
 5242W        W20859   4.696   1.391   2.398 -0.0525 -0.1654  0.2190
 5243W        W20860  10.065   8.232   1.376 -0.2770  0.1266  0.0357
 5244W        W20861   0.855   8.385   0.201  0.0391  0.0868  0.4493
 5245W        W20862  12.290  12.242  13.423  0.1587 -0.1535 -0.0740
 5246W        W20863  16.270   9.599   2.308 -0.0196  0.1209 -0.2992
 5247W        W20864  18.439   9.589   1.876  0.0530  0.0862 -0.0533
 5248W        W20865   5.861   3.157   2.369 -0.1588 -0.1215  0.2826
 5249W        W20866   3.457  13.376  12.202  0.0361 -0.4287 -0.1469
 5250W        W20867  12.159   0.391   3.778  0.0981 -0.3585 -0.1564
 5251W        W20868   1.385   2.400  13.724 -0.0116  0.1686 -0.0492
 5252W        W20869   9.607   3.305   2.455 -0.1449  0.0492 -0.0923
 5253W        W20870   4.714   6.462  13.634  0.2909  0.2403 -0.0527
 5254W        W20871   4.445  18.498   0.981 -0.1629  0.0035  0.0928
 5255W        W20872  14.551   0.282   0.074 -0.0371 -0.0989 -0.2901
 5256W        W20873   7.937  16.134   0.811  0.1361 -0.3688 -0.0734
 5257W        W20874  15.224   1.847   5.080  0.1195 -0.2189 -0.1366
 5258W        W20875  13.010  13.653   0.280 -0.1940  0.3153  0.0855
 5259W        W20876   3.506   7.784   3.829  0.6098  0.1449  0.0110
 5260W        W20877   4.978  14.814  11.198  0.1390 -0.0467 -0.0722
 5261W        W20878   3.760  15.989  12.110  0.0234 -0.3290  0.1374
 5262W        W20879   4.595   1.393  14.422  0.1592  0.0633 -0.1544
 5263W        W20880   7.387   3.198  12.559 -0.1970  0.1946  0.2219
 5264W        W20881  12.270   1.797   2.036  0.2030 -0.1158 -0.0887
 5265W        W20882  15.765  17.255  14.581  0.2286  0.1406  0.2729
 5266W        W20883  10.944   7.650  11.708  0.0898  0.4195  0.0455
 5267W        W20884  15.633   5.885  11.522 -0.1283  0.1610 -0.1680
 5268W        W20885   4.390  16.842   3.480 -0.1316 -0.0991  0.0211
 5269W        W20886  11.006   8.822  12.299  0.1115  0.3387 -0.1068
 5270W        W20887   3.651  11.906  12.602 -0.0455  0.2489  0.1653
 5271W        W20888   1.456   7.787   4.401 -0.0112  0.3125  0.0619
 5272W        W20889   6.234   4.637  11.038  0.0321 -0.1009  0.1009
 5273W        W20890  13.722   7.817   2.520  0.1728  0.0178 -0.2396
 5274W        W20891   9.681   5.972  13.764  0.1383  0.0792 -0.4889
 5275W        W20892  17.088   2.278  14.729  0.1148 -0.2437  0.1468
 5276W        W20893   2.712  10.030  15.669 -0.1539 -0.2904 -0.1862
 5277W        W20894  12.053  12.603  12.571 -0.0108  0.0325  0.4870
 5278W        W20895   8.177  11.205   3.494 -0.0612 -0.2195  0.0451
 5279W        W20896  13.056   2.979   2.599  0.1701  0.1385 -0.1358
 5280W        W20897  13.561   7.244   3.013 -0.2942  0.1488  0.0093
 5281W        W20898   2.024  12.301   4.022 -0.4266  0.3756  0.0501
 5282W        W20899  17.673  16.976   1.149  0.1512 -0.0736 -0.1089
 5283W        W20900  13.229  13.497  14.623  0.0988  0.0059 -0.0283
 5284W        W20901  11.826  12.529  11.997  0.1873 -0.1794 -0.3088
 5285W        W20902  12.980  10.363   5.229 -0.0660  0.3381  0.0191
 5286W        W20903   2.150   7.799   0.562 -0.0540 -0.2560 -0.1768
 5287W        W20904   9.024  12.457  10.600  0.0028  0.3143  0.0810
 5288W        W20905   0.463  12.632   4.352  0.1336  0.2102  0.1147
 5289W        W20906   5.977  11.741   1.888 -0.1829 -0.0964 -0.1390
 5290W        W20907  14.335  10.571  12.214  0.0299  0.1582 -0.1075
 5291W        W20908   3.181  13.731   4.086 -0.2978  0.0681 -0.0860
 5292W        W20909   8.660   6.897  15.614 -0.0648 -0.0965 -0.1483
 5293W        W20910  14.601   8.144  12.161  0.0632 -0.0515  0.1147
 5294W        W20911   8.637   0.520   2.566 -0.2262  0.1281 -0.0782
 5295W        W20912   4.576  13.397   3.970 -0.1149  0.3194 -0.0691
 5296W        W20913   3.843   8.170  14.734 -0.1979 -0.1475  0.3370
 5297W        W20914   2.486  13.220   1.395  0.1035  0.2503 -0.0690
 5298W        W20915  11.281   2.516   4.786  0.1532  0.1591 -0.1190
 5299W        W20916   4.419  18.527  10.957  0.0816 -0.0820 -0.2282
 5300W        W20917  13.447  11.092   3.134 -0.1293  0.0529 -0.0864
 5301W        W20918   6.698  13.542   0.227 -0.0391 -0.3772  0.1821
 5302W        W20919   9.367  11.101  12.948  0.1956  0.2189 -0.3820
 5303W        W20920  15.253   0.187  12.748 -0.2961  0.0531  0.0758
 5304W        W20921  10.014  12.849  13.541  0.2236  0.1253 -0.3462
 5305W        W20922   2.431  11.485  14.614 -0.0346  0.0938  0.1355
 5306W        W20923  11.709   2.369   2.748 -0.1124 -0.1593 -0.2452
 5307W        W20924  16.703   8.251   1.453  0.2264 -0.1605  0.0979
 5308W        W20925  14.795   5.983   0.900 -0.0864 -0.0431  0.1589
 5309W        W20926  13.269   0.651  12.376 -0.2668  0.1853 -0.1020
 5310W        W20927   4.704   1.141  13.560  0.0360 -0.4197  0.0528
 5311W        W20928   3.750   5.580   0.703  0.7045 -0.1635 -0.0508
 5312W        W20929   2.056   4.745  12.637 -0.1524  0.2359  0.0531
 5313W        W20930  11.845  18.389   1.212 -0.4864  0.0721 -0.0832
 5314W        W20931   4.794  14.736  14.212 -0.1372 -0.1389  0.1554
 5315W        W20932   9.449  13.892   0.879 -0.3239  0.2293 -0.2609
 5316W        W20933   3.277  17.678   3.815  0.2361  0.0360 -0.4252
 5317W        W20934   7.197   9.163   5.109 -0.0956  0.0447 -0.1255
 5318W        W20935   9.425   4.967   5.610 -0.0101  0.0708 -0.2625
 5319W        W20936   7.648  10.754  12.694 -0.2387 -0.1311  0.1253
 5320W        W20937   9.851   8.428   0.965 -0.2170 -0.0306 -0.0341
 5321W        W20938  15.713   2.246  13.601  0.2316  0.1243  0.0662
 5322W        W20939  13.399   7.114   4.987 -0.0038 -0.0463 -0.2166
 5323W        W20940  17.510  18.576  11.580 -0.0573 -0.0833  0.0851
 5324W        W20941   8.315   8.591  13.180 -0.0492 -0.1328  0.1203
 5325W        W20942   3.661  11.020   2.473  0.0880  0.2509 -0.0776
 5326W        W20943  17.094  12.872   2.573 -0.4041  0.1751 -0.2507
 5327W        W20944  11.663  13.277  15.312  0.2057 -0.1915 -0.0609
 5328W        W20945  13.505   2.806  15.120  0.0158 -0.1243  0.1297
 5329W        W20946   7.753  14.788   2.167  0.3486  0.2079 -0.0350
 5330W        W20947   6.307  12.119  13.122  0.1234 -0.3951  0.0070
 5331W        W20948   6.842  18.180   5.742 -0.1149  0.0307  0.0072
 5332W        W20949   5.732  12.711  14.479  0.2156 -0.1918 -0.0582
 5333W        W20950  10.853  10.562  15.569  0.2187 -0.0186  0.3420
 5334W        W20951  14.508  11.878   2.874 -0.2553 -0.2584  0.1591
 5335W        W20952   9.129  10.859  12.050  0.2580  0.3256 -0.2292
 5336W        W20953   8.939   3.120   5.634  0.0640 -0.2008  0.3015
 5337W        W20954  18.067   9.779  12.163 -0.3345  0.0787 -0.2753
 5338W        W20955   2.557   6.179  12.401 -0.0913  0.0467 -0.2553
 5339W        W20956  14.512  12.010  12.423 -0.0507  0.0477  0.0628
 5340W        W20957  18.537   3.497  11.836  0.1603 -0.2193  0.0294
 5341W        W20958  11.065  17.537   1.583 -0.1251  0.2829 -0.0340
 5342W        W20959   1.489   8.951   0.171 -0.0571 -0.2403 -0.1667
 5343W        W20960   5.264   0.572   5.264 -0.1305 -0.1163 -0.0541
 5344W        W20961  14.001   7.308   3.986 -0.1916  0.0370 -0.0718
 5345W        W20962  12.520   4.475   3.562 -0.1333 -0.0396 -0.1126
 5346W        W20963  16.707  13.326   2.658 -0.0224  0.0204  0.0419
 5347W        W20964   8.418  12.604  10.729 -0.0266  0.1762  0.0504
 5348W        W20965   9.682   1.672  10.521 -0.1553  0.0606 -0.0792
 5349W        W20966  17.916  13.629  13.877 -0.1629  0.1052 -0.2530
 5350W        W20967  10.425   4.258   4.532 -0.3213  0.1697 -0.0367
 5351W        W20968  12.879  14.120   3.693 -0.4380  0.4934 -0.2426
 5352W        W20969   6.158  15.354   2.039  0.1696 -0.0336  0.1627
 5353W        W20970  12.200  13.119   3.747  0.2251  0.1592  0.1213
 5354W        W20971  12.801   9.089   1.836 -0.1937 -0.2140 -0.2351
 5355W        W20972   0.953   4.904   3.415 -0.1803 -0.3179 -0.0947
 5356W        W20973  15.343   9.594  14.535 -0.2454  0.0156 -0.0033
 5357W        W20974   3.344  15.153   3.087  0.0319  0.1460  0.1801
 5358W        W20975   7.933   6.688   1.118 -0.1763  0.2698 -0.2724
 5359W        W20976   5.703  11.933  10.169  0.0790  0.0512 -0.1084
 5360W        W20977   9.168  18.596  11.340  0.1107 -0.0006 -0.0990
 5361W        W20978  18.395  15.789   1.391  0.1119  0.1815  0.0649
 5362W        W20979   0.305   3.274  15.656  0.1476  0.1497 -0.0041
 5363W        W20980  15.056   6.671   2.492  0.0602 -0.2202 -0.3946
 5364W        W20981  15.322  14.329  15.596  0.1938 -0.2278 -0.3275
 5365W        W20982   2.966  15.612  10.573 -0.0525  0.1558  0.0183
 5366W        W20983  11.852  12.597   4.865 -0.2697 -0.0333  0.2637
 5367W        W20984   7.863  17.905  10.808 -0.0551 -0.0762  0.0991
 5368W        W20985  17.722   2.888  12.885 -0.2246 -0.3087 -0.0854
 5369W        W20986  11.503  15.779   4.591  0.2637 -0.0206  0.1615
 5370W        W20987   7.242   7.255   0.660  0.1208  0.0132 -0.0347
 5371W        W20988  17.692   6.527   3.248  0.0151  0.0700 -0.0967
 5372W        W20989  10.868  17.274  13.016  0.0041  0.0008  0.3639
 5373W        W20990  11.881   3.575  12.432 -0.1834  0.1993 -0.1149
 5374W        W20991  17.276   9.012   1.037 -0.0024 -0.1542 -0.2409
 5375W        W20992  11.840  10.841  10.653 -0.1605 -0.2528 -0.0546
 5376W        W20993   8.227   1.092   0.799 -0.1455  0.1651 -0.4279
 5377W        W20994   0.298  16.579  15.565  0.0494  0.5421 -0.1100
 5378W        W20995  15.696  17.805  14.767  0.1929 -0.0760  0.1444
 5379W        W20996   0.797  15.123  11.580 -0.0124 -0.0588  0.0827
 5380W        W20997  16.235  12.592  12.029 -0.1858 -0.0652 -0.0176
 5381W        W20998   8.852   1.034   5.617  0.0026 -0.0532  0.3175
 5382W        W20999  17.541  12.215  12.539  0.2282 -0.1206  0.0569
 5383W        W21000  13.882   8.325  11.479  0.0977 -0.1213  0.3051
 5384W        W21001  11.128   1.285   2.223  0.4235 -0.0158 -0.2775
 5385W        W21002   9.210  14.202   0.540 -0.0932  0.2905 -0.2269
 5386W        W21003   7.218  10.618   1.311 -0.1269 -0.0908  0.1270
 5387W        W21004  10.432  12.747  15.589  0.4388 -0.3298  0.1543
 5388W        W21005   4.092   7.821   1.068  0.1524 -0.1323 -0.1850
 5389W        W21006  13.138   1.661   4.199 -0.0559  0.1999  0.0822
 5390W        W21007   1.794   6.720   4.847 -0.4514  0.1155 -0.2530
 5391W        W21008  16.899  15.003  11.139  0.0581 -0.1339  0.0644
 5392W        W21009  13.886  15.113   4.896 -0.1693  0.1298 -0.0722
 5393W        W21010   8.336  14.730  13.309 -0.1145  0.2276  0.1648
 5394W        W21011   6.356   0.011  13.445  0.1800  0.4283 -0.1235
 5395W        W21012  10.608   2.374   2.639  0.1133 -0.0379 -0.0024
 5396W        W21013   3.406  17.581   4.332  0.1067 -0.2733 -0.0902
 5397W        W21014   9.506   6.461  11.030  0.0516 -0.1629  0.0952
 5398W        W21015   5.602  15.848   0.332  0.1704 -0.1390 -0.0390
 5399W        W21016  10.213  16.141   1.850 -0.1961 -0.2241 -0.0673
 5400W        W21017  12.231  17.241  12.328 -0.1748 -0.1223 -0.0932
 5401W        W21018   2.851  15.711  15.162 -0.0504 -0.0465  0.0536
 5402W        W21019   6.140   2.252   2.300  0.0613  0.0280  0.0833
 5403W        W21020  14.387   6.506   3.833 -0.0700  0.0819  0.1682
 5404W        W21021  15.278   9.810   1.528 -0.1046  0.1793 -0.0003
 5405W        W21022   0.789   0.489   0.876  0.4843  0.1318  0.1765
 5406W        W21023   0.406  14.791  14.926  0.1343 -0.1003  0.1719
 5407W        W21024  11.298  14.826  11.851 -0.0716  0.1583 -0.1483
 5408W        W21025   2.797   8.329   3.805 -0.1615  0.0480 -0.0322
 5409W        W21026  16.040  12.582   4.291  0.1061 -0.0041 -0.2401
 5410W        W21027   1.118  13.904  12.811  0.0613  0.0263  0.0212
 5411W        W21028  15.422   9.893   9.841  0.1067 -0.0273  0.1244
 5412W        W21029  12.250  11.237  10.665 -0.0251  0.1075 -0.1692
 5413W        W21030   5.154   6.882   0.793  0.1022 -0.0630 -0.3913
 5414W        W21031  10.042  16.150  10.954 -0.0228 -0.2016  0.2189
 5415W        W21032   4.374  15.903   4.508  0.1033  0.0146  0.2761
 5416W        W21033   6.523  16.068   4.713 -0.0585  0.0084 -0.2386
 5417W        W21034  18.086   0.976  14.163  0.0805  0.2506  0.1810
 5418W        W21035  15.729   4.454   2.360  0.2476  0.3630 -0.0144
 5419W        W21036  10.055   8.527  12.627  0.1883  0.0351 -0.0938
 5420W        W21037  10.173  12.437   3.733 -0.1034 -0.1342  0.1431
 5421W        W21038   9.281  17.109   2.763 -0.0738  0.3081  0.0717
 5422W        W21039   4.450  17.820  11.981  0.0539  0.0300  0.0154
 5423W        W21040   7.207   3.785   3.398 -0.0428  0.0268  0.0181
 5424W        W21041   3.973  18.640  11.739 -0.0063 -0.1597  0.0057
 5425W        W21042  14.360   0.853   1.628  0.2375  0.3921 -0.1585
 5426W        W21043  18.206   7.211   4.559  0.0701  0.1661  0.2578
 5427W        W21044  12.815  13.369  14.074  0.1572  0.0183 -0.0892
 5428W        W21045   8.593   4.870   5.846  0.1377 -0.3120  0.2895
 5429W        W21046  10.440  16.903   1.264  0.0429 -0.1467  0.0884
 5430W        W21047   0.528   9.593   3.130  0.1243  0.2352 -0.3351
 5431W        W21048   7.109   3.138   4.180  0.0467  0.1241 -0.1747
 5432W        W21049  14.085  16.985   0.301  0.1070 -0.1761 -0.2644
 5433W        W21050   2.208  17.199  12.456 -0.2143  0.1132  0.3766
 5434W        W21051  16.445   8.950  14.243 -0.1863  0.0173  0.0893
 5435W        W21052  14.304  10.609   9.029 -0.0326  0.2763  0.0745
 5436W        W21053  16.267   8.025   1.234  0.2748 -0.3088  0.2668
 5437W        W21054   0.743  18.233   1.499  0.0642  0.0820  0.0415
 5438W        W21055   1.500   0.945  12.188 -0.1521 -0.1648 -0.2205
 5439W        W21056  17.702   0.303   0.205  0.0720  0.0017 -0.1979
 5440W        W21057   7.508   5.058   2.032  0.0725 -0.3531 -0.0180
 5441W        W21058   6.942  12.882   2.847  0.0670  0.1683  0.0775
 5442W        W21059  10.105  13.148  14.063  0.0187  0.2250 -0.1815
 5443W        W21060  10.510  18.271   0.534  0.1892  0.1207 -0.1422
 5444W        W21061   9.570   4.697   3.512 -0.1406  0.0931 -0.1699
 5445W        W21062   6.476   9.465   2.729  0.1502  0.5463 -0.2013
 5446W        W21063  16.388  17.188   5.390 -0.3827  0.1354 -0.1595
 5447W        W21064  11.898   8.605  12.697 -0.0014 -0.1161  0.0821
 5448W        W21065  10.160   5.475   0.419 -0.0485 -0.1238 -0.1537
 5449W        W21066  11.938   2.335   4.539  0.1276  0.0051  0.0017
 5450W        W21067   4.033   4.507   5.970 -0.2233 -0.0358  0.0175
 5451W        W21068   5.650   1.759  14.413  0.0249  0.2168  0.0010
 5452W        W21069   1.958   9.967   1.979 -0.2570  0.4519  0.0349
 5453W        W21070  18.281   4.947   0.264  0.0117  0.3145  0.2465
 5454W        W21071   7.623  10.423   5.576 -0.0619 -0.1469  0.4350
 5455W        W21072   8.487  12.064  13.534  0.0425  0.0019  0.0503
 5456W        W21073  15.820  10.230  14.174 -0.1632  0.1288 -0.1242
 5457W        W21074  10.612   3.646  11.776 -0.1335 -0.5267 -0.3414
 5458W        W21075   2.023   2.932  12.688 -0.1821  0.4085  0.0630
 5459W        W21076  11.198  10.966  11.220 -0.0566 -0.1208 -0.0103
 5460W        W21077  18.216   6.009   1.895  0.0012  0.2145  0.1097
 5461W        W21078  13.143   3.250  13.786  0.1068  0.0624 -0.1139
 5462W        W21079   3.083   2.254  15.407  0.0366 -0.2640 -0.0197
 5463W        W21080   3.029  16.694   0.318  0.1573  0.2701 -0.2837
 5464W        W21081   2.229   4.589   2.008  0.1258 -0.0433  0.0717
 5465W        W21082  16.642  10.548  15.542  0.1513  0.0209  0.1837
 5466W        W21083   2.456  13.924  11.293 -0.2215  0.3460  0.1428
 5467W        W21084   2.412   0.833   3.935 -0.2660 -0.1400  0.2900
 5468W        W21085   5.545   7.623   4.255 -0.2204 -0.0590 -0.0465
 5469W        W21086   9.000  18.379   1.834  0.3585 -0.0110  0.3014
 5470W        W21087   4.517   0.229   2.376  0.0270  0.4472 -0.1134
 5471W        W21088   6.361   6.544   4.242 -0.0925 -0.1175  0.0767
 5472W        W21089  14.094   3.625   5.593 -0.1061 -0.1011  0.2044
 5473W        W21090  12.768  18.557   0.626  0.0179  0.1029 -0.0110
 5474W        W21091  15.036  14.018  13.723 -0.1282 -0.0546  0.2148
 5475W        W21092   7.089  11.066   2.432  0.2368 -0.0555 -0.0142
 5476W        W21093  18.202  17.245  15.379  0.1174 -0.2009  0.0909
 5477W        W21094  10.863   5.456   1.693  0.2532  0.2538  0.3866
 5478W        W21095   3.717   8.163  10.419  0.2164  0.1252 -0.1163
 5479W        W21096  17.158  13.247   3.016  0.0356 -0.0835 -0.1245
 5480W        W21097   9.974   7.282   1.800 -0.2890 -0.3000 -0.0487
 5481W        W21098  16.914   4.494   2.148 -0.0652 -0.2533  0.1238
 5482W        W21099  11.788   7.181  10.825  0.1985 -0.0296  0.2147
 5483W        W21100  15.349  17.775   1.244 -0.0124 -0.1307 -0.0101
 5484W        W21101  13.262   6.873   3.061  0.0079  0.0698 -0.0443
 5485W        W21102  12.526  14.964  14.054  0.1694  0.3053 -0.0257
 5486W        W21103  16.727   6.879   3.334 -0.1303 -0.1185 -0.2074
 5487W        W21104  12.807   6.187   0.489 -0.1308  0.5064 -0.0002
 5488W        W21105  14.530   5.887   2.755  0.1549 -0.0163 -0.1672
 5489W        W21106   0.052  14.500   4.077 -0.0551 -0.1357 -0.1889
 5490W        W21107   7.169   0.003  14.076 -0.1431  0.2745  0.0990
 5491W        W21108   0.721   8.160  15.576  0.1760 -0.1570  0.2574
 5492W        W21109   6.992   7.829  15.231  0.3957 -0.0458 -0.2033
 5493W        W21110   0.640   1.977   5.054 -0.1291 -0.1953 -0.4298
 5494W        W21111  12.632  16.034  10.384  0.1621 -0.1760 -0.3759
 5495W        W21112   7.768  18.126   5.757 -0.0894  0.1471  0.4148
 5496W        W21113  17.737   6.544   5.215  0.0991 -0.1740  0.1289
 5497W        W21114  15.607   3.459   0.601 -0.2403 -0.1161 -0.1807
 5498W        W21115   5.440  18.453   5.932  0.1058  0.2361  0.1216
 5499W        W21116   3.950  12.182  15.773 -0.0804  0.2896 -0.1075
 5500W        W21117  14.805   6.767  11.598 -0.4118 -0.0365 -0.1905
 5501W        W21118   4.439   4.433  12.312 -0.2034 -0.1008 -0.1476
 5502W        W21119  14.139   4.229   0.144  0.1444  0.2284  0.0801
 5503W        W21120  13.201   4.080   6.464  0.1399  0.0102 -0.1209
 5504W        W21121   8.280   5.732   4.001  0.1601 -0.3015 -0.2344
 5505W        W21122   3.836  16.963  11.649 -0.0409  0.0813  0.2042
 5506W        W21123   4.354  15.084  14.804  0.0652  0.0037  0.2082
 5507W        W21124   1.326  13.097  11.289  0.1295  0.1119 -0.2717
 5508W        W21125  11.505  11.798   2.975 -0.3481  0.1391  0.2392
 5509W        W21126  10.774   2.670   5.653  0.0156 -0.1166 -0.1505
 5510W        W21127   0.048  17.602   4.585 -0.0665  0.1700 -0.0493
 5511W        W21128  16.617  12.545  10.948 -0.2083 -0.1002 -0.0425
 5512W        W21129  14.639  15.876  13.311 -0.0006 -0.2473  0.0263
 5513W        W21130  12.160   3.616  11.461 -0.0852 -0.0952  0.0916
 5514W        W21131   9.358   6.776   3.634 -0.2008  0.0317  0.1209
 5515W        W21132  10.638  17.906   1.400  0.0438 -0.0343  0.2068
 5516W        W21133  13.715   5.453   4.643  0.2274 -0.0203 -0.2489
 5517W        W21134   4.108  17.967  12.390 -0.5696 -0.1300  0.0051
 5518W        W21135  11.628  12.568   0.833 -0.2363 -0.0184  0.0414
 5519W        W21136   4.932   6.134  11.015  0.2109  0.0077 -0.4296
 5520W        W21137   9.586   5.431   4.564  0.1186  0.0427  0.1196
 5521W        W21138   8.703   7.066  12.627 -0.2370 -0.5414 -0.1663
 5522W        W21139   0.573   4.848   5.567 -0.0339 -0.4073  0.1028
 5523W        W21140  17.351   4.871  15.769  0.0050 -0.0070  0.2809
 5524W        W21141  11.418  10.798  10.343  0.1676  0.3685 -0.1117
 5525W        W21142   9.196   2.790  15.114  0.0350 -0.3732 -0.1497
 5526W        W21143  10.673  14.878   4.834 -0.1364  0.1683  0.1660
 5527W        W21144  15.015  17.741  14.945  0.0355 -0.4781  0.3294
 5528W        W21145  11.556  16.764  15.627  0.3564  0.0263 -0.1494
 5529W        W21146   9.359   4.328   4.328  0.0468  0.0471 -0.1020
 5530W        W21147  13.933  17.127   1.304 -0.4288  0.2890  0.0869
 5531W        W21148  10.184   5.752  11.438 -0.1879 -0.2388 -0.0254
 5532W        W21149   5.731  13.065   5.202 -0.0836  0.1665  0.3326
 5533W        W21150   9.047   4.602   5.752 -0.2238  0.0409  0.3449
 5534W        W21151  15.477  10.941   4.618  0.0011 -0.1362  0.1044
 5535W        W21152  17.691   0.399   2.616  0.0418  0.1987  0.2833
 5536W        W21153  13.610  13.850   2.622 -0.1333  0.3537  0.2566
 5537W        W21154  12.708  12.808   2.231 -0.0019 -0.4243  0.0669
 5538W        W21155   0.377   6.808   5.456 -0.2838  0.0711  0.3494
 5539W        W21156  16.262   2.147  13.159  0.1187  0.1746  0.0428
 5540W        W21157  12.057   8.867   2.687 -0.0671 -0.2406  0.3245
 5541W        W21158  13.361   2.891   5.775 -0.1170  0.3243  0.2123
 5542W        W21159   0.929  14.292  10.703  0.0763  0.0140 -0.0847
 5543W        W21160   3.761   7.253  15.210  0.0474 -0.1662 -0.0712
 5544W        W21161   2.879  17.937   5.455 -0.0482  0.0776 -0.1343
 5545W        W21162   6.499   5.367   4.934 -0.0344  0.1316 -0.0437
 5546W        W21163  13.063  13.836  12.617  0.0264  0.0667  0.1329
 5547W        W21164  14.820   9.473  11.700 -0.0283  0.1281  0.0261
 5548W        W21165   0.320  12.583   0.699  0.0401 -0.1048 -0.0279
 5549W        W21166  11.650   0.219   3.769 -0.0771 -0.0779  0.0941
 5550W        W21167  15.197   0.906  12.104 -0.0539  0.2118 -0.0177
 5551W        W21168   5.706   7.935   3.902 -0.2505  0.0227  0.0713
 5552W        W21169  15.740   4.933   3.556  0.2022 -0.1878  0.0495
 5553W        W21170  15.569   9.147  15.573 -0.2564 -0.1257  0.3856
 5554W        W21171  15.378   0.138   0.706  0.1543  0.0077  0.0825
 5555W        W21172  16.442   6.588  10.626 -0.1505 -0.0611  0.1302
 5556W        W21173  13.955  10.097  12.280 -0.0448  0.0292 -0.1301
 5557W        W21174  14.864  11.087  10.671  0.2058  0.3882  0.0906
 5558W        W21175  13.404  12.935   3.100  0.0708 -0.1812  0.0585
 5559W        W21176   8.577   8.474  15.365 -0.0431  0.2501 -0.1558
 5560W        W21177   6.520   4.667   2.322  0.2683  0.0429  0.4837
 5561W        W21178   2.259  14.523   5.591  0.1770 -0.0186 -0.0731
 5562W        W21179   6.864   5.324   1.593 -0.0234  0.0399 -0.1224
 5563W        W21180   2.903   7.624   4.937 -0.2474  0.0660 -0.2888
 5564W        W21181   0.348   8.185  14.532  0.1301 -0.0940  0.1663
 5565W        W21182  11.223   1.743  13.832 -0.0279  0.1658  0.0834
 5566W        W21183  13.021   5.781   0.610 -0.1711  0.0191  0.1952
 5567W        W21184   6.254   3.506   1.079 -0.1182 -0.0699  0.0181
 5568W        W21185   4.939  15.486  13.235  0.2405 -0.3379  0.0394
 5569W        W21186   8.620  17.200  12.970  0.0228 -0.0035  0.0587
 5570W        W21187  14.702  16.664   1.701 -0.0606 -0.1749  0.2232
 5571W        W21188   9.939  15.184  15.770  0.1065 -0.3102  0.2322
 5572W        W21189  14.821  15.485  11.255  0.2382 -0.1616  0.1427
 5573W        W21190   3.230   0.991   0.027 -0.3468 -0.2915  0.3414
 5574W        W21191  16.669   1.858  13.929 -0.1416 -0.1696 -0.0390
 5575W        W21192   5.005   6.977  13.912 -0.0999  0.1911 -0.0125
 5576W        W21193  15.096  10.489  10.475 -0.0926  0.0291  0.0682
 5577W        W21194   3.929  15.460  11.343 -0.1413 -0.1202  0.0120
 5578W        W21195  17.672   3.251  12.386  0.0304 -0.1142  0.0368
 5579W        W21196  11.186   9.795   2.423 -0.1085 -0.0874 -0.1660
 5580W        W21197   2.590  17.804   4.638  0.0439  0.1360 -0.3947
 5581W        W21198  14.123   6.470  12.993  0.0116 -0.1508  0.2169
 5582W        W21199   0.229   4.245  15.499 -0.3262 -0.0697 -0.0114
 5583W        W21200   8.400  16.447  12.800 -0.1579 -0.1272  0.2458
 5584W        W21201  13.034  14.322   5.416  0.1374 -0.1201 -0.1626
 5585W        W21202   7.099   3.732   1.539  0.1771 -0.3365 -0.1910
 5586W        W21203  11.693   8.991  12.966 -0.2104  0.0735  0.0779
 5587W        W21204   0.203   2.640   3.200 -0.0593  0.2426 -0.0088
 5588W        W21205  13.244   5.587   2.345 -0.2295  0.0436 -0.1399
 5589W        W21206  15.252   8.725   1.361 -0.0239  0.2981 -0.0944
 5590W        W21207   3.207  15.170  10.248  0.1120 -0.2048 -0.1183
 5591W        W21208   4.264   8.012  12.820 -0.2262 -0.3297  0.0916
 5592W        W21209  16.132   4.508  13.277 -0.3028 -0.2227 -0.1790
 5593W        W21210   4.971  17.928   3.934 -0.1959 -0.3424  0.2771
 5594W        W21211   2.092   8.764  13.056  0.1053  0.1950 -0.3214
 5595W        W21212   6.786   0.527  14.330  0.1020 -0.0061  0.1381
 5596W        W21213   1.921   0.053  12.340 -0.4086  0.1350 -0.1358
 5597W        W21214   7.852   0.069  13.888 -0.2048 -0.0732  0.3784
 5598W        W21215  16.898   2.146  13.048 -0.2830  0.1175 -0.0385
 5599W        W21216   3.568  12.926  11.450 -0.2145 -0.3301  0.2365
 5600W        W21217   7.660   4.458  11.031 -0.5950  0.0507  0.0725
 5601W        W21218  10.742  13.810  13.247 -0.0345 -0.1587 -0.2238
 5602W        W21219   1.933   1.791  12.355 -0.0957 -0.3334  0.0445
 5603W        W21220  16.950   8.050   0.471  0.0258 -0.0483 -0.2107
 5604W        W21221   6.209   6.259  10.787  0.3287  0.2205  0.1744
 5605W        W21222  17.184   5.443   2.684  0.1547 -0.0994  0.0627
 5606W        W21223   8.295  11.317   2.417  0.0377 -0.2535  0.2280
 5607W        W21224   9.199  11.214   1.988 -0.4454 -0.0835  0.0051
 5608W        W21225   8.442  15.550  13.822  0.1228  0.2211  0.0070
 5609W        W21226  11.769   3.966  12.669 -0.2561 -0.1039  0.4525
 5610W        W21227   4.276   5.115  10.695  0.1365  0.3308  0.0021
 5611W        W21228   6.706   7.605  12.821 -0.1255  0.1717  0.1130
 5612W        W21229   1.175   7.148   2.876  0.0960  0.1545 -0.1357
 5613W        W21230  17.428   8.726   5.117 -0.2157  0.1435 -0.0164
 5614W        W21231  18.371   6.272   0.378  0.1628  0.4069 -0.4154
 5615W        W21232   0.663  18.539   3.640  0.2740  0.2335  0.1371
 5616W        W21233  11.868  10.507  11.083  0.0842 -0.0818  0.1749
 5617W        W21234  11.431  15.641  11.852 -0.2163  0.1115  0.1003
 5618W        W21235  11.243   2.953  14.830 -0.1392 -0.1348 -0.0538
 5619W        W21236   7.723   5.047   3.547  0.2745  0.0240 -0.0185
 5620W        W21237   5.249  10.022   0.722  0.1401  0.3465 -0.2236
 5621W        W21238   8.370   7.870   4.597 -0.0597 -0.0516  0.1876
 5622W        W21239   3.356  13.607  11.450  0.0158 -0.0692  0.1000
 5623W        W21240   4.474  14.073   3.214 -0.1693  0.0478  0.0975
 5624W        W21241   5.843   1.807   3.976  0.1568 -0.0340 -0.0436
 5625W        W21242  13.523  15.418   3.218 -0.1604 -0.0627 -0.0771
 5626W        W21243  11.456  11.879  13.711  0.0435  0.0958  0.0904
 5627W        W21244  11.776   4.447  11.753  0.0797 -0.0824  0.1618
 5628W        W21245  10.416  18.378  13.672  0.1321  0.2035 -0.3011
 5629W        W21246  16.004   9.830  12.012 -0.1661 -0.0532  0.0634
 5630W        W21247   5.361  16.687  11.329  0.1482 -0.0677 -0.2111
 5631W        W21248  10.183   9.418  15.293 -0.2470  0.0325  0.1161
 5632W        W21249   3.588  15.702   5.672  0.1004  0.1011  0.0584
 5633W        W21250  17.206   4.352   1.756 -0.0729  0.1085  0.1703
 5634W        W21251  14.492   1.521   3.923 -0.0357  0.2940  0.0265
 5635W        W21252   3.021   9.273  15.657 -0.2123 -0.1165  0.4072
 5636W        W21253  11.361  16.044  15.145  0.0401  0.1163  0.1189
 5637W        W21254  18.045  16.285  15.766 -0.1450 -0.2411 -0.1628
 5638W        W21255  13.239  15.233   5.210 -0.0260 -0.1071 -0.0902
 5639W        W21256  14.429   6.522   2.049  0.2647  0.1104  0.1563
 5640W        W21257  17.054   0.516   0.136 -0.1353  0.1228 -0.4393
 5641W        W21258   2.622  10.588  14.559  0.0350  0.0336 -0.1723
 5642W        W21259  16.636   6.125   5.057  0.2536 -0.0687  0.2549
 5643W        W21260  16.873  17.307  13.411 -0.0740 -0.1498  0.1567
 5644W        W21261   7.770  10.069  10.926 -0.2837 -0.2418  0.0829
 5645W        W21262   9.108   7.839  12.309 -0.0977  0.4905 -0.1302
 5646W        W21263  14.396   2.492   2.300 -0.1055  0.0154  0.1541
 5647W        W21264  14.548   5.290   3.315  0.0156 -0.1928 -0.1856
 5648W        W21265   1.830  16.708   4.964  0.2011  0.3265  0.0607
 5649W        W21266   4.855  11.968   2.891  0.1992 -0.2064 -0.0427
 5650W        W21267   4.683   9.475   1.379  0.0457 -0.3885  0.0655
 5651W        W21268   4.857  11.186  13.422  0.0439  0.1385 -0.1239
 5652W        W21269  13.355   4.575   0.656 -0.0142 -0.2450 -0.1409
 5653W        W21270   8.440   7.644  13.705 -0.1946  0.0350 -0.0166
 5654W        W21271  10.149  16.918  15.615  0.0496 -0.0030  0.2809
 5655W        W21272  14.907   0.210   2.951  0.2799 -0.4141  0.0664
 5656W        W21273   1.062   2.917  12.840  0.1003  0.0866  0.0529
 5657W        W21274   2.777  12.115  14.547  0.3294  0.1080 -0.0218
 5658W        W21275   3.677   5.479  14.030  0.0153 -0.0979 -0.1327
 5659W        W21276   2.801   2.544  13.189 -0.2098  0.1270 -0.2198
 5660W        W21277   1.197  16.343  14.464 -0.2707  0.1634 -0.1998
 5661W        W21278  13.399   5.295  13.662  0.1260 -0.1336 -0.2134
 5662W        W21279  10.956  15.033  10.371 -0.0277  0.0302 -0.1381
 5663W        W21280  15.825   1.066   0.500  0.0206 -0.2492  0.0455
 5664W        W21281  17.148  13.339  14.087  0.0753 -0.0262 -0.0727
 5665W        W21282   0.814   6.345  15.631 -0.1131 -0.2704  0.3587
 5666W        W21283  11.737  13.863   4.416 -0.3328 -0.0037 -0.2508
 5667W        W21284  17.244  16.188  11.657  0.0235  0.1622  0.0548
 5668W        W21285   1.255   8.865  15.358 -0.0819  0.0036  0.2133
 5669W        W21286  15.870  16.407  12.333 -0.0387  0.2334  0.0142
 5670W        W21287   9.739  12.433  11.353  0.0617  0.4876  0.0034
 5671W        W21288   4.986   4.217   3.512  0.1655 -0.1084 -0.1345
 5672W        W21289   7.450   5.936   1.693  0.3924 -0.3408 -0.0929
 5673W        W21290  11.261   0.587  12.758  0.0637  0.1184  0.1939
 5674W        W21291   5.740  11.326   4.817  0.0177 -0.3725 -0.3043
 5675W        W21292  13.462   3.663  11.475 -0.0603 -0.1607 -0.0918
 5676W        W21293   0.389   9.742   1.723 -0.1417  0.2801  0.0179
 5677W        W21294  12.683   5.099   5.952 -0.2061 -0.1174  0.0693
 5678W        W21295  13.189  13.611   9.992  0.0926  0.0353  0.2494
 5679W        W21296  16.197   4.180  13.734 -0.2895  0.0874 -0.1080
 5680W        W21297   1.134  10.418  11.783 -0.1958 -0.0817  0.3529
 5681W        W21298   0.509   7.328  11.111  0.0299  0.1845 -0.1132
 5682W        W21299  16.525   0.638  11.630 -0.0527 -0.0839 -0.2467
 5683W        W21300   8.820   5.159  13.932 -0.1012  0.3774 -0.4568
 5684W        W21301   1.949  15.467  10.854  0.3111  0.0079 -0.3614
 5685W        W21302   0.660  14.739   0.438  0.1751 -0.1085 -0.0916
 5686W        W21303   7.308  13.666  14.128  0.3328 -0.4463  0.0435
 5687W        W21304  18.579  15.677   4.194  0.0273 -0.4168 -0.0225
 5688W        W21305   4.159  11.677  14.861  0.1296  0.0935  0.0955
 5689W        W21306   4.862   3.446   5.008 -0.1761 -0.0822  0.1058
 5690W        W21307   2.952   2.766  13.953  0.1095 -0.2131 -0.0637
 5691W        W21308   2.671   0.814  14.935  0.2625  0.2395  0.1488
 5692W        W21309   0.042  13.771   1.448 -0.2354  0.0494  0.2110
 5693W        W21310  15.486   4.040   2.186  0.3394 -0.0341 -0.1041
 5694W        W21311  14.553   9.655  15.168 -0.3227  0.1664 -0.0530
 5695W        W21312  16.402   4.764  14.328 -0.1388  0.1418  0.0074
 5696W        W21313  16.278   8.725   3.347  0.1947 -0.1502  0.4788
 5697W        W21314  18.450   7.210  12.654  0.1734  0.0698  0.0231
 5698W        W21315  11.123  18.526   4.971 -0.1269 -0.0214  0.0955
 5699W        W21316   9.935  11.597  12.426  0.1663 -0.5575  0.2211
 5700W        W21317   2.240  14.450  15.554  0.1791 -0.0684  0.0706
 5701W        W21318   5.740  18.348   1.283  0.0031  0.0986  0.3185
 5702W        W21319   2.965  12.681  12.427  0.3045  0.3166 -0.2455
 5703W        W21320  14.373   5.627  12.091 -0.0882 -0.0615  0.1478
 5704W        W21321   5.472   2.862   3.790  0.0114  0.1407 -0.0094
 5705W        W21322   0.042   1.022   0.447  0.2913  0.1991 -0.2277
 5706W        W21323   1.157  18.537   5.455 -0.2185  0.2139  0.0222
 5707W        W21324  15.148   9.339   2.165  0.1620 -0.1075 -0.2225
 5708W        W21325   1.101  15.516   3.820 -0.1318  0.1837  0.1641
 5709W        W21326   6.912   9.487  15.450  0.2702 -0.0149 -0.1643
 5710W        W21327   2.205  17.427  12.048  0.3845 -0.0092 -0.1046
 5711W        W21328  17.020  10.308   0.716 -0.2651 -0.0335  0.1706
 5712W        W21329  16.943  18.293  14.964 -0.2051 -0.0078  0.1231
 5713W        W21330   4.490   9.425  12.774 -0.0678  0.1606 -0.0164
 5714W        W21331  12.412  12.221   2.484 -0.0137 -0.1225 -0.0491
 5715W        W21332   9.847  13.523  14.211 -0.2713  0.1042  0.1925
 5716W        W21333  12.134   7.538   4.590  0.1459  0.0252 -0.0118
 5717W        W21334   3.631   0.309  14.041 -0.2846 -0.0623 -0.2813
 5718W        W21335   1.259   4.071   4.364  0.0002  0.2441  0.0499
 5719W        W21336  16.257  15.729  12.117 -0.1715  0.1348  0.0621
 5720W        W21337  13.076  17.768   4.756  0.1808  0.5345  0.1089
 5721W        W21338  17.710  15.819  13.143  0.0393 -0.0312 -0.1989
 5722W        W21339   8.067   6.695  12.349 -0.1899  0.2124  0.2374
 5723W        W21340   2.019  12.229  15.594  0.3169  0.0126 -0.0045
 5724W        W21341  12.442   7.800   2.560  0.0039 -0.2171  0.0524
 5725W        W21342  17.156   6.494  11.728 -0.2249 -0.2153  0.1880
 5726W        W21343  17.627   4.060  13.581 -0.0891  0.2180  0.5316
 5727W        W21344  11.292   6.035  12.089 -0.0513 -0.0067  0.1239
 5728W        W21345   5.854   3.759   2.445 -0.3205  0.1060  0.2600
 5729W        W21346   0.950  10.267   5.981  0.2015  0.0151  0.0137
 5730W        W21347  14.019   7.227  13.115 -0.1268  0.0576 -0.0071
 5731W        W21348   9.094   4.622   3.367  0.2058 -0.0061  0.2418
 5732W        W21349   2.073   6.295   2.527  0.3781 -0.2910 -0.1490
 5733W        W21350  11.629  14.713  13.888  0.0730 -0.1654  0.1047
 5734W        W21351   2.934   2.589  15.799  0.1481  0.1193 -0.1981
 5735W        W21352   9.355   3.744   0.355 -0.1385  0.0940  0.0139
 5736W        W21353   3.065  14.082  15.696 -0.0333  0.1264 -0.0581
 5737W        W21354  12.636   5.368  12.964  0.0611  0.0235 -0.3611
 5738W        W21355  12.738  16.344  12.070 -0.4261  0.1509  0.2008
 5739W        W21356  12.401  14.548  12.977 -0.2099  0.1214 -0.0449
 5740W        W21357  11.217   7.564  15.586  0.1232  0.0379 -0.1402
 5741W        W21358  12.369  11.416   2.350 -0.1924  0.3496  0.0232
 5742W        W21359   6.593   1.182   0.389 -0.1158 -0.0099 -0.0866
 5743W        W21360   1.872  10.896   1.315 -0.1778  0.1242 -0.1647
 5744W        W21361   5.882   6.615  11.208  0.0730  0.0812 -0.0348
 5745W        W21362  13.384  15.572  11.407  0.0912  0.2178 -0.3073
 5746W        W21363  16.002  12.728  15.697  0.0413 -0.0144 -0.0438
 5747W        W21364   4.484   6.257   0.138 -0.2195  0.1503 -0.3249
 5748W        W21365  16.264  15.236  15.434 -0.1250  0.1667  0.1570
 5749W        W21366  13.488   0.079   4.801  0.2275 -0.1315  0.0559
 5750W        W21367  18.358   6.102  15.427 -0.0147  0.2572 -0.0312
 5751W        W21368  11.657   1.258  15.680  0.3736  0.2163 -0.0295
 5752W        W21369   8.780  17.879   3.803 -0.0012  0.2384  0.1470
 5753W        W21370  18.255   0.262   0.198  0.0202 -0.1279 -0.1684
 5754W        W21371   9.455   8.221   6.232  0.1174 -0.0132 -0.1663
 5755W        W21372   3.732   3.691  12.104  0.1878  0.1422  0.2477
 5756W        W21373  13.707  16.719   0.120 -0.0606  0.1495 -0.0309
 5757W        W21374  14.798   5.682  13.866  0.1897  0.3862 -0.0287
 5758W        W21375   2.530  10.539  11.227  0.1797  0.1480  0.0954
 5759W        W21376  17.768   9.130   2.304 -0.3114 -0.0025 -0.2846
 5760W        W21377   1.121  17.266  14.906 -0.0048 -0.2888 -0.0700
 5761W        W21378   6.831   4.823   6.163 -0.0576  0.0419  0.2191
 5762W        W21379  16.485   1.702   6.343  0.1128  0.0294 -0.1306
 5763W        W21380   8.265   9.487   3.188 -0.0686  0.1703 -0.0961
 5764W        W21381   0.185   8.558   2.672  0.0194 -0.3419 -0.0645
 5765W        W21382   0.983   7.436   3.612  0.0440 -0.0385  0.1423
 5766W        W21383   5.520   1.159   2.195 -0.1603  0.0043  0.1985
 5767W        W21384  14.364  18.519  14.704  0.2068 -0.1151  0.0703
 5768W        W21385  18.343  14.398  11.710 -0.3153  0.1429 -0.0694
 5769W        W21386  18.297  15.820   2.676  0.1727 -0.0031  0.0954
 5770W        W21387  16.490  14.896  14.243 -0.0284 -0.0209  0.0533
 5771W        W21388  18.123  13.400   5.018 -0.0029 -0.0440  0.1728
 5772W        W21389  11.727   0.517   0.878 -0.0989 -0.2630  0.0189
 5773W        W21390   8.526  13.844  12.643  0.3586 -0.1561 -0.4684
 5774W        W21391  15.234   5.432  13.888 -0.0729  0.1163 -0.0149
 5775W        W21392  15.410   2.928  13.061 -0.1203 -0.0846  0.0713
 5776W        W21393   0.154   3.909  12.030 -0.3450  0.1219  0.3237
 5777W        W21394  13.855  13.348   4.457  0.0478 -0.0862 -0.1908
 5778W        W21395   7.843  11.928  12.901 -0.0771 -0.0476  0.0368
 5779W        W21396   4.114  11.738  15.691  0.0474 -0.0662  0.3128
 5780W        W21397   2.693  18.149  12.321 -0.6563  0.1787  0.0905
 5781W        W21398   7.962  12.873  10.501  0.1797  0.2075 -0.1960
 5782W        W21399   8.378   2.317  14.006  0.1205  0.1589  0.1722
 5783W        W21400  11.689   9.590  13.608 -0.0671  0.3879 -0.0301
 5784W        W21401   8.525   5.883  13.637 -0.0457  0.3364 -0.0162
 5785W        W21402   7.937  17.907   3.235  0.0459 -0.1434  0.4935
 5786W        W21403   5.262   9.946   1.957 -0.0409 -0.4994 -0.0240
 5787W        W21404  16.078   6.227   2.499  0.4969  0.0249  0.0709
 5788W        W21405   8.851   1.082   0.974 -0.0774 -0.0701 -0.1320
 5789W        W21406  14.921  12.539   4.017  0.0680  0.1974 -0.1715
 5790W        W21407   7.606  14.095  13.919  0.0576 -0.3774  0.0110
 5791W        W21408  14.379   1.712   0.665  0.0467  0.0111 -0.4223
 5792W        W21409   9.289   6.164   1.363 -0.2674 -0.1092 -0.1736
 5793W        W21410  12.461   6.095   4.675 -0.1125 -0.0399 -0.1383
 5794W        W21411   2.653  17.006  12.720 -0.0781 -0.2900 -0.0693
 5795W        W21412  13.350  13.620   2.114 -0.2694 -0.1976  0.2154
 5796W        W21413  17.424   2.476   3.346 -0.2843 -0.0912 -0.0968
 5797W        W21414  13.990  14.400  10.448 -0.0815  0.4924 -0.0547
 5798W        W21415   4.532  18.514   1.962 -0.1174  0.0320 -0.2074
 5799W        W21416   0.169  15.971   5.020 -0.2407 -0.0496 -0.0460
 5800W        W21417  13.067   8.954  15.509 -0.2788 -0.1212 -0.2071
 5801W        W21418  17.776  16.778   1.926 -0.0593  0.2637 -0.0511
 5802W        W21419  10.903   4.919   2.837  0.0374  0.4269  0.0951
 5803W        W21420   8.295  11.304   5.541  0.4093  0.0703 -0.0358
 5804W        W21421   1.541  17.540  14.864  0.0863 -0.0382 -0.0109
 5805W        W21422  14.856   6.168  14.969  0.0114  0.0354 -0.0824
 5806W        W21423   1.178  12.910  14.811  0.3060 -0.0921 -0.3915
 5807W        W21424   8.141  15.360   5.474  0.1929  0.0326 -0.0055
 5808W        W21425   7.560  16.269   4.768 -0.1159  0.2637  0.0632
 5809W        W21426   1.988   0.539   3.871  0.0662  0.3204 -0.1586
 5810W        W21427   2.582   9.810  10.643  0.0617  0.1917 -0.0954
 5811W        W21428  13.710  12.796  14.493 -0.0948 -0.1243  0.0657
 5812W        W21429   4.624   6.557  15.127 -0.2079 -0.1063 -0.1480
 5813W        W21430   0.590  15.514  12.885 -0.2213 -0.1412 -0.0736
 5814W        W21431  16.319  18.054  12.639  0.0892  0.0348  0.2735
 5815W        W21432   3.048  15.539  14.759  0.0239  0.0305  0.5453
 5816W        W21433  16.121  12.632  14.038 -0.1686 -0.2387 -0.3549
 5817W        W21434  16.314   2.334   4.135 -0.2319  0.0283  0.1554
 5818W        W21435   1.433  13.207  14.446  0.1008  0.3649  0.3460
 5819W        W21436   0.729   3.135  13.591 -0.1177 -0.2316 -0.0266
 5820W        W21437   8.793  15.369   4.913 -0.0924 -0.0571 -0.2317
 5821W        W21438  13.614  18.271  14.365  0.1008  0.1207 -0.0927
 5822W        W21439   2.746  10.181   3.181 -0.1846  0.1711 -0.0642
 5823W        W21440  15.287   3.387   1.016  0.1574  0.2290  0.3175
 5824W        W21441   9.207   1.607   3.422 -0.1922  0.0365  0.1584
 5825W        W21442  14.089   0.317  14.772 -0.1147 -0.1313  0.2222
 5826W        W21443  12.343  17.879  12.277  0.0935 -0.0044 -0.3275
 5827W        W21444  17.556   3.626   2.121 -0.1617 -0.0272  0.1489
 5828W        W21445   9.065   8.907   1.969  0.2912 -0.1287  0.1387
 5829W        W21446   5.081   4.424   0.094 -0.0391 -0.1767  0.2372
 5830W        W21447   1.893   8.630   0.298 -0.0286 -0.3274  0.0316
 5831W        W21448   9.977  15.420  14.981  0.1309 -0.0607  0.1401
 5832W        W21449  15.143  17.422  14.082  0.1578  0.0115 -0.1971
 5833W        W21450  15.520   1.742   5.457 -0.0230  0.2422 -0.1768
 5834W        W21451   5.523   8.932   2.816 -0.0525 -0.0299 -0.2247
 5835W        W21452   6.426   5.378   5.459  0.0679  0.1323 -0.1791
 5836W        W21453   1.139  10.589  12.838  0.0907 -0.0025 -0.1682
 5837W        W21454   5.247   9.767  12.887  0.1650  0.0052 -0.1921
 5838W        W21455   8.024  10.807   1.739 -0.1734 -0.0453  0.2173
 5839W        W21456   7.083   1.424   1.781 -0.4162 -0.3065  0.1187
 5840W        W21457   6.676  15.976   3.669  0.1562  0.1706  0.3423
 5841W        W21458  15.783  13.194  15.540  0.1524  0.1934 -0.2915
 5842W        W21459   0.902  12.352   1.396  0.0394 -0.1841  0.0629
 5843W        W21460   5.575  10.624  11.985  0.0039 -0.0590  0.2521
 5844W        W21461   0.243   7.491  12.673  0.0466 -0.2179  0.3786
 5845W        W21462  14.206   1.820   2.868  0.1542 -0.0774 -0.0785
 5846W        W21463  13.980  14.245   1.869  0.3799 -0.3465  0.2840
 5847W        W21464   3.173  15.807  11.402 -0.0962  0.1915 -0.4069
 5848W        W21465  12.066  14.396   3.558 -0.2730 -0.0138  0.0308
 5849W        W21466  11.851  14.584  10.755  0.1405  0.2197  0.3062
 5850W        W21467   3.545   7.159  14.214 -0.3217 -0.1922  0.0907
 5851W        W21468   6.277   9.293   3.240  0.0569  0.0805  0.2352
 5852W        W21469  10.972  14.034   4.304  0.1520 -0.2405 -0.1351
 5853W        W21470   8.298   2.354   1.638  0.0367 -0.2191  0.0736
 5854W        W21471   9.609   9.774  14.161  0.1887  0.1192  0.3393
 5855W        W21472  16.137   6.784  15.398 -0.1035 -0.1264  0.2452
 5856W        W21473   2.721  14.671  15.612  0.0807 -0.0441  0.2696
 5857W        W21474   4.645   0.988   3.604 -0.2218 -0.0111 -0.0150
 5858W        W21475  16.565   1.137   2.381 -0.1273  0.1673  0.0032
 5859W        W21476   3.106  15.906   0.853  0.0115  0.0178 -0.0504
 5860W        W21477   7.287  14.080  11.644 -0.2169 -0.0597  0.0846
 5861W        W21478   6.423   1.441  13.375 -0.3187  0.2086 -0.0321
 5862W        W21479  11.767  17.138  12.542 -0.4444  0.2934  0.1004
 5863W        W21480   4.772  14.252  10.688 -0.2351  0.0130  0.0163
 5864W        W21481  14.895   1.672  11.374 -0.0449 -0.1316  0.1168
 5865W        W21482  16.955   0.874  11.573 -0.0024 -0.0745  0.1057
 5866W        W21483  16.747   0.724  14.182  0.0072 -0.0840 -0.1686
 5867W        W21484   6.924  15.267   1.367 -0.1585 -0.2332  0.3126
 5868W        W21485   9.237   1.265  11.156 -0.0829  0.1147 -0.2492
 5869W        W21486   9.615   2.582   2.375  0.0036  0.1192 -0.1986
 5870W        W21487   6.007   5.067   3.097 -0.3192  0.1560  0.2637
 5871W        W21488  17.058   2.508   5.243  0.0364  0.2185 -0.0662
 5872W        W21489   1.259   5.945   1.640  0.1139 -0.0046 -0.2253
 5873W        W21490  15.807  17.816   1.530  0.1313 -0.1406 -0.1231
 5874W        W21491  15.918  12.221  12.203  0.0124 -0.1607  0.2247
 5875W        W21492  12.659   1.509   2.241  0.0841  0.3026  0.1408
 5876W        W21493  12.235  16.013   2.586  0.1275 -0.2057 -0.1166
 5877W        W21494  18.637  12.821   3.990  0.0812 -0.0991 -0.1564
 5878W        W21495  13.283   9.907  11.356 -0.3271 -0.4970 -0.2775
 5879W        W21496  17.172   7.683  15.364  0.1894  0.0110  0.0988
 5880W        W21497   3.006  13.733   4.860 -0.0995  0.3889  0.3312
 5881W        W21498  16.304   2.475   2.775  0.0376 -0.3217 -0.1462
 5882W        W21499   1.052   5.515  14.574 -0.3582 -0.1174  0.0946
 5883W        W21500  11.371  11.008  15.253  0.1289  0.2056 -0.1132
 5884W        W21501  16.056   8.087   4.030  0.0583 -0.0519  0.3169
 5885W        W21502   0.690  12.343  11.307 -0.1375  0.1023  0.0070
 5886W        W21503  13.002  10.704  14.452  0.4327  0.0082  0.0744
 5887W        W21504  15.677   8.467  11.945  0.1921  0.0770  0.1159
 5888W        W21505  14.712   1.343   4.342  0.1923  0.1037 -0.2934
 5889W        W21506   6.869   3.029   2.127  0.2423  0.1602 -0.2180
 5890W        W21507  15.197   9.524   3.337  0.1220  0.2559 -0.1855
 5891W        W21508  10.832   6.497   4.783  0.1875 -0.1785  0.2497
 5892W        W21509   3.505  17.747   1.588 -0.1598 -0.1808 -0.0277
 5893W        W21510  13.078  12.109  15.775 -0.2557 -0.1199 -0.3029
 5894W        W21511   4.570   8.341  11.033  0.1155 -0.2962 -0.1613
 5895W        W21512   1.221  13.040  15.544 -0.1513 -0.1926 -0.1413
 5896W        W21513   8.752  11.919   0.703 -0.2357 -0.2985 -0.4029
 5897W        W21514   8.553  10.343   3.035  0.0196  0.0858  0.2021
 5898W        W21515   0.986  13.662   0.509 -0.0446 -0.2961  0.3221
 5899W        W21516  12.838  16.438   4.261 -0.1844 -0.4545 -0.0458
 5900W        W21517  17.998   3.630  13.136  0.0547  0.2021  0.0985
 5901W        W21518   2.704  17.056   9.563  0.3230 -0.1729  0.1751
 5902W        W21519  10.162   7.595  11.443 -0.2160 -0.0867  0.0061
 5903W        W21520  15.877  13.155   4.455 -0.2518  0.0795  0.0170
 5904W        W21521   6.876   1.251   5.216 -0.1090  0.2824 -0.1255
 5905W        W21522   2.853   6.323   2.846  0.0161  0.0843 -0.1786
 5906W        W21523  18.359  14.207  13.126  0.3234  0.0238 -0.0241
 5907W        W21524   0.380   2.270   5.434 -0.3622 -0.0107 -0.0958
 5908W        W21525   8.463  14.706  12.441  0.2948  0.0422 -0.2290
 5909W        W21526  18.054   0.665  15.703 -0.0824 -0.2715  0.2506
 5910W        W21527  16.932   1.175   2.755 -0.3858  0.1399 -0.1201
 5911W        W21528  18.613   2.331   1.735 -0.1161 -0.4699  0.1492
 5912W        W21529  11.722  18.444   4.076 -0.0486 -0.0343  0.2457
 5913W        W21530   6.491   3.513   4.782  0.0256 -0.0258 -0.2677
 5914W        W21531   9.980   2.519  12.778  0.0247 -0.2266  0.0890
 5915W        W21532  13.132   6.811  12.183 -0.2159  0.1569 -0.2483
 5916W        W21533   1.535   3.540  11.621 -0.3000  0.1742 -0.2822
 5917W        W21534   6.488   7.444   4.605 -0.0177  0.1743  0.0018
 5918W        W21535  16.776   3.767  13.467 -0.0725  0.0234  0.0261
 5919W        W21536   9.184   1.901   1.426 -0.4011 -0.2184 -0.0814
 5920W        W21537  12.778  12.514   1.229 -0.1163  0.2220 -0.2609
 5921W        W21538  14.683  12.498  15.096  0.2055 -0.1982  0.2004
 5922W        W21539  17.860   7.222  14.425 -0.1226  0.0367  0.0370
 5923W        W21540  15.952   1.398   3.983  0.0836  0.0822  0.1435
 5924W        W21541   1.315  11.749  15.229 -0.0271  0.0035  0.1849
 5925W        W21542  15.393   8.741   0.833 -0.4900  0.2616  0.0428
 5926W        W21543   3.295   4.347   0.625  0.0718 -0.0256 -0.0258
 5927W        W21544   9.818  14.437   3.782  0.1654  0.4164  0.0764
 5928W        W21545   2.402  13.213   3.661 -0.1197 -0.0020 -0.0579
 5929W        W21546   0.792   8.788   1.244 -0.1006  0.0760  0.2020
 5930W        W21547  17.242  11.326  15.136 -0.0838 -0.1441  0.0072
 5931W        W21548  11.035  14.675   3.177 -0.3042 -0.1356 -0.1378
 5932W        W21549   4.214  14.422  10.580 -0.0409 -0.0990 -0.0394
 5933W        W21550   3.331  11.052  10.859 -0.2974 -0.4152  0.3557
 5934W        W21551   2.845  13.596   9.944  0.0728  0.0582  0.2026
 5935W        W21552   3.827   1.914   4.560 -0.2304  0.0083  0.1846
 5936W        W21553   5.144   0.970   0.715  0.0728 -0.1085  0.1770
 5937W        W21554   2.714  13.716  15.591 -0.4105  0.0040  0.4369
 5938W        W21555   5.020   8.841  13.806 -0.2661 -0.2842 -0.0446
 5939W        W21556   6.897   4.156   0.530  0.1765  0.0418 -0.1641
 5940W        W21557  10.581   8.195  14.282 -0.1840  0.1001  0.0666
 5941W        W21558  14.643  15.136   1.977  0.4191 -0.3036  0.2058
 5942W        W21559  12.678   8.480  13.384  0.1624  0.4029  0.2184
 5943W        W21560  13.164  12.586  14.374  0.3241 -0.0702  0.1376
 5944W        W21561  14.034  15.378  10.991 -0.1821 -0.2154 -0.1565
 5945W        W21562   4.615   3.110   2.712  0.1648 -0.2284  0.2731
 5946W        W21563   1.556   6.984   2.051  0.2070  0.0924  0.1158
 5947W        W21564   9.383  14.854   3.328 -0.2365  0.0120  0.0370
 5948W        W21565   3.300  12.887   0.964  0.1144 -0.0990  0.0477
 5949W        W21566   0.282   7.483   0.638 -0.1796  0.1950 -0.0816
 5950W        W21567   2.194   5.663  11.614 -0.2527  0.3465  0.1106
 5951W        W21568  14.581   5.196  15.762 -0.0804  0.2698 -0.0656
 5952W        W21569  15.563  12.770   4.384 -0.1788 -0.0770  0.2871
 5953W        W21570  13.960   5.418  14.598 -0.3031  0.3170  0.0921
 5954W        W21571  10.683  14.985   0.602 -0.0076  0.0734 -0.0919
 5955W        W21572  16.885   1.740   6.619  0.1246  0.3313  0.3200
 5956W        W21573   7.359   0.488   5.144  0.2594 -0.0677  0.4083
 5957W        W21574   8.767  11.637  13.738  0.0266  0.2210  0.2107
 5958W        W21575   3.741  10.267  13.833 -0.1620 -0.1678 -0.0256
 5959W        W21576  13.089  13.813  11.620  0.3089 -0.1236 -0.3420
 5960W        W21577   9.863   1.906   2.845  0.2132 -0.1205 -0.0223
 5961W        W21578   3.091  13.776   5.364 -0.0889  0.0080 -0.2863
 5962W        W21579   9.765   8.974  11.537 -0.3684 -0.2507 -0.0833
 5963W        W21580  15.578  15.611   4.341  0.1374 -0.0322 -0.1655
 5964W        W21581  17.949   5.696  14.666  0.0981  0.1644 -0.0951
 5965W        W21582  15.282  10.792   4.070 -0.3159 -0.2065  0.2108
 5966W        W21583   7.954   7.035  15.753  0.2007 -0.1450  0.3885
 5967W        W21584   2.429   2.189   3.559 -0.1038 -0.2205 -0.1564
 5968W        W21585   8.696   2.582  13.130  0.0014 -0.0549 -0.1026
 5969W        W21586   2.977  11.518  14.833  0.1705  0.4233  0.0045
 5970W        W21587  10.056  10.391  13.398  0.1299  0.2078 -0.1433
 5971W        W21588   8.590   6.189  14.407 -0.3203 -0.4112  0.3212
 5972W        W21589  17.501   4.416  15.793 -0.3825  0.2033 -0.0020
 5973W        W21590   3.952  17.595   4.664  0.0311  0.2287 -0.1703
 5974W        W21591   7.204   6.931  13.973  0.0877  0.1785  0.0992
 5975W        W21592   8.797  11.624  14.212 -0.0832 -0.0947 -0.1515
 5976W        W21593  11.854   0.958   5.544 -0.3751  0.1717  0.1793
 5977W        W21594   0.988  13.882   0.003 -0.0923 -0.2174 -0.1348
 5978W        W21595  13.529  14.755  11.737  0.1121 -0.3352  0.1608
 5979W        W21596  14.633  14.253  11.012 -0.0130 -0.1139  0.0723
 5980W        W21597  11.629  10.641   1.888 -0.2731 -0.1693 -0.0823
 5981W        W21598  15.321   6.729  13.170 -0.1281 -0.4228 -0.0044
 5982W        W21599   6.271  17.704   5.401  0.1215  0.3292 -0.1593
 5983W        W21600  10.338   7.715  11.902 -0.2285 -0.0571 -0.2447
 5984W        W21601   2.999   3.967  13.437  0.0671  0.0367 -0.2056
 5985W        W21602  16.964  13.387  12.086  0.1084  0.1939  0.3010
 5986W        W21603   1.641  12.793   4.667 -0.0741  0.2871  0.2012
 5987W        W21604  17.013   6.934  15.543 -0.3006  0.1490 -0.2349
 5988W        W21605  17.437  17.259   3.216 -0.0633  0.2293  0.3595
 5989W        W21606  14.078  13.428  12.553 -0.0320  0.4338 -0.0536
 5990W        W21607   7.216  10.108   0.354  0.1222  0.0257  0.0524
 5991W        W21608  10.792  11.823  14.235 -0.3467 -0.1651  0.0773
 5992W        W21609  10.800   9.822  11.628  0.1325 -0.2138 -0.1366
 5993W        W21610  15.059  12.096   4.906 -0.1892 -0.3344 -0.1817
 5994W        W21611   0.224  17.873  14.145 -0.2725 -0.0077  0.0614
 5995W        W21612  12.563  17.339   1.000 -0.1718  0.0233  0.2031
 5996W        W21613   0.271  14.709   0.114  0.1456 -0.1846  0.2199
 5997W        W21614   0.318  16.568  12.071 -0.1407 -0.1861  0.1299
 5998W        W21615  14.209  16.052   5.526  0.1548 -0.2186 -0.0496
 5999W        W21616   9.886  15.811  11.939  0.0214  0.3634  0.1073
 6000W        W21617   8.731  12.563  13.610  0.0309 -0.0168 -0.0714
 6001W        W21618   3.947   3.583   0.298  0.3733 -0.4533  0.1021
 6002W        W21619  15.363  12.266  11.665  0.1784  0.1907 -0.0361
 6003W        W21620  15.668  13.387  12.574 -0.0490 -0.0500 -0.2312
 6004W        W21621  15.572  10.455  14.827 -0.1597  0.2344  0.0632
 6005W        W21622   2.522   7.078   1.929  0.0824 -0.0530  0.2467
 6006W        W21623  10.746   9.885   1.398 -0.1217 -0.0986  0.1187
 6007W        W21624   7.915  18.647   3.504 -0.0982 -0.0378  0.0789
 6008W        W21625  14.768  16.162   4.088  0.0314 -0.1210 -0.1096
 6009W        W21626   9.021  16.018   0.407  0.1558 -0.4422 -0.0266
 6010W        W21627   0.732   7.553   4.112  0.1844  0.0322  0.3039
 6011W        W21628  13.786   8.920   0.296 -0.0636 -0.0059 -0.0228
 6012W        W21629  10.277   9.626   4.367 -0.0005  0.0489  0.1138
 6013W        W21630   9.114   5.179   4.769  0.1443  0.2226 -0.0466
 6014W        W21631  10.003   5.869   5.126  0.0568  0.2403  0.2246
 6015W        W21632   5.043   0.056  14.909 -0.1356  0.3126 -0.0910
 6016W        W21633  10.337  11.685  14.963 -0.2244 -0.0253 -0.1741
 6017W        W21634  17.256  15.570  13.787  0.2780  0.0428  0.2753
 6018W        W21635  11.340   9.792  14.557 -0.1308  0.0007 -0.1128
 6019W        W21636  12.202  16.803  12.045 -0.0188 -0.2063  0.0784
 6020W        W21637   4.849  17.630   5.195  0.0478  0.0033 -0.2138
 6021W        W21638   6.974  15.058   1.927 -0.1684 -0.0730  0.0854
 6022W        W21639  16.336   8.677   2.079  0.0816  0.1725  0.0124
 6023W        W21640  11.570   1.260   2.899 -0.1108  0.1102  0.4716
 6024W        W21641   7.209   2.390   0.980 -0.0510 -0.0138  0.2773
 6025W        W21642  13.934   0.391  13.928 -0.2745 -0.0138  0.0657
 6026W        W21643  18.631  10.778   2.859 -0.2425  0.3166 -0.2171
 6027W        W21644   3.927  17.658   0.302 -0.0500 -0.0614  0.1135
 6028W        W21645  11.323  11.353   0.719  0.2270  0.1195  0.4491
 6029W        W21646   7.017   8.532  14.319 -0.1589  0.1367 -0.0297
 6030W        W21647   1.031  17.750  12.176 -0.2736  0.3963  0.1855
 6031W        W21648  11.409   8.882   0.659 -0.1037 -0.1747  0.0447
 6032W        W21649   3.817   0.138   3.117  0.1591 -0.2019  0.0368
 6033W        W21650   6.540   7.923  12.487 -0.0009  0.2339 -0.1304
 6034W        W21651   1.870   1.379  14.399  0.1420 -0.3380  0.2249
 6035W        W21652   5.508   9.646  15.263  0.0141 -0.0878 -0.0044
 6036W        W21653  18.307   8.468   2.892 -0.1897  0.1632 -0.3531
 6037W        W21654   3.227   3.167   2.172  0.2233 -0.1629 -0.1077
 6038W        W21655  14.080  12.584  12.869  0.1314 -0.2875  0.1707
 6039W        W21656   6.637   4.818  14.277  0.0200  0.0503 -0.0733
 6040W        W21657  16.360  18.256  15.150  0.0048  0.1038  0.1463
 6041W        W21658  15.828   6.217   3.912  0.0146 -0.1388 -0.0361
 6042W        W21659   5.884   4.027  11.030 -0.0041 -0.1478  0.2782
 6043W        W21660   6.044   3.541   2.046 -0.1551 -0.1128 -0.1274
 6044W        W21661   7.728   9.195   4.881 -0.0703  0.1455  0.2830
 6045W        W21662  10.716  13.897   5.252 -0.2465 -0.1760 -0.4017
 6046W        W21663   9.490  14.823  11.019  0.0342  0.2328 -0.1689
 6047W        W21664   8.085  12.357   3.943  0.4096  0.0469 -0.3803
 6048W        W21665  17.191   7.188   2.605  0.0516  0.3934 -0.2674
 6049W        W21666   8.059   0.100   4.785 -0.1592 -0.1202  0.0472
 6050W        W21667  18.547  14.809   3.643  0.0313  0.1335  0.0320
 6051W        W21668   9.457  12.945  11.423 -0.0005 -0.3223 -0.1177
 6052W        W21669   7.408  13.416   3.356 -0.2058  0.0754 -0.1579
 6053W        W21670   3.636  16.663  13.412  0.2531  0.3404 -0.3002
 6054W        W21671   0.481   8.838  11.174 -0.2274 -0.0939  0.0177
 6055W        W21672  12.215  16.717  15.075 -0.1258 -0.0501  0.2332
 6056W        W21673   5.669   1.994   5.361  0.1955 -0.1703  0.0099
 6057W        W21674   0.785  11.837   2.689  0.0309  0.2835  0.0583
 6058W        W21675  10.502  16.369  12.873  0.0518 -0.2258  0.2396
 6059W        W21676   3.979  16.607  14.715  0.1780  0.1617 -0.3151
 6060W        W21677   9.634   6.211  12.872 -0.1714 -0.2561 -0.0935
 6061W        W21678   0.869   3.266   9.873 -0.0017 -0.2076  0.0640
 6062W        W21679   0.838   3.588  13.318  0.0962 -0.3523 -0.1659
 6063W        W21680   4.946   5.688   3.483  0.0136  0.1710  0.4269
 6064W        W21681   4.510   6.842   2.582 -0.4046 -0.2093  0.0079
 6065W        W21682  10.010   5.129  13.158 -0.2351  0.0632 -0.1045
 6066W        W21683  14.977   4.569   3.969  0.1784  0.1750  0.1998
 6067W        W21684   7.931  10.604   0.184  0.1812 -0.1107  0.0208
 6068W        W21685  15.540  10.054  14.500 -0.0316  0.1757  0.0252
 6069W        W21686  13.151   0.326   1.958  0.1437  0.1025 -0.0636
 6070W        W21687  16.014   2.331  12.695 -0.0401 -0.0437 -0.3475
 6071W        W21688  17.644   5.260   5.116  0.0927  0.0260  0.1859
 6072W        W21689  10.203  16.393   4.135 -0.3752  0.3477  0.0144
 6073W        W21690   2.867   4.434  11.577  0.3488  0.0369 -0.1067
 6074W        W21691  17.277   6.987   4.211 -0.1296 -0.0358 -0.0243
 6075W        W21692   2.834   8.854  14.230  0.1093 -0.3010 -0.1544
 6076W        W21693  18.417   6.408   2.759 -0.0653  0.2583 -0.1003
 6077W        W21694  12.905  11.757   1.584  0.2597 -0.3420 -0.1297
 6078W        W21695   0.557   9.206  13.484  0.3085  0.0459  0.1483
 6079W        W21696   7.603  18.011  14.333  0.2237 -0.0206  0.1048
 6080W        W21697   3.880   7.164  10.953  0.0469  0.1924  0.1033
 6081W        W21698  14.551  14.523  13.017  0.0324 -0.0422  0.3601
 6082W        W21699  10.552  12.011  11.823 -0.2264  0.2069 -0.2640
 6083W        W21700   8.729  14.160   0.777 -0.1225 -0.2275  0.0945
 6084W        W21701   1.123  14.355   0.868 -0.0127  0.1250  0.0748
 6085W        W21702   2.080   8.507  15.105  0.2780 -0.1204 -0.2302
 6086W        W21703  18.458   0.616  12.794  0.0799 -0.0355 -0.0547
 6087W        W21704   2.114  16.298  15.668 -0.0622  0.1939  0.0645
 6088W        W21705  16.084   0.994   2.649 -0.0742  0.7033  0.1469
 6089W        W21706   2.214   5.578  12.104  0.2050  0.2347 -0.1265
 6090W        W21707   5.062   0.162   3.610 -0.2631  0.2753  0.1578
 6091W        W21708  13.335  16.536   4.346  0.3810  0.3055 -0.0747
 6092W        W21709  11.933   6.145   6.311  0.0482  0.4893  0.0205
 6093W        W21710  17.135  13.676  15.293 -0.0758 -0.0705  0.1732
 6094W        W21711   3.037   0.435   4.096 -0.0097  0.0808  0.0534
 6095W        W21712   2.965   4.757  13.138  0.2392  0.0548 -0.0281
 6096W        W21713   4.542   8.632  13.611  0.1693  0.0045  0.1875
 6097W        W21714  18.481  17.494  14.329  0.1219  0.0252  0.0353
 6098W        W21715  14.281  12.864  10.931  0.2633  0.0315  0.1337
 6099W        W21716  16.245   3.653   5.321 -0.0109 -0.3239  0.0403
 6100W        W21717   5.038   1.896   4.527  0.3927 -0.1904 -0.2770
 6101W        W21718   1.799  10.121   0.108 -0.0654 -0.0148 -0.2810
 6102W        W21719  18.031  18.010   0.246  0.2087  0.0426  0.4038
 6103W        W21720   9.270   6.939   0.992  0.1486 -0.0907  0.0528
 6104W        W21721   3.652  17.724  13.233 -0.2580 -0.2749  0.1988
 6105W        W21722   3.993  11.755   2.288  0.1150 -0.0925 -0.1344
 6106W        W21723   9.006   1.610   5.388 -0.1416  0.2601  0.3002
 6107W        W21724   0.621  10.796   1.025 -0.2227 -0.1800 -0.0046
 6108W        W21725  18.298  16.595  12.560  0.0425 -0.1161 -0.0874
 6109W        W21726   8.357   1.762  11.196 -0.0986 -0.4822  0.1034
 6110W        W21727  10.062   0.994   3.944  0.1848 -0.1519 -0.4688
 6111W        W21728  17.237  13.004  11.783 -0.1159 -0.0987  0.0391
 6112W        W21729   6.171  10.815  13.891  0.1197 -0.1570 -0.1017
 6113W        W21730  10.988   2.646   2.872 -0.0827 -0.0740 -0.1074
 6114W        W21731   6.503   8.683  14.201  0.4017  0.1967  0.1381
 6115W        W21732   9.788   1.306   5.727 -0.1367  0.1757  0.1871
 6116W        W21733  17.446  11.631   0.101  0.0495  0.0471  0.2708
 6117W        W21734   2.546  10.133  12.901  0.0860  0.0118 -0.0189
 6118W        W21735  18.348  16.651  11.514  0.2145 -0.0793 -0.1332
 6119W        W21736   0.454   1.246   4.340 -0.0733 -0.2263 -0.0668
 6120W        W21737  12.418  13.390   5.084  0.1402 -0.3236  0.1283
 6121W        W21738  17.944  11.478  15.797  0.1819  0.1061  0.0630
 6122W        W21739   9.558  13.115  11.958 -0.0333 -0.0092  0.0987
 6123W        W21740  15.061   6.369   1.338  0.5414 -0.2246  0.1102
 6124W        W21741  13.962   6.510  13.717 -0.2106 -0.0614  0.0460
 6125W        W21742  15.849   6.940   2.039  0.0887  0.0064  0.0153
 6126W        W21743   6.869   9.690  12.281  0.0898  0.0407  0.1756
 6127W        W21744  16.250  17.500   1.612 -0.1538  0.2600  0.2115
 6128W        W21745   1.149  10.239   3.236  0.1762 -0.1574  0.1439
 6129W        W21746  12.002  10.396   4.736  0.4216 -0.0445 -0.1358
 6130W        W21747   4.852   8.932   1.503  0.0649  0.2391 -0.0200
 6131W        W21748  12.837   7.193   4.822  0.0510 -0.1009 -0.1553
 6132W        W21749  13.941  16.751  11.471 -0.1263 -0.1591  0.3672
 6133W        W21750  17.586   2.801   5.347 -0.2413  0.0675  0.0546
 6134W        W21751  15.019   4.371   3.006 -0.3428 -0.0037 -0.5643
 6135W        W21752   7.158  14.195  13.126  0.0155 -0.0355 -0.0461
 6136W        W21753  11.410  11.997  14.793  0.2508  0.2024 -0.1535
 6137W        W21754   4.535   1.219  12.497  0.4005 -0.0890  0.0727
 6138W        W21755   6.016   7.644   5.169 -0.0987 -0.0322  0.4051
 6139W        W21756  15.735  15.387  14.286  0.4300 -0.1194  0.3402
 6140W        W21757   6.304  13.735  13.678  0.0763 -0.1835 -0.0965
 6141W        W21758  14.183  11.743   1.466  0.1046  0.1015 -0.1971
 6142W        W21759   2.208   0.705   5.923  0.0706 -0.0064 -0.2768
 6143W        W21760  12.035  14.702  12.572 -0.0357  0.1185 -0.0589
 6144W        W21761  17.913   0.133  12.242  0.3646 -0.0236  0.1155
 6145W        W21762   1.267   1.586  12.492  0.2294  0.2580 -0.1434
 6146W        W21763  16.335  14.998  12.616 -0.1188 -0.0084  0.2212
 6147W        W21764   9.245  13.126   4.766 -0.0012  0.1217  0.3658
 6148W        W21765   5.409   8.838  14.414  0.0763  0.0279 -0.2134
 6149W        W21766  11.440   8.090  11.814  0.1919  0.2351  0.3057
 6150W        W21767  12.921  18.187  13.862  0.0147  0.2548  0.0129
 6151W        W21768  13.476   0.975   1.697  0.0561 -0.1927 -0.2680
 6152W        W21769   1.762   3.536   3.653 -0.2921 -0.1051 -0.2910
 6153W        W21770   4.067   8.231  12.369  0.0397  0.0040 -0.0458
 6154W        W21771  14.655  11.660   2.265  0.0040  0.1227  0.0840
 6155W        W21772   8.129  10.586  11.775  0.3551 -0.2973  0.1204
 6156W        W21773  16.713  11.896  15.567  0.1583  0.2125 -0.2030
 6157W        W21774   7.348  18.002  13.431 -0.2245 -0.1782 -0.2277
 6158W        W21775   5.300   5.812  13.661  0.0291  0.0040  0.0849
 6159W        W21776   5.638  15.293  14.145  0.2065  0.1406  0.1780
 6160W        W21777   8.223   9.338   1.735 -0.1126 -0.2535  0.0691
 6161W        W21778  13.270  14.209  13.807  0.1493  0.1356  0.0055
 6162W        W21779   3.432   3.547   3.968 -0.3013 -0.3743 -0.1815
 6163W        W21780   5.121  16.528   9.906 -0.0254  0.5115  0.0572
 6164W        W21781   1.086   4.727   1.045 -0.1537  0.2208  0.1064
 6165W        W21782   1.367  16.042  11.147  0.0376  0.3277  0.1686
 6166W        W21783   2.468   3.054  11.371 -0.2913 -0.4885  0.0947
 6167W        W21784   1.351   7.961   2.982 -0.2181 -0.0744 -0.1983
 6168W        W21785   7.744   9.365  12.870 -0.3540  0.0791  0.0387
 6169W        W21786   6.504   4.526   0.196 -0.0209 -0.1710 -0.5158
 6170W        W21787   9.975   5.695  13.106  0.2427  0.2066  0.1629
 6171W        W21788  18.170   2.640   2.692  0.1827  0.1710  0.3549
 6172W        W21789   0.683   2.900   5.649 -0.0255  0.2514  0.0492
 6173W        W21790   3.593   7.515  11.644 -0.1603 -0.2105 -0.0953
 6174W        W21791   3.479   7.698   0.687  0.1472  0.1138 -0.0772
 6175W        W21792   0.980  10.713  11.183 -0.0316  0.2004  0.2986
 6176W        W21793  17.494  10.857   4.552  0.2395 -0.0939 -0.3001
 6177W        W21794  16.296   6.860  13.592 -0.0898  0.0259  0.1789
 6178W        W21795  17.199   4.577   5.559 -0.0909 -0.2284 -0.0203
 6179W        W21796  10.063  11.348   0.399  0.0473  0.2941 -0.0255
 6180W        W21797  14.995  17.495   4.482  0.2565  0.0119  0.1278
 6181W        W21798  18.118   3.218   0.165 -0.3117  0.1315  0.3852
 6182W        W21799   7.204  16.502  13.231 -0.2115  0.0740 -0.1235
 6183W        W21800   4.867  16.959  10.135  0.0357  0.0685 -0.1981
 6184W        W21801   5.603   9.570  13.338 -0.0365  0.2163 -0.0056
 6185W        W21802  11.068   5.360  13.207  0.1987 -0.2255  0.0145
 6186W        W21803   5.665   2.301  15.129  0.0702  0.1881 -0.2692
 6187W        W21804  12.465  18.384  15.548 -0.1632 -0.0598 -0.0735
 6188W        W21805   9.179   2.342   1.589  0.1679 -0.4125  0.1931
 6189W        W21806   5.947   6.401   4.804  0.2716 -0.0342 -0.1182
 6190W        W21807  11.262   8.976   1.630  0.3114  0.1499 -0.0554
 6191W        W21808  10.400  14.202   2.607 -0.0129  0.2900  0.0260
 6192W        W21809  17.836   4.641   9.875 -0.1033 -0.3848  0.2200
 6193W        W21810  14.879   6.352   0.561  0.4318  0.4336  0.1622
 6194W        W21811  18.082  17.222  14.059  0.1790 -0.4616  0.0180
 6195W        W21812   6.624   8.337  12.124  0.0780 -0.0249  0.1180
 6196W        W21813  14.554   6.748  12.905 -0.1493 -0.2157  0.0141
 6197W        W21814   6.745   2.403  13.660  0.1186 -0.1635 -0.0040
 6198W        W21815   2.205   6.280   1.340  0.0888 -0.1796  0.4918
 6199W        W21816  14.080   5.446   3.537  0.0666 -0.1682  0.2840
 6200W        W21817  17.041  12.480  13.802  0.0192  0.0438  0.2156
 6201W        W21818  12.493   4.297  11.173 -0.2748  0.1040  0.1283
 6202W        W21819   1.222  11.614  10.582 -0.1140  0.4145 -0.1800
 6203W        W21820   9.192  15.479  10.663 -0.0966  0.1062  0.0671
 6204W        W21821   0.849  15.932  12.823  0.0648 -0.0603 -0.3415
 6205W        W21822   6.982  17.376  14.684 -0.0593  0.1061 -0.0662
 6206W        W21823   4.431  10.767  15.273 -0.1570 -0.0830  0.0516
 6207W        W21824   3.562  11.360  10.281  0.1409 -0.2078 -0.2940
 6208W        W21825   8.573  13.067  10.435  0.0731 -0.1902 -0.4418
 6209W        W21826  12.603   7.279  10.980  0.3727 -0.0420  0.2521
 6210W        W21827   2.241   2.031  12.676  0.0990  0.2450 -0.0921
 6211W        W21828   6.193  17.840   2.335  0.1750  0.0056  0.0443
 6212W        W21829   6.018   2.708  14.767 -0.0697 -0.1213 -0.2437
 6213W        W21830  11.295  17.597   4.958  0.1062  0.0030 -0.0119
 6214W        W21831   4.217   8.035   3.960 -0.1081  0.0642 -0.0847
 6215W        W21832  17.252  15.573  13.211 -0.4607  0.1355 -0.3267
 6216W        W21833   9.172  17.073  15.332 -0.0397 -0.0849 -0.0372
 6217W        W21834  15.406   4.017  11.487  0.0021  0.0982 -0.4112
 6218W        W21835   7.691  11.519  12.066  0.3964 -0.2322 -0.1032
 6219W        W21836   1.960   3.382  14.553  0.2568 -0.3577 -0.1742
 6220W        W21837  10.894   4.410   4.533  0.4866 -0.1420  0.0914
 6221W        W21838  18.313   7.306   3.422 -0.1478 -0.2651 -0.1069
 6222W        W21839   7.137   4.628   9.861  0.2134 -0.1503 -0.0501
 6223W        W21840  18.305   8.869   0.456  0.0482  0.0619  0.2236
 6224W        W21841   2.618  11.268   2.903 -0.0834  0.2474 -0.0927
 6225W        W21842  17.087  16.579   2.329 -0.0123 -0.0216  0.0001
 6226W        W21843  16.882  17.092  11.465 -0.1252  0.1951  0.0635
 6227W        W21844  13.465  11.508   0.592 -0.0973 -0.3866  0.1013
 6228W        W21845   7.075   1.927  14.325  0.0644 -0.3159  0.0116
 6229W        W21846  16.940  18.014   2.230  0.1429 -0.1823 -0.0545
 6230W        W21847  13.970  12.661  15.736 -0.1615  0.1221 -0.1164
 6231W        W21848  16.554   4.412   4.471  0.5027 -0.1765 -0.1804
 6232W        W21849   7.658  13.626   0.790  0.2790 -0.1349  0.3365
 6233W        W21850   0.952   8.824  14.866  0.0980 -0.1064 -0.1437
 6234W        W21851   4.776  12.513  15.114  0.0448  0.0318  0.0929
 6235W        W21852  12.767  15.814   2.425  0.1227 -0.0370  0.2199
 6236W        W21853   9.038   5.181   1.407  0.0890  0.3679 -0.0263
 6237W        W21854   9.253  16.102   4.394  0.1136 -0.0988 -0.2099
 6238W        W21855   6.222  10.603  10.988  0.0217  0.3118 -0.0580
 6239W        W21856   9.417   3.394  14.727 -0.0067  0.0273 -0.2705
 6240W        W21857  14.184  10.995   2.575 -0.2546  0.2367 -0.1001
 6241W        W21858   1.506  17.052  11.033  0.0085  0.0433 -0.3735
 6242W        W21859  11.680   4.937   4.811  0.1303  0.0487  0.4079
 6243W        W21860   2.841  12.713   1.905 -0.1674 -0.0419 -0.0132
 6244W        W21861  16.589  16.766   6.144  0.3141  0.0643 -0.4727
 6245W        W21862  17.064  10.636  14.920 -0.0983 -0.1694 -0.0574
 6246W        W21863  17.939   3.381  13.806  0.2454  0.2183  0.0488
 6247W        W21864   7.646   9.496   0.410 -0.0571 -0.0100  0.2120
 6248W        W21865   6.029  18.083   9.976  0.1817 -0.0539 -0.0675
 6249W        W21866  11.995  11.671  10.531  0.0388  0.0717  0.0833
 6250W        W21867   8.163   3.039  15.093 -0.2063  0.1023 -0.1229
 6251W        W21868  16.441   1.611   5.829  0.1323 -0.0479  0.0320
 6252W        W21869   6.357   8.353   3.317 -0.3537 -0.0115 -0.0641
 6253W        W21870   3.664   8.075  10.948  0.2541  0.1420 -0.0543
 6254W        W21871   6.823  13.267  12.619  0.0784  0.0479  0.2385
 6255W        W21872   7.212   2.179  12.457  0.0037  0.2333  0.1611
 6256W        W21873  17.699   5.447  13.711  0.0240 -0.1534 -0.0180
 6257W        W21874   3.849  15.246   0.317 -0.5614  0.0520  0.3142
 6258W        W21875   9.141   5.577   2.168  0.0255 -0.2322  0.0646
 6259W        W21876  10.559   1.287   2.366 -0.3800 -0.1505 -0.2597
 6260W        W21877   4.111  13.926  15.626  0.0603  0.0223 -0.0611
 6261W        W21878   5.876   6.295  15.070 -0.2410 -0.1596  0.2153
 6262W        W21879   7.662   5.803   2.184  0.1039  0.1926  0.2244
 6263W        W21880  15.327  13.762  13.991 -0.1726 -0.1106  0.3221
 6264W        W21881   6.951  14.565  14.053  0.0512 -0.2541 -0.3228
 6265W        W21882  17.054  15.927  12.960 -0.2409 -0.3051  0.0156
 6266W        W21883   5.126   9.179   0.253 -0.2042 -0.1766 -0.1395
 6267W        W21884   8.908  16.712  15.094  0.1339  0.1126 -0.0713
 6268W        W21885  17.969  12.954  14.517  0.2574 -0.2443  0.0060
 6269W        W21886   7.792   9.659  15.407  0.3663 -0.0340  0.0545
 6270W        W21887   6.747  14.023  13.520 -0.1951 -0.0234  0.4727
 6271W        W21888   9.378   4.189   3.548  0.0859 -0.0510 -0.0762
 6272W        W21889   1.956  12.991  11.776  0.2166  0.1231  0.2111
 6273W        W21890   7.479   0.083  12.570 -0.0527 -0.0767 -0.0465
 6274W        W21891  11.638   2.887   2.630  0.1683 -0.1670 -0.0804
 6275W        W21892  12.139  18.333   5.629 -0.0824  0.2591 -0.2322
 6276W        W21893   3.716   6.703   1.082 -0.0950  0.1949 -0.4361
 6277W        W21894   6.980  16.549   3.109  0.1044  0.0671  0.2236
 6278W        W21895   6.999   0.736   4.487  0.0119  0.2469  0.0408
 6279W        W21896   5.684  16.447  10.552 -0.4179  0.0557  0.1407
 6280W        W21897   6.009   9.892   0.620  0.0340  0.0884 -0.1800
 6281W        W21898   6.150   6.666   0.637  0.0483 -0.1486 -0.1688
 6282W        W21899  11.003   6.168   2.665 -0.0697 -0.1879 -0.3537
 6283W        W21900  15.394  13.009   2.687  0.0066  0.2349  0.0954
 6284W        W21901   9.353   7.399  11.498 -0.3034  0.2141 -0.0584
 6285W        W21902  10.420  15.171  14.883 -0.0511 -0.0743  0.3464
 6286W        W21903  14.513  13.998  13.137  0.2780  0.2845  0.1627
 6287W        W21904   4.253  15.461  10.852  0.0828  0.1561  0.4304
 6288W        W21905   5.514   0.092  15.308 -0.1409  0.0051 -0.1691
 6289W        W21906  11.449   3.977   2.159  0.0694 -0.0475  0.5440
 6290W        W21907  15.418   8.036  11.106  0.5127 -0.2811 -0.0310
 6291W        W21908   9.262  12.360   3.741  0.0213 -0.0150 -0.0587
 6292W        W21909   8.266   3.785  11.348  0.1315 -0.0749  0.0863
 6293W        W21910  13.833  12.082   3.283 -0.1541 -0.2216 -0.0070
 6294W        W21911   8.866  15.528   2.384  0.0306  0.0178 -0.1224
 6295W        W21912  13.196   1.314   3.647 -0.1248  0.0348  0.2295
 6296W        W21913   3.966   6.149  15.776  0.3153 -0.1619  0.1780
 6297W        W21914  16.423  14.136   9.712  0.0610  0.1634  0.1128
 6298W        W21915   4.714   1.149  11.168  0.1642 -0.1412  0.0932
 6299W        W21916  18.406   3.825  15.039 -0.1431  0.0469 -0.0776
 6300W        W21917   1.675   7.267  13.969 -0.0318  0.1104 -0.0055
 6301W        W21918   7.461   4.361  14.205  0.1378  0.3862 -0.0966
 6302W        W21919   2.111   0.565   5.440 -0.0014 -0.2366  0.1591
 6303W        W21920   3.761  17.326  10.968 -0.0961 -0.0892 -0.3245
 6304W        W21921   8.419  17.818   2.324  0.2702 -0.2298 -0.1784
 6305W        W21922  12.138  13.750  12.143  0.1460  0.1320 -0.0847
 6306W        W21923   7.760   5.858   4.634 -0.0164 -0.1512  0.0039
 6307W        W21924  17.314   6.866  11.372  0.2383 -0.2120 -0.0538
 6308W        W21925  15.188   1.301  12.390 -0.1702  0.0238  0.3526
 6309W        W21926   4.629  15.211   0.888 -0.0468 -0.1081  0.0614
 6310W        W21927   3.025  15.915   4.448  0.1399  0.2986  0.2200
 6311W        W21928  13.366   6.829   4.598  0.0296 -0.4162 -0.2446
 6312W        W21929   0.725   4.449  11.189  0.2799 -0.1179 -0.2208
 6313W        W21930  14.027  12.263  11.201  0.1337 -0.0805 -0.3954
 6314W        W21931   8.724   0.596   4.728  0.0140  0.1046 -0.1637
 6315W        W21932  15.904  18.265  12.407 -0.3049 -0.2057 -0.0083
 6316W        W21933  15.479  15.344  15.219 -0.3276  0.2623  0.2232
 6317W        W21934   0.477   5.875  11.856  0.0922 -0.2405  0.0532
 6318W        W21935   8.699  13.365  12.405  0.3279  0.0235 -0.1758
 6319W        W21936  16.088  15.323  15.002  0.1867  0.1084 -0.0083
 6320W        W21937   7.535   8.525  12.345 -0.3753 -0.0626  0.0077
 6321W        W21938  10.672  16.334   3.411 -0.0501  0.0228  0.1809
 6322W        W21939  10.479   3.025  13.119 -0.0786  0.1209  0.1247
 6323W        W21940   6.795   9.490  13.899  0.0081  0.1855 -0.2380
 6324W        W21941  17.078   1.987  11.401 -0.3115 -0.1342 -0.1318
 6325W        W21942   5.299   9.928  14.772  0.0058  0.0785 -0.0163
 6326W        W21943  15.527   9.779  13.803 -0.0521  0.2910  0.3105
 6327W        W21944  12.992   6.414   5.408 -0.1641  0.0406 -0.2670
 6328W        W21945  10.887  12.807   2.401  0.0686 -0.1456 -0.1072
 6329W        W21946  16.525  12.990  12.690  0.1503  0.4734  0.2079
 6330W        W21947   1.315   8.819  12.075  0.0926 -0.4535 -0.1919
 6331W        W21948   9.089   6.079   2.083  0.0436  0.0498  0.2184
 6332W        W21949  12.780   2.239  10.841  0.0515  0.1578  0.0628
 6333W        W21950  16.058  13.150  12.736 -0.0472  0.0077  0.2404
 6334W        W21951  15.583   2.088   5.852 -0.1058 -0.0191 -0.0914
 6335W        W21952   1.772  15.370  12.349  0.0705  0.2620 -0.2041
 6336W        W21953   7.333   9.463  13.133 -0.1964  0.0043 -0.1555
 6337W        W21954   4.460   0.256  12.067  0.2259 -0.1903  0.1155
 6338W        W21955  11.373  17.226  13.014  0.0189 -0.0874  0.3353
 6339W        W21956   6.690   9.362   5.357 -0.0083  0.3109  0.3703
 6340W        W21957  17.615  14.301   3.619  0.2824  0.0241 -0.1644
 6341W        W21958  15.756   4.745  12.739  0.1810  0.2816 -0.2388
 6342W        W21959   5.181   5.034   1.694  0.3717  0.0538  0.0560
 6343W        W21960   9.831   2.534  14.328  0.2832  0.1005 -0.3260
 6344W        W21961   7.343  12.751  12.606  0.1605 -0.1485 -0.1136
 6345W        W21962  12.099  10.747   2.078 -0.0549 -0.1550 -0.1127
 6346W        W21963  14.338  18.600  13.797 -0.0461 -0.0741  0.0733
 6347W        W21964   5.258   7.967   5.881 -0.0068  0.2948  0.0476
 6348W        W21965  15.798   8.397   3.258 -0.2847  0.0727 -0.2703
 6349W        W21966  13.569   4.366  13.294  0.3124  0.0590  0.0911
 6350W        W21967  15.057  17.849   3.553 -0.0110 -0.0763 -0.1711
 6351W        W21968  17.713   1.049  11.065 -0.0151 -0.1626 -0.0794
 6352W        W21969  16.241   2.266   2.048 -0.2791  0.1618 -0.1480
 6353W        W21970   0.094   5.010  12.216  0.2622 -0.0402 -0.0009
 6354W        W21971   3.018  15.383  11.635  0.2522 -0.1780 -0.1751
 6355W        W21972   7.791  12.003  11.070  0.1071  0.0708  0.0642
 6356W        W21973   0.136   8.763  13.843 -0.1077 -0.0973  0.0732
 6357W        W21974   8.997  13.508  15.453  0.0563 -0.2055 -0.0047
 6358W        W21975  12.606  12.759  15.575 -0.0416 -0.2145  0.0974
 6359W        W21976   2.673   5.961  13.186  0.1451  0.0467  0.3818
 6360W        W21977  11.117  13.294  15.231  0.1055 -0.3398 -0.2462
 6361W        W21978   5.908  10.192  11.150  0.2506  0.1328  0.0843
 6362W        W21979  11.697   8.972   3.004  0.1446  0.1261  0.1830
 6363W        W21980  10.412   4.642   1.443 -0.3667 -0.2925  0.2025
 6364W        W21981  17.834  12.628  12.417 -0.0154  0.1120  0.0003
 6365W        W21982   3.280   4.443   4.168 -0.0251 -0.2505 -0.0446
 6366W        W21983  12.170   0.850  12.685 -0.4131  0.0529  0.0559
 6367W        W21984   9.150  13.179  11.067  0.3857 -0.0301 -0.3046
 6368W        W21985  14.354  16.812   1.324 -0.1744  0.2222  0.1393
 6369W        W21986   8.076  12.402  12.858  0.0841 -0.1894 -0.1920
 6370W        W21987   5.064  16.291  13.028 -0.1581 -0.1420  0.0989
 6371W        W21988  17.409   4.840   1.331  0.1117 -0.0213  0.0333
 6372W        W21989   8.760   1.850   0.483 -0.1347 -0.6180  0.3423
 6373W        W21990   1.727   8.116  15.230 -0.0632 -0.3517  0.0648
 6374W        W21991   6.081   4.401   2.763  0.2365 -0.2514  0.0395
 6375W        W21992   1.016   3.045   0.394  0.0910 -0.2264  0.1603
 6376W        W21993  13.031  13.411   6.010  0.4637  0.1871 -0.0683
 6377W        W21994   8.383  10.736   3.372 -0.3330  0.1120  0.0241
 6378W        W21995  17.929  10.613  12.708  0.0023  0.0716  0.1312
 6379W        W21996  11.381  10.865  12.406 -0.1229 -0.5964  0.0571
 6380W        W21997   5.981   4.669  13.662  0.0178 -0.0579 -0.0067
 6381W        W21998   6.603  12.262   3.237  0.1470  0.3196  0.1632
 6382W        W21999   8.669   3.244   1.396  0.1731  0.0593  0.1557
 6383W        W22000   8.357  10.336  12.128  0.2254 -0.4485 -0.0591
 6384W        W22001   7.285  14.229   3.521  0.3514  0.2472 -0.0696
 6385W        W22002  14.872   8.628   0.945 -0.0857  0.2045 -0.4800
 6386W        W22003  13.300  10.731  11.004  0.0881  0.1507  0.1994
 6387W        W22004   6.789  16.018  12.033  0.0779  0.3119 -0.1905
 6388W        W22005  12.222  10.946  12.219 -0.2656 -0.2996  0.2269
 6389W        W22006  16.389  16.117   3.210  0.1706  0.0241  0.1241
 6390W        W22007  17.037  10.070   1.967 -0.3052 -0.2300 -0.1636
 6391W        W22008  14.896   8.429   2.573  0.1335 -0.3146  0.3137
 6392W        W22009  10.583   0.511  11.671  0.2998 -0.2131 -0.0461
 6393W        W22010   3.527   2.502   0.321 -0.2623 -0.0303 -0.1053
 6394W        W22011   5.696   4.322   3.285  0.5467  0.0402 -0.0244
 6395W        W22012   7.560   2.678  14.775 -0.2533  0.0690 -0.2820
 6396W        W22013  15.743   0.533   2.068 -0.2554 -0.0654  0.1063
 6397W        W22014  10.822   2.211   3.534 -0.0248  0.0509  0.0800
 6398W        W22015   8.568  18.265  11.809  0.0636  0.0618 -0.0839
 6399W        W22016   1.747  15.421   4.632  0.0081  0.1430 -0.2942
 6400W        W22017   9.249   3.175   0.225 -0.1486  0.2128  0.0355
 6401W        W22018   6.311   2.950  11.911 -0.0909  0.3185  0.0039
 6402W        W22019   3.857  17.018  12.507  0.4154  0.2379 -0.0643
 6403W        W22020   1.022   2.558   2.588  0.3854 -0.0897  0.2449
 6404W        W22021  12.448  10.862  13.195 -0.0890  0.1753  0.1552
 6405W        W22022  12.513  11.939  14.435  0.0022  0.2878 -0.1646
 6406W        W22023   3.459  14.622   2.287 -0.0709 -0.0515 -0.0400
 6407W        W22024  16.988  14.065  14.752 -0.1413 -0.0532  0.2711
 6408W        W22025  16.443  11.902  11.134  0.0949  0.0275 -0.0454
 6409W        W22026   0.747  13.190  15.227 -0.1742 -0.2393  0.2484
 6410W        W22027   6.983   4.617   4.931 -0.0472 -0.2805  0.1141
 6411W        W22028  17.422  14.544  14.080 -0.2196  0.0840 -0.0877
 6412W        W22029   1.369  16.895  15.309 -0.0618  0.0554  0.4246
 6413W        W22030  13.152   7.280   4.350  0.0920  0.0647  0.3071
 6414W        W22031   5.393  12.230  13.929 -0.0778  0.0071  0.1285
 6415W        W22032   1.119   3.267  11.446  0.1788  0.2636  0.0147
 6416W        W22033  17.740   4.295   5.377  0.2480  0.0399 -0.0855
 6417W        W22034  16.941   5.563  11.437 -0.1575 -0.2180  0.0209
 6418W        W22035   8.946   9.717  11.705  0.1396  0.3027  0.2371
 6419W        W22036  15.132   2.092  11.741  0.0346 -0.3017 -0.0593
 6420W        W22037   6.145   2.398   0.639  0.0288  0.0215  0.0305
 6421W        W22038  13.786  13.440   1.568  0.1330 -0.0723 -0.2203
 6422W        W22039   4.490  12.090  12.219  0.0438 -0.0938  0.3035
 6423W        W22040   0.090   4.556   4.416 -0.0882 -0.1180 -0.2802
 6424W        W22041   9.266  17.491   0.664  0.3291 -0.1055 -0.1908
 6425W        W22042  17.887  10.020  14.935  0.0243 -0.2053 -0.4733
 6426W        W22043  14.530   9.284  13.350  0.0890  0.1401  0.0534
 6427W        W22044  13.386   5.995  13.051 -0.0697 -0.0499 -0.0436
 6428W        W22045   8.081   2.969  11.045 -0.0785 -0.2424 -0.0234
 6429W        W22046   0.720   3.548   0.306  0.1301 -0.1220  0.1813
 6430W        W22047   5.416   6.863   1.224  0.2228 -0.2468 -0.1052
 6431W        W22048   3.970  13.569   3.448  0.3758  0.1895 -0.0264
 6432W        W22049   8.864   6.434   2.700 -0.1304 -0.0275  0.3249
 6433W        W22050  15.087   0.035   1.766  0.1068  0.2194 -0.3396
 6434W        W22051   5.720   3.134  13.332 -0.1938 -0.0626 -0.1502
 6435W        W22052   2.899  10.338  13.206  0.0923 -0.2395 -0.0478
 6436W        W22053  14.491  11.509  13.970  0.0280 -0.0106 -0.0678
 6437W        W22054  14.705  17.445  15.369  0.0611 -0.1714  0.2111
 6438W        W22055   6.116  14.865  14.468  0.1206  0.2323 -0.0922
 6439W        W22056  13.088  15.292   1.370 -0.0317  0.1698  0.0182
 6440W        W22057   2.958   8.699   5.789 -0.2860  0.0328  0.0163
 6441W        W22058  16.549  10.614   3.484 -0.1410 -0.0154  0.0130
 6442W        W22059  16.112  16.145  13.949 -0.3179  0.2289 -0.1507
 6443W        W22060  11.337  12.219  10.554 -0.4798  0.1894 -0.0249
 6444W        W22061   5.273   3.256  13.205 -0.1608 -0.0078  0.1089
 6445W        W22062   4.539   3.882   2.923 -0.0525 -0.0702 -0.2698
 6446W        W22063   9.705   6.458  13.985  0.3747  0.1458  0.0050
 6447W        W22064   5.481  13.074   4.680 -0.3382  0.1654 -0.2465
 6448W        W22065   7.964  14.847  15.020  0.2787  0.3142  0.2344
 6449W        W22066   5.586   4.178   4.079 -0.2039 -0.2056  0.1319
 6450W        W22067   2.031   9.466   1.788  0.0441 -0.0720 -0.4189
 6451W        W22068   1.616  11.804  14.693  0.1564  0.2439 -0.4785
 6452W        W22069   8.314  15.239  12.640 -0.0224 -0.2541  0.0407
 6453W        W22070   7.759   4.653  12.345 -0.0262 -0.0240  0.0215
 6454W        W22071   9.845  14.738  13.125 -0.2244  0.2191  0.2347
 6455W        W22072   0.594   6.512   2.748 -0.3256 -0.0966 -0.2597
 6456W        W22073   8.287  15.708  12.786 -0.2942 -0.0758  0.0974
 6457W        W22074  11.031   0.613  14.332  0.0336  0.1399  0.0085
 6458W        W22075   9.635   0.439   5.760 -0.2024 -0.0288  0.2036
 6459W        W22076  16.327  18.154  12.168  0.3066  0.0594 -0.1021
 6460W        W22077   7.602   7.964  13.200 -0.0667  0.0709 -0.5712
 6461W        W22078  17.374   9.937  15.530  0.1762 -0.2175  0.3920
 6462W        W22079   9.372   0.498   4.195  0.1432 -0.0496  0.0315
 6463W        W22080  16.256   2.531   0.984 -0.3400 -0.1586  0.0050
 6464W        W22081   0.290  15.164  11.819  0.3949  0.1716 -0.0338
 6465W        W22082   6.622   3.744  12.022 -0.4079 -0.1291  0.3055
 6466W        W22083  17.709  14.914  14.866 -0.0120 -0.1017  0.1198
 6467W        W22084  11.114   8.375   5.140  0.3151 -0.3682  0.0913
 6468W        W22085  16.199   8.089  15.297 -0.2222 -0.0765 -0.1509
 6469W        W22086   2.292   0.596   3.488  0.0609 -0.2718  0.1057
 6470W        W22087  16.509   1.975   5.476 -0.3256 -0.1054 -0.2277
 6471W        W22088   0.021  14.750   2.273 -0.3947 -0.0056 -0.0603
 6472W        W22089   4.936  17.925  11.980 -0.2150 -0.0214  0.0918
 6473W        W22090   7.927  11.562   5.679  0.1044  0.1041  0.0988
 6474W        W22091   4.325   1.435   0.562  0.1260 -0.4592  0.1429
 6475W        W22092  18.380   2.525  11.949  0.1228  0.1820 -0.0378
 6476W        W22093   7.474   3.618  13.609  0.1032  0.0920 -0.2471
 6477W        W22094   6.624   7.853  13.797 -0.1469 -0.2015  0.3043
 6478W        W22095   7.292   1.044   4.922 -0.0704  0.0788 -0.2090
 6479W        W22096  16.441   7.828   2.238  0.1193 -0.2844  0.1009
 6480W        W22097  18.456   3.520   4.187 -0.2918 -0.2784 -0.1200
 6481W        W22098  16.565   0.358  14.490  0.0238  0.0972  0.1377
 6482W        W22099   0.820  15.215   4.470 -0.0404 -0.0556 -0.0900
 6483W        W22100   4.416   5.639   1.270 -0.1205 -0.0903  0.4443
 6484W        W22101   1.985  17.448  15.662  0.2062  0.1021 -0.0552
 6485W        W22102  10.350  13.540   1.248 -0.3885  0.1866  0.3483
 6486W        W22103   3.384   4.527   3.597  0.0274  0.1884  0.0508
 6487W        W22104  18.061   7.250   0.641 -0.0011  0.0040  0.0498
 6488W        W22105  16.442  11.139  10.467  0.3815 -0.2281  0.2561
 6489W        W22106   0.477  12.861   2.212  0.0695 -0.1393  0.4753
 6490W        W22107   8.114  11.184   1.238  0.2917 -0.1128  0.5377
 6491W        W22108   0.638  12.377  15.481  0.1862  0.1430  0.0239
 6492W        W22109  10.270  10.486  14.365  0.0703  0.2965  0.2954
 6493W        W22110  15.220   0.790  12.560 -0.1457  0.0087  0.4998
 6494W        W22111  15.926   4.635  14.535 -0.0118 -0.1592 -0.0531
 6495W        W22112  16.369  11.986   4.650 -0.0260  0.0014 -0.1426
 6496W        W22113  15.754  17.456   1.868 -0.0396 -0.0215 -0.1250
 6497W        W22114  13.549   2.844  12.055  0.1540  0.1540 -0.1293
 6498W        W22115  10.096   9.591   2.988  0.0438  0.1122 -0.2543
 6499W        W22116  10.811  17.809   3.740  0.1899 -0.1746  0.1765
 6500W        W22117   9.153   8.911   5.203 -0.1116  0.1027  0.0081
 6501W        W22118   3.754  15.066   0.812  0.1096  0.0426  0.0465
 6502W        W22119  16.027   1.836   1.433  0.0962 -0.3220  0.0198
 6503W        W22120   0.095   2.694  15.682 -0.1070  0.3445  0.2831
 6504W        W22121   3.742  18.628   4.355  0.2157  0.4218 -0.3240
 6505W        W22122   9.424   9.970   1.877  0.0496 -0.0286 -0.3352
 6506W        W22123   9.368  14.037  10.532  0.0293  0.3715 -0.0056
 6507W        W22124  14.930  13.633   1.336  0.0981 -0.0440  0.1132
 6508W        W22125   9.015  18.306   5.226  0.0245  0.1381 -0.2434
 6509W        W22126   6.017  12.284   3.126  0.1536 -0.0080  0.0098
 6510W        W22127   7.497   9.991   3.056  0.1449 -0.1670 -0.1767
 6511W        W22128   9.999  15.360   1.104  0.0035  0.1687  0.0166
 6512W        W22129   4.994  16.668  13.966  0.0558  0.0148 -0.2647
 6513W        W22130  13.972   4.234  12.863  0.3426 -0.0177 -0.0022
 6514W        W22131  16.068  14.889   4.910 -0.1054 -0.0365 -0.2408
 6515W        W22132   3.033  10.287   0.778  0.0940  0.0764  0.1999
 6516W        W22133   6.838   9.899   0.568  0.0832  0.0187  0.1072
 6517W        W22134  13.269   5.073   5.194  0.2714 -0.2221  0.0775
 6518W        W22135   7.339  14.504   0.468  0.1201  0.2463 -0.0538
 6519W        W22136  16.336  17.272   0.724  0.0976 -0.0122  0.0467
 6520W        W22137   6.744   7.504   1.523  0.2413  0.2543 -0.2202
 6521W        W22138  14.445   4.003  15.052  0.2749  0.2156  0.3279
 6522W        W22139   3.371   1.332   3.002  0.0094  0.0307 -0.1392
 6523W        W22140   6.011   1.826   1.943  0.2248  0.0543  0.2151
 6524W        W22141   9.633  15.893   1.639 -0.1918  0.2406  0.2605
 6525W        W22142  15.431   7.347  11.660  0.1368 -0.0242  0.0207
 6526W        W22143   2.037  16.729  14.818 -0.2984 -0.2767 -0.3399
 6527W        W22144   6.519   0.669   4.501  0.2722 -0.2798 -0.3550
 6528W        W22145   7.246   5.666   2.458 -0.0045  0.0135 -0.0255
 6529W        W22146  13.436   4.044  13.746 -0.0595  0.0131 -0.0411
 6530W        W22147   8.716  16.080  11.592  0.2470 -0.1744  0.0353
 6531W        W22148   3.222   1.248  13.895  0.2158  0.0610 -0.1435
 6532W        W22149  12.314  13.170  14.869 -0.0113 -0.2787 -0.1211
 6533W        W22150  12.610   1.464  15.263 -0.3186  0.0321 -0.4350
 6534W        W22151  17.006   4.011  14.854  0.0508 -0.0501 -0.1327
 6535W        W22152   9.234  11.709   0.667 -0.1653 -0.0813 -0.1567
 6536W        W22153   4.061  12.090  11.926  0.1539  0.0299 -0.1792
 6537W        W22154   8.523  15.465   0.424 -0.0047 -0.0267  0.1027
 6538W        W22155   0.291   6.204  14.538 -0.2366  0.0490 -0.0882
 6539W        W22156  16.669  17.003  10.201 -0.0041  0.2775 -0.0771
 6540W        W22157   7.287   1.723  13.905 -0.1745 -0.0424  0.0683
 6541W        W22158  13.027   5.955   5.228 -0.1145 -0.2116  0.1426
 6542W        W22159  11.207  16.382   1.099  0.3379  0.3506 -0.1316
 6543W        W22160   2.505   8.670   9.516  0.3402  0.0109 -0.0094
 6544W        W22161   4.489   2.843  13.361  0.2142 -0.3417 -0.0165
 6545W        W22162  13.357   6.064  14.920 -0.4192 -0.1981  0.0139
 6546W        W22163   8.592   3.982  13.583 -0.0999 -0.1962  0.0234
 6547W        W22164  16.797  16.955   0.902  0.1894  0.5485  0.0778
 6548W        W22165   8.794  13.925  14.457  0.0324 -0.0135 -0.2805
 6549W        W22166  13.870   1.720  15.144 -0.0889 -0.1029  0.1361
 6550W        W22167   4.803  12.302  14.641  0.1811 -0.0457  0.1886
 6551W        W22168   7.125  10.378  15.651  0.0451 -0.0661 -0.1476
 6552W        W22169   5.994  16.682   1.960  0.2395 -0.2257 -0.0566
 6553W        W22170   1.598   0.122   1.526 -0.0269 -0.0808 -0.1487
 6554W        W22171   5.434   9.901   3.522  0.5216  0.0903 -0.4285
 6555W        W22172  18.536  16.797  11.933  0.1033  0.1857 -0.1197
 6556W        W22173  15.507   6.832   0.461  0.0351 -0.1260  0.2464
 6557W        W22174   2.615  13.626  10.899 -0.0489  0.3521  0.0277
 6558W        W22175  17.162  13.283  14.932 -0.0758  0.1842 -0.4104
 6559W        W22176   3.766   3.809  13.782 -0.0362  0.1648 -0.0680
 6560W        W22177  15.372   9.628  12.617  0.1904  0.1584  0.0350
 6561W        W22178   1.519  11.622  11.191 -0.2795 -0.1958  0.2804
 6562W        W22179   7.902   1.829   6.376 -0.1679 -0.1165  0.1979
 6563W        W22180   2.864   8.323  15.116  0.1916 -0.1222  0.0326
 6564W        W22181   9.663   0.774   4.536  0.0453 -0.0893  0.0953
 6565W        W22182   1.248   4.068  12.088 -0.0983  0.1891  0.2420
 6566W        W22183  15.813   1.353   1.892 -0.0312  0.0980 -0.1798
 6567W        W22184  17.630   4.176  11.115 -0.0434 -0.2498  0.3782
 6568W        W22185  11.909  16.323   4.597  0.3141 -0.1438  0.1644
 6569W        W22186   0.604   1.991  14.158 -0.1615 -0.1331  0.0296
 6570W        W22187   2.967   7.462   5.431 -0.1152  0.1418 -0.0459
 6571W        W22188  10.785   0.902   0.818 -0.1226  0.2095 -0.0514
 6572W        W22189  13.577   0.563   4.759  0.1670 -0.0870 -0.0455
 6573W        W22190  14.911   6.287   1.831 -0.0715 -0.1197  0.0225
 6574W        W22191   3.351  13.172  11.083 -0.3158 -0.2414  0.1182
 6575W        W22192  11.067   1.580   5.752 -0.1247  0.2398 -0.2023
 6576W        W22193   7.838  12.125  15.561  0.4887  0.1017  0.2440
 6577W        W22194   0.394  12.305   1.553 -0.2206  0.0109  0.0731
 6578W        W22195   7.465   3.833  12.237 -0.0500  0.2099  0.2014
 6579W        W22196  10.693   2.408   1.088  0.1749  0.2516  0.1498
 6580W        W22197  15.056  11.722   1.373  0.3086  0.2869 -0.0639
 6581W        W22198   6.692   3.468   1.803 -0.1330 -0.4157  0.2178
 6582W        W22199  12.073   2.135   2.385  0.0001 -0.0502 -0.1016
 6583W        W22200   0.937   0.093  12.301 -0.0205 -0.1610  0.2280
 6584W        W22201  14.640   1.766  12.897  0.2121 -0.3421 -0.0543
 6585W        W22202   8.992   0.816   4.355 -0.1135  0.1428 -0.4083
 6586W        W22203   0.969  16.526  14.073 -0.3379  0.2424 -0.1082
 6587W        W22204   4.058   9.658   4.717  0.1832 -0.0426 -0.1447
 6588W        W22205  10.329  12.040   5.210  0.1179 -0.0549 -0.0260
 6589W        W22206   4.113  12.291   2.126  0.4906 -0.0387 -0.0074
 6590W        W22207  17.073   6.028   4.238 -0.1532  0.0242 -0.3106
 6591W        W22208  18.226   0.714  12.370  0.3315  0.2138  0.0240
 6592W        W22209  14.510   9.130  15.261 -0.5691 -0.1064  0.1762
 6593W        W22210   9.761  17.341   1.358  0.0150  0.1304  0.0090
 6594W        W22211   7.133  12.142  14.379 -0.1414 -0.3227 -0.1378
 6595W        W22212  15.601   1.749   1.680 -0.0482 -0.0470 -0.1156
 6596W        W22213   7.953  17.477  12.319  0.2075  0.2657  0.2410
 6597W        W22214   6.559  11.603  13.193 -0.0559  0.1734 -0.0879
 6598W        W22215   9.717   5.509  14.542  0.2044 -0.0151  0.1400
 6599W        W22216   0.218   4.344   3.117  0.0942 -0.1711  0.0431
 6600W        W22217   1.728  10.654   9.535  0.0277 -0.1097 -0.4959
 6601W        W22218   7.821   8.391  12.000  0.3380 -0.3058 -0.0793
 6602W        W22219  14.444  14.962  15.465 -0.2350 -0.1888 -0.1283
 6603W        W22220   8.879   8.480  13.838 -0.0817  0.3586 -0.1684
 6604W        W22221  10.440  12.085  13.898  0.0142 -0.0334  0.1536
 6605W        W22222   2.212   2.317   1.992 -0.0343  0.0183 -0.5466
 6606W        W22223   1.276  18.482  12.698 -0.1060 -0.3141  0.1109
 6607W        W22224   2.008  15.739   5.480  0.0781  0.1074  0.1307
 6608W        W22225   7.492  11.281   4.622 -0.1315 -0.2229 -0.0867
 6609W        W22226   6.008  18.187   3.830 -0.1440 -0.0597 -0.0527
 6610W        W22227   7.620   7.151   2.117 -0.0726 -0.3146  0.1168
 6611W        W22228   0.773  13.844  14.369  0.1232  0.2367  0.0624
 6612W        W22229  16.382  14.428  13.308 -0.1026 -0.3200  0.1660
 6613W        W22230  15.981   6.820   1.014 -0.3570  0.2255 -0.3574
 6614W        W22231  13.916  10.157  12.934  0.0655  0.2167  0.0809
 6615W        W22232  18.136   9.761  13.259  0.3040 -0.1026 -0.2066
 6616W        W22233  17.083  10.957   3.193  0.1217  0.0601 -0.0612
 6617W        W22234  13.453  14.315  10.530 -0.2420 -0.2578 -0.0199
 6618W        W22235   1.874   5.268   5.209 -0.1307 -0.0498 -0.0772
 6619W        W22236   1.193   0.404   1.105  0.0225 -0.0277  0.1453
 6620W        W22237   1.730  10.613  14.081 -0.5064  0.0678  0.0858
 6621W        W22238  10.427   6.845   3.601 -0.0535  0.1227 -0.2589
 6622W        W22239   6.103  12.151   2.245  0.1945 -0.2259 -0.1246
 6623W        W22240   1.790   7.255  15.522 -0.0512  0.2310 -0.2128
 6624W        W22241  16.920   8.375   3.722 -0.1621 -0.1126 -0.0724
 6625W        W22242   7.046  17.748   3.943 -0.0914 -0.1515 -0.0002
 6626W        W22243  13.308  17.401  15.128 -0.0267 -0.0578 -0.0715
 6627W        W22244  18.166  12.930   1.167  0.1027  0.1346  0.1484
 6628W        W22245   6.674  18.296  11.873 -0.0542 -0.0143  0.2128
 6629W        W22246  16.869  10.736  10.745 -0.0861  0.1270 -0.1279
 6630W        W22247  17.827   7.281  10.972 -0.0927 -0.5400  0.3697
 6631W        W22248   8.474  15.618   3.981  0.1134  0.1581 -0.0680
 6632W        W22249   9.882   2.009  14.529  0.0221  0.0458  0.1155
 6633W        W22250   3.318   0.561  13.025  0.0051  0.0827 -0.0336
 6634W        W22251   7.458   5.100   0.101 -0.2044  0.1466 -0.1359
 6635W        W22252   2.491  12.930  13.213 -0.0418  0.1327 -0.1403
 6636W        W22253   4.801   0.913  15.068  0.1269  0.0317 -0.0906
 6637W        W22254  15.686  13.826   5.061  0.0309 -0.0276  0.0825
 6638W        W22255  17.537   4.821   5.290  0.1264 -0.3214  0.1879
 6639W        W22256   0.417   1.431   3.489 -0.3811  0.2240 -0.0097
 6640W        W22257   8.176  12.254  14.381 -0.0674 -0.0827  0.0568
 6641W        W22258   6.243  15.259   3.483 -0.1394  0.1815  0.2028
 6642W        W22259   6.444   4.253  15.543 -0.0319  0.0540 -0.1415
 6643W        W22260   4.482  14.672   9.862  0.1218 -0.2322  0.5609
 6644W        W22261   2.366   6.299   3.595 -0.1031  0.0863  0.0234
 6645W        W22262   1.221  11.260   1.581  0.0721  0.0630  0.4547
 6646W        W22263  11.351   5.689   2.792 -0.0290  0.2123 -0.0382
 6647W        W22264   5.506   9.451  14.526  0.2874  0.1872  0.0715
 6648W        W22265   2.602  11.072  14.405 -0.0518  0.0087  0.0934
 6649W        W22266  17.104   2.148  12.493 -0.0660  0.2744  0.0569
 6650W        W22267  10.304   6.047  15.680 -0.0084  0.1270 -0.0892
 6651W        W22268  14.250   6.511   2.903 -0.1492 -0.2242 -0.0193
 6652W        W22269  17.322   8.372   2.979 -0.0467  0.0847 -0.1435
 6653W        W22270  12.024  17.636   0.176 -0.3501  0.2146  0.1725
 6654W        W22271   8.326   6.653   3.006  0.0182  0.1115 -0.2746
 6655W        W22272   2.318  13.874   3.633 -0.0301  0.0681  0.0148
 6656W        W22273   8.853  11.883   5.313  0.1490 -0.2856  0.0118
 6657W        W22274   9.515  17.209   2.353  0.1236 -0.1843  0.0398
 6658W        W22275  15.790   7.354  13.666  0.0710  0.0155  0.1910
 6659W        W22276   2.158  12.208  10.369 -0.2878  0.3601  0.0231
 6660W        W22277  10.500  17.598   2.917  0.0010  0.1255  0.0974
 6661W        W22278   3.834   9.885   1.123  0.4073  0.1025 -0.1600
 6662W        W22279   9.503   6.544  11.840 -0.1259  0.0787  0.0415
 6663W        W22280  13.203  14.320  15.697 -0.3188  0.0385  0.1838
 6664W        W22281  12.995   8.807  14.523 -0.1826  0.2595 -0.1380
 6665W        W22282   0.022   7.195   4.492  0.0753  0.2126 -0.0937
 6666W        W22283  10.142   9.266  14.378 -0.1402  0.1952 -0.0277
 6667W        W22284   5.777   6.859   5.045  0.1584  0.0913 -0.0330
 6668W        W22285   9.404   5.980  11.290 -0.5328 -0.3760  0.2839
 6669W        W22286   9.215   9.556   2.801  0.2309  0.4268  0.0222
 6670W        W22287   3.062  15.154  13.637 -0.2615 -0.2999 -0.1857
 6671W        W22288   8.904  13.641  13.484  0.2591 -0.1192 -0.1197
 6672W        W22289   3.437  10.079  12.014  0.0091 -0.2726 -0.0348
 6673W        W22290   8.671   7.467  12.275  0.1790 -0.2102  0.0675
 6674W        W22291   5.894  16.493  13.314 -0.1029  0.0983  0.0816
 6675W        W22292  15.064   2.062   5.714  0.4428  0.0632 -0.1037
 6676W        W22293   3.721   1.181  14.958  0.0071 -0.0754  0.0364
 6677W        W22294   3.281  14.854   1.704 -0.1715  0.1450  0.0372
 6678W        W22295   2.672   6.419  15.742 -0.0258  0.0057 -0.1974
 6679W        W22296   9.222  18.010   6.009  0.1857 -0.1542 -0.1839
 6680W        W22297   5.335   7.959   2.558  0.0066  0.1405  0.3277
 6681W        W22298   3.987   7.841   5.345  0.2450 -0.0171  0.0680
 6682W        W22299  13.921   5.476  11.675 -0.1125  0.0057 -0.3402
 6683W        W22300  14.248  18.203   0.153  0.0221  0.1628  0.0260
 6684W        W22301   7.473  15.854  13.857  0.0316 -0.0358 -0.1501
 6685W        W22302   9.245  13.038   1.223  0.1014 -0.2250 -0.0968
 6686W        W22303  14.270  16.610  15.780 -0.1718 -0.1680  0.2924
 6687W        W22304   0.008   3.409   1.368  0.1250  0.0365 -0.0405
 6688W        W22305   6.771   5.725   3.173  0.1753  0.0763  0.4411
 6689W        W22306  12.262   8.880  12.991  0.0249  0.0206  0.3236
 6690W        W22307   8.965   1.978  14.221 -0.0655 -0.1835 -0.0210
 6691W        W22308   9.117   4.622  13.143  0.3435 -0.1099 -0.0973
 6692W        W22309  16.709  17.942   3.926  0.0385 -0.2074 -0.0733
 6693W        W22310   2.060   0.631   0.669  0.0734 -0.0870 -0.0600
 6694W        W22311  11.710   3.680  15.747 -0.2128  0.0126 -0.5117
 6695W        W22312   2.324   1.605   2.520  0.0599 -0.3713  0.0601
 6696W        W22313  12.297  16.343   0.155  0.0619  0.0930 -0.3712
 6697W        W22314   1.617   8.769  12.437 -0.3113 -0.0110 -0.3227
 6698W        W22315  15.844   3.983  15.512 -0.1019  0.0741 -0.0858
 6699W        W22316   9.487  17.099   5.232 -0.3703  0.1743  0.2390
 6700W        W22317  16.026   8.897   5.108 -0.1998 -0.0554  0.2802
 6701W        W22318   9.410  12.138  13.965  0.1498 -0.0897 -0.0500
 6702W        W22319   6.260   4.166  13.685  0.3786 -0.0912 -0.4676
 6703W        W22320  18.577  12.477  14.788  0.2348 -0.1423 -0.0901
 6704W        W22321  11.186  12.105  12.597  0.1132  0.1860 -0.0076
 6705W        W22322  15.575   5.410   3.512 -0.3488 -0.3553  0.0047
 6706W        W22323   1.783   5.913   4.377 -0.0984 -0.3464  0.0994
 6707W        W22324   1.256   9.674   3.090  0.0227 -0.2624  0.0457
 6708W        W22325   3.626   7.455  12.257  0.2913 -0.3104 -0.1443
 6709W        W22326  10.629   6.316   3.247 -0.1293 -0.0437 -0.2727
 6710W        W22327   1.299  18.160  15.012  0.2168 -0.0111  0.2422
 6711W        W22328   8.999   3.771  12.711  0.1101 -0.1353 -0.0808
 6712W        W22329   8.015  13.501   1.122  0.1753 -0.1028  0.2074
 6713W        W22330   3.330  13.758  11.908 -0.0185  0.1196  0.1269
 6714W        W22331   5.491   7.426  12.616 -0.1022 -0.2019  0.1571
 6715W        W22332   0.684  10.628   2.210  0.0404 -0.1622  0.0301
 6716W        W22333  11.524  11.650   4.608 -0.3234 -0.1312 -0.1853
 6717W        W22334  18.471   8.949  14.198 -0.1161 -0.0508 -0.2083
 6718W        W22335   7.697   9.981   0.564  0.1126  0.1240 -0.0038
 6719W        W22336   3.033  10.111  14.438 -0.1760 -0.3226 -0.2360
 6720W        W22337  16.094   0.397   4.265 -0.1239 -0.1183  0.0734
 6721W        W22338  13.646   4.487   3.715 -0.0292  0.3423 -0.2157
 6722W        W22339  14.726  18.399  15.758 -0.0097 -0.0590 -0.2649
 6723W        W22340  12.052  17.954  12.689 -0.0924 -0.0167 -0.0835
 6724W        W22341   7.497   5.356   1.050 -0.4693  0.0417  0.1620
 6725W        W22342  11.267   8.343  13.396  0.1016 -0.0967  0.1456
 6726W        W22343  17.373   1.316   2.810  0.1494  0.0051 -0.0089
 6727W        W22344  18.584  11.535  13.758 -0.0224 -0.1035  0.0735
 6728W        W22345  12.330  17.685  11.477 -0.0674 -0.3082 -0.2076
 6729W        W22346  10.715  10.778  11.164 -0.1125  0.0159 -0.0570
 6730W        W22347   6.334  12.841  13.077  0.0797  0.0132  0.2971
 6731W        W22348  14.291  17.895   5.520 -0.1265  0.5357 -0.1017
 6732W        W22349  17.107  14.847  15.424 -0.2551  0.2752 -0.1442
 6733W        W22350   0.499   7.373  10.568  0.0950 -0.0859  0.1092
 6734W        W22351   4.449   8.179   1.839 -0.1288 -0.1016  0.2331
 6735W        W22352  12.183  16.096  15.420 -0.0765 -0.0549 -0.3253
 6736W        W22353  12.287  13.094   3.274 -0.4176  0.1788  0.1430
 6737W        W22354  17.433   8.084   2.565 -0.0562 -0.0027 -0.0432
 6738W        W22355   4.276   2.316   2.323  0.2814  0.1989 -0.1477
 6739W        W22356   5.409   6.703  14.054 -0.1553  0.3371 -0.1164
 6740W        W22357  13.076   1.881   5.835 -0.2461 -0.2054  0.0135
 6741W        W22358  10.267  18.197   5.237 -0.0657  0.1138 -0.0447
 6742W        W22359   0.672   0.477  12.560  0.0186  0.3148 -0.2406
 6743W        W22360   4.453   2.298  14.873 -0.0689 -0.0489  0.0905
 6744W        W22361   5.454   1.967   3.674  0.0935 -0.2803  0.0087
 6745W        W22362   1.609   4.308  13.490 -0.1848 -0.0370 -0.2300
 6746W        W22363   2.637   0.964   0.928  0.0767 -0.0123 -0.2869
 6747W        W22364  16.609   8.585   2.926  0.2864  0.4742 -0.1002
 6748W        W22365  17.323  11.282   4.780  0.2559 -0.1747 -0.0835
 6749W        W22366   7.624  13.024  13.372  0.1790  0.2972 -0.2081
 6750W        W22367   2.372   2.768   2.200 -0.1630 -0.1901 -0.2534
 6751W        W22368  10.782  12.508  11.939  0.0384  0.2320  0.0550
 6752W        W22369   7.354   4.584   0.239  0.0672 -0.3232  0.1663
 6753W        W22370   6.987   6.005   2.784  0.0133  0.0472  0.3161
 6754W        W22371  10.155  10.541   0.171 -0.1605  0.2087  0.1594
 6755W        W22372  17.293  16.196   3.438 -0.1002 -0.1183  0.0447
 6756W        W22373   3.315   1.748   2.740 -0.1953 -0.0112  0.0969
 6757W        W22374   4.059   2.588  12.988  0.0885  0.2920  0.0915
 6758W        W22375   0.975  13.184  14.455  0.1292  0.0397 -0.0657
 6759W        W22376  10.917   8.656  14.182  0.0846 -0.0306  0.1186
 6760W        W22377  14.439  17.211   1.731  0.0625 -0.2001 -0.0946
 6761W        W22378   7.919   9.975  13.141 -0.0121  0.1462  0.3462
 6762W        W22379  15.601   7.433  11.135 -0.0592  0.0259 -0.1121
 6763W        W22380   6.718  18.225  13.297  0.2916 -0.1131 -0.0260
 6764W        W22381  16.520   9.875   5.463  0.0235 -0.3955 -0.1129
 6765W        W22382   4.187   3.868  13.512  0.1720  0.2510 -0.0870
 6766W        W22383   7.581  11.022  14.275 -0.1693  0.1042 -0.3038
 6767W        W22384   1.741   8.428   1.229 -0.2411 -0.1099  0.3543
 6768W        W22385  17.676   6.954   2.723 -0.1243 -0.1091 -0.0939
 6769W        W22386  16.664   4.920   0.493 -0.0070  0.1717 -0.4630
 6770W        W22387   7.867  15.490  12.911 -0.1000 -0.0136  0.0620
 6771W        W22388  10.975  17.270   2.016  0.2613 -0.1498 -0.0678
 6772W        W22389   4.089  17.981  13.054  0.3096  0.2890  0.2314
 6773W        W22390  14.651  10.633   3.251 -0.0611 -0.5070  0.0065
 6774W        W22391  17.711   6.552   1.276 -0.1699 -0.1449  0.3628
 6775W        W22392   7.495  16.778   5.054 -0.0062  0.1002  0.1593
 6776W        W22393  13.731   3.211  12.833 -0.1382 -0.1129  0.1102
 6777W        W22394   5.591  14.744   4.500 -0.0883 -0.0702  0.2249
 6778W        W22395   0.972   5.981   3.678  0.0595 -0.1085  0.1527
 6779W        W22396   3.071   2.112   2.135 -0.0089  0.0809 -0.0856
 6780W        W22397   8.952  14.610   0.471 -0.1635  0.1941  0.0691
 6781W        W22398   5.186   2.305  13.169 -0.0146  0.0008 -0.1175
 6782W        W22399   5.476   3.790   6.295 -0.0619 -0.1960 -0.2215
 6783W        W22400   8.535  10.939  10.577 -0.1001  0.1287  0.0420
 6784W        W22401   4.251  17.146  14.175  0.0045 -0.2392  0.1512
 6785W        W22402  18.631  10.736  14.100 -0.2840  0.0132 -0.1688
 6786W        W22403  15.763  10.675  11.037 -0.4311  0.3402 -0.1834
 6787W        W22404   6.933  16.470   0.769  0.3008  0.1243 -0.1113
 6788W        W22405  12.514  11.101   5.576  0.1089  0.1403  0.2566
 6789W        W22406   5.697   1.303  13.365 -0.0063  0.0741  0.0370
 6790W        W22407   8.505  11.904  11.245  0.0179 -0.1399 -0.0634
 6791W        W22408   2.855   1.449  14.141 -0.0170  0.4116  0.1571
 6792W        W22409  16.971  14.121  14.259  0.2797  0.1958  0.1430
 6793W        W22410   7.289   6.556   5.138 -0.4173 -0.0291  0.0878
 6794W        W22411  13.154  10.102   9.782 -0.3180  0.2026 -0.4353
 6795W        W22412  11.526  14.245  13.742 -0.2679 -0.3036 -0.1223
 6796W        W22413  12.688   7.495  13.824 -0.1570 -0.4419  0.1277
 6797W        W22414   5.342   4.646  15.416  0.3749 -0.0153 -0.0479
 6798W        W22415  18.565  18.264   1.290  0.0030 -0.0552 -0.2642
 6799W        W22416   4.921   1.099  14.035  0.0311  0.0092 -0.1484
 6800W        W22417   1.583   0.163  11.400 -0.1739 -0.2424  0.0989
 6801W        W22418  17.533   9.040  15.595  0.1174 -0.2397  0.0289
 6802W        W22419   2.627  15.994   1.699  0.1172 -0.3353 -0.0603
 6803W        W22420  18.236   3.410  14.699  0.1586  0.1947  0.1990
 6804W        W22421   4.444  15.558   3.550 -0.0443 -0.1576  0.2513
 6805W        W22422  15.733  11.071  10.748  0.0055 -0.1234 -0.2197
 6806W        W22423  11.860   4.262   0.952 -0.2793 -0.0896  0.3899
 6807W        W22424  16.825  12.496  14.363 -0.1005  0.5141 -0.0922
 6808W        W22425   5.462   3.177  15.381  0.2038 -0.0707  0.1766
 6809W        W22426   2.687  12.257   1.625  0.0929 -0.0371 -0.2411
 6810W        W22427  10.886   3.952  12.554 -0.0300 -0.0010  0.0169
 6811W        W22428   2.401   1.468  14.341 -0.1529  0.1025  0.0031
 6812W        W22429  16.662  13.519   1.812  0.1342 -0.0026  0.4089
 6813W        W22430  16.544  13.462   0.851 -0.3309 -0.2299 -0.0848
 6814W        W22431   2.808  16.499   0.837  0.1468 -0.0899  0.1698
 6815W        W22432   3.961  10.169   1.565 -0.1269  0.1261 -0.0974
 6816W        W22433   8.700  12.062   4.773 -0.3784 -0.2195  0.0777
 6817W        W22434   7.393   7.598  14.030  0.2186  0.0029 -0.0401
 6818W        W22435  16.058   2.049   3.587  0.2487 -0.0853  0.1069
 6819W        W22436   4.197  16.045   3.706  0.1887  0.0866 -0.1933
 6820W        W22437   5.688   3.484  11.943  0.0597 -0.1715 -0.2210
 6821W        W22438   9.653   2.284   0.084  0.1250 -0.0940  0.3456
 6822W        W22439   1.644  13.792  12.730 -0.1583  0.2424 -0.1247
 6823W        W22440   4.936   6.218  15.750  0.3433  0.1110 -0.0449
 6824W        W22441   3.539  14.363  14.727  0.2950 -0.1913 -0.0231
 6825W        W22442   8.512   8.441   1.904 -0.2267 -0.0510 -0.0110
 6826W        W22443   2.738  18.494  12.652  0.0998 -0.0170 -0.0554
 6827W        W22444  11.780   2.363  11.864  0.1703  0.0251 -0.0098
 6828W        W22445  13.475  15.325   0.113  0.4244  0.2414  0.2270
 6829W        W22446  16.880   3.138  15.111  0.5399 -0.1672 -0.2129
 6830W        W22447  15.930  14.714   3.249 -0.2012 -0.0456  0.2154
 6831W        W22448   2.169  18.166   2.002 -0.3362 -0.1746 -0.2908
 6832W        W22449  14.725  18.016  14.220  0.0121 -0.0751 -0.0037
 6833W        W22450  14.832  10.561  10.903  0.0154 -0.2338 -0.0812
 6834W        W22451  17.832   9.722  12.817 -0.3483  0.1314  0.4586
 6835W        W22452  15.052  16.287  12.652  0.0604  0.1502  0.1539
 6836W        W22453   6.170  17.773   3.611 -0.2004  0.0644 -0.0763
 6837W        W22454   3.555  11.413   0.204 -0.0181 -0.5624  0.0941
 6838W        W22455  10.200   5.214   2.155 -0.2569  0.2887 -0.4262
 6839W        W22456   5.205   6.250  13.840  0.0177 -0.0499 -0.0822
 6840W        W22457  16.333  12.806   2.067  0.1252 -0.1990  0.1177
 6841W        W22458  16.918  11.390   5.123 -0.2860 -0.2982 -0.3854
 6842W        W22459   1.960  14.828  14.027  0.0709 -0.0352  0.4037
 6843W        W22460  11.369  12.984   2.105  0.2695 -0.0666  0.0021
 6844W        W22461   9.893  18.318   2.954  0.2768 -0.1210  0.1477
 6845W        W22462  13.206  13.849  15.424  0.0616  0.2331 -0.1921
 6846W        W22463   0.494  15.130  12.484  0.1986  0.1027 -0.2519
 6847W        W22464  12.627   9.303  14.627 -0.0912  0.1850  0.1296
 6848W        W22465  10.211  13.592   0.267 -0.3018 -0.1717  0.1163
 6849W        W22466   1.030   7.350  11.249 -0.2350 -0.0014 -0.3391
 6850W        W22467   3.617   6.470   0.179  0.1040  0.0517 -0.0040
 6851W        W22468  13.488  10.301   1.045 -0.0815 -0.2770  0.1766
 6852W        W22469  12.543  17.103   5.365  0.0279 -0.1700 -0.0146
 6853W        W22470   6.483   0.254   3.137  0.2426  0.2039 -0.0741
 6854W        W22471   4.479  17.540  13.196  0.0879 -0.3481 -0.1887
 6855W        W22472   7.770   2.195   2.247 -0.0291 -0.0610 -0.3161
 6856W        W22473  10.821  18.398  11.620  0.0670  0.2266  0.1200
 6857W        W22474  15.369  16.089   5.475 -0.1240 -0.1174 -0.1108
 6858W        W22475  12.250   4.109  13.360  0.2536 -0.0156 -0.1189
 6859W        W22476   4.785   0.386  11.503  0.0611  0.0295  0.2701
 6860W        W22477  17.382   8.841  13.016 -0.1490  0.0958 -0.0054
 6861W        W22478  10.749   8.968   1.064  0.0739 -0.2151 -0.0976
 6862W        W22479   2.763   3.105   4.537  0.0556 -0.0919  0.1988
 6863W        W22480  13.287   8.341  11.093  0.0075  0.0961  0.2923
 6864W        W22481   4.801   3.411  14.764 -0.0746 -0.1663  0.0838
 6865W        W22482   6.508   8.541  11.390 -0.0983  0.0701  0.2762
 6866W        W22483   8.927   1.435   2.687  0.0907 -0.1375 -0.1127
 6867W        W22484  18.440  12.024  14.823  0.0820 -0.0746 -0.1298
 6868W        W22485   7.808   8.650   4.330  0.0504 -0.0709  0.2247
 6869W        W22486   4.977   6.631   2.061 -0.0797 -0.1083 -0.1438
 6870W        W22487   7.267  14.934   1.400  0.0652  0.0344 -0.3664
 6871W        W22488  17.134   2.036  11.945 -0.1621 -0.1108 -0.0408
 6872W        W22489   6.482  15.171  15.469  0.0769  0.6570  0.2158
 6873W        W22490   3.369   4.897  14.571  0.1407  0.0742  0.1298
 6874W        W22491   8.043   6.169   2.310 -0.3091  0.1926  0.0352
 6875W        W22492   9.775   7.804  11.686 -0.0473 -0.0400 -0.3243
 6876W        W22493   4.042  11.590  13.671 -0.1024  0.2266 -0.0734
 6877W        W22494   7.940  13.108  14.030 -0.0526 -0.1808 -0.2616
 6878W        W22495  11.215   7.396  12.053  0.1145  0.0247  0.2006
 6879W        W22496   2.561  13.188  15.518 -0.0320  0.3892  0.0063
 6880W        W22497  14.929   1.018   0.837 -0.1498 -0.0110  0.0460
 6881W        W22498  11.647   4.350   3.239 -0.2086  0.2094  0.0711
 6882W        W22499   8.544   8.946   1.556 -0.0729  0.0129  0.0238
 6883W        W22500   6.768  14.577  12.810 -0.1965 -0.3570  0.1755
 6884W        W22501  16.476  10.963   3.884  0.0696  0.3355 -0.0301
 6885W        W22502   4.782   2.384   2.191 -0.1058 -0.0784 -0.2058
 6886W        W22503   0.626  13.382  13.491  0.2710  0.0234  0.1039
 6887W        W22504   0.360   5.172   0.837  0.1696 -0.1014  0.1218
 6888W        W22505   6.148  16.357  12.099  0.3975  0.1362  0.3015
 6889W        W22506  16.603   7.894   5.051  0.1423 -0.0487  0.3344
 6890W        W22507   6.419  12.209   4.383  0.1674  0.2468  0.2022
 6891W        W22508   3.738   3.143   0.111 -0.1137 -0.0660 -0.1468
 6892W        W22509  16.494  13.796   5.340  0.0160  0.1477 -0.3192
 6893W        W22510   9.013   6.509  12.649  0.1312 -0.1694 -0.0578
 6894W        W22511  10.788  15.968  12.438  0.2160 -0.1379  0.2995
 6895W        W22512  10.195   7.247  13.960  0.1958  0.2133  0.3303
 6896W        W22513   4.169   5.552  11.773  0.0029  0.2837 -0.0655
 6897W        W22514   4.006   4.001   6.007 -0.0044  0.2260 -0.1655
 6898W        W22515  11.503   0.523   4.225 -0.1653  0.3168  0.0073
 6899W        W22516  14.225  10.891   1.036 -0.1192  0.2548  0.0657
 6900W        W22517   3.237  17.197   4.124  0.2106  0.2139 -0.2307
 6901W        W22518   9.947  18.088   1.934  0.0307 -0.1562  0.1895
 6902W        W22519  14.565  11.189   9.867 -0.2059 -0.1033  0.1530
 6903W        W22520   3.880   5.598   2.941  0.1377 -0.0854  0.1842
 6904W        W22521  13.872   2.806   3.755  0.0157  0.4434 -0.0840
 6905W        W22522  12.052  12.719  13.811 -0.0887  0.1908  0.0928
 6906W        W22523  11.340   0.479  13.352 -0.0206 -0.1669  0.2714
 6907W        W22524   0.882  15.095  13.314  0.1702  0.0789  0.0027
 6908W        W22525  15.107   0.049  11.866  0.4496  0.3398  0.1207
 6909W        W22526  10.988   8.153  15.631 -0.1751 -0.0073 -0.1204
 6910W        W22527  16.143  16.330   5.472  0.2047 -0.1169  0.1663
 6911W        W22528  13.271  16.364  11.561  0.0433 -0.0806  0.1338
 6912W        W22529   9.120   7.265   3.774  0.0407 -0.1988  0.4349
 6913W        W22530  14.177  11.811  10.925 -0.3055  0.1314 -0.0307
 6914W        W22531  15.310   0.391  15.059  0.0268  0.1797 -0.1163
 6915W        W22532   9.118  16.029   1.431 -0.2162 -0.2570  0.0304
 6916W        W22533   2.197   2.157   0.387  0.0450  0.1611 -0.1128
 6917W        W22534   2.856   9.523  11.648 -0.3757  0.0597  0.0906
 6918W        W22535  18.422  10.556  13.530 -0.1985  0.1693  0.1342
 6919W        W22536  11.231  15.920   0.804  0.0200  0.2598 -0.0737
 6920W        W22537  15.302   2.397  13.172 -0.2469 -0.2178  0.2836
 6921W        W22538  10.779   0.383  13.255  0.1636 -0.0442 -0.0085
 6922W        W22539   0.196   3.416  12.211 -0.1006  0.2803  0.0114
 6923W        W22540   6.123   8.377   9.801  0.3866  0.4124 -0.1743
 6924W        W22541  14.958   5.293   0.298 -0.1331  0.1493 -0.0950
 6925W        W22542   8.967   8.440   2.132 -0.1439  0.0125  0.1072
 6926W        W22543   1.503  13.394   3.514 -0.0653 -0.1360 -0.1843
 6927W        W22544  12.270  16.963  12.876  0.0120  0.1246  0.0455
 6928W        W22545   6.292   5.695  12.210 -0.0691 -0.1069  0.0263
 6929W        W22546   7.412  15.026   4.948  0.1026  0.2463  0.2890
 6930W        W22547  11.701  10.613   4.135 -0.0770 -0.2282 -0.2131
 6931W        W22548  18.487  14.456   4.541  0.2722  0.1948  0.0470
 6932W        W22549  14.823   7.355   0.327  0.0028  0.3256  0.1074
 6933W        W22550   0.609   5.142  14.268  0.2642  0.0417  0.1017
 6934W        W22551   0.266  12.394   2.061  0.0697 -0.1050  0.4848
 6935W        W22552   8.048  14.212  14.913 -0.2034 -0.0951 -0.1070
 6936W        W22553  18.385   7.651   2.526  0.1076  0.0425  0.1721
 6937W        W22554   4.568   6.137  15.422 -0.1485 -0.3867  0.0213
 6938W        W22555  11.120   7.281   5.195 -0.0358  0.3102  0.0309
 6939W        W22556   0.007  15.337   0.777  0.0012 -0.2286 -0.1986
 6940W        W22557  14.417   7.265  12.859 -0.4228 -0.0649 -0.0050
 6941W        W22558   9.466   2.142   3.741 -0.3818  0.2604  0.3083
 6942W        W22559  16.623   8.575  13.959  0.2315  0.1378 -0.0947
 6943W        W22560  17.085   0.916  15.369  0.0423 -0.1442  0.3225
 6944W        W22561  14.649   0.635   2.133 -0.2775 -0.2008 -0.1034
 6945W        W22562   4.009  14.067   0.773  0.0291  0.2866  0.0600
 6946W        W22563   3.539   6.465   0.663 -0.1493 -0.0378 -0.3436
 6947W        W22564  12.634   9.633  14.126 -0.0044 -0.0977 -0.2503
 6948W        W22565   7.244   0.319  12.985  0.2688 -0.0082 -0.4639
 6949W        W22566   0.380  11.152   1.500  0.1674 -0.0760 -0.0304
 6950W        W22567   9.524  17.428  11.406 -0.4180  0.2939 -0.2722
 6951W        W22568   4.841  13.850  10.919  0.0960  0.0404  0.1399
 6952W        W22569  11.318   0.974   5.589 -0.3268  0.0394  0.0623
 6953W        W22570  11.142  10.901  14.099 -0.0602  0.1921  0.1127
 6954W        W22571   2.158  13.038  15.151 -0.4370 -0.3132  0.3276
 6955W        W22572   6.135  15.121   2.476  0.3482 -0.2900 -0.0602
 6956W        W22573  11.605  12.964  11.039  0.2407  0.0529 -0.0764
 6957W        W22574  14.555   6.760  14.606  0.2392 -0.0132  0.1892
 6958W        W22575  12.966  18.179   3.500 -0.0416  0.0014  0.3088
 6959W        W22576   3.357  12.803   4.535 -0.0194 -0.0923 -0.0007
 6960W        W22577  11.051  10.206   1.188 -0.2669  0.0222  0.1570
 6961W        W22578   5.526   4.634   4.096 -0.0417 -0.0450  0.1315
 6962W        W22579   3.901   3.054  11.174 -0.3192 -0.3783 -0.1566
 6963W        W22580   3.868  17.223   1.763  0.0383  0.1403  0.0394
 6964W        W22581  10.942  18.339  14.485 -0.0495 -0.1076 -0.0499
 6965W        W22582   3.360  13.845  13.718  0.4117  0.1386  0.3289
 6966W        W22583   7.506   8.330   3.417  0.0040  0.0529 -0.2626
 6967W        W22584   9.107   3.636   2.971  0.1115 -0.1057  0.0119
 6968W        W22585  10.039  16.523  13.336  0.0976  0.1634  0.2893
 6969W        W22586  13.885   3.669   1.992 -0.1289  0.0387 -0.1032
 6970W        W22587  10.156  12.589  13.976 -0.1331  0.0530  0.0726
 6971W        W22588  16.205   8.956   1.403 -0.0820 -0.0716 -0.3474
 6972W        W22589  10.229   1.405   4.195 -0.3429 -0.2605 -0.0037
 6973W        W22590   2.596   7.356  12.088  0.0558 -0.0018 -0.1031
 6974W        W22591  15.015   9.569  15.009 -0.0897  0.0091 -0.0677
 6975W        W22592  18.429   0.827   2.101  0.2167  0.0430  0.0172
 6976W        W22593  10.977   9.379  10.882  0.1181  0.2089  0.5024
 6977W        W22594  18.221  17.033   1.005 -0.4512  0.1170  0.4563
 6978W        W22595   8.262   9.863   1.799 -0.0180  0.2625  0.1004
 6979W        W22596   1.778   1.923   4.946  0.1006 -0.2862  0.1152
 6980W        W22597  17.926  17.212   5.024 -0.0473 -0.0395  0.3485
 6981W        W22598   4.558   7.548   0.355 -0.1384 -0.2593  0.0771
 6982W        W22599   0.963  10.764   3.504  0.0449  0.1757 -0.0587
 6983W        W22600  12.573  17.832   2.507 -0.0102  0.1746 -0.1336
 6984W        W22601   6.475   9.819   0.234 -0.4394 -0.0540  0.0404
 6985W        W22602   3.684  11.927  13.508 -0.1376  0.0084 -0.1628
 6986W        W22603  17.743   9.398  13.316 -0.0974  0.2688  0.0075
 6987W        W22604   6.892  11.251  11.447  0.2231 -0.2015 -0.0796
 6988W        W22605   1.599  17.221  13.528 -0.1343 -0.1731  0.0619
 6989W        W22606   9.114   8.746  13.388 -0.1601 -0.3104  0.0071
 6990W        W22607   9.687  12.291   4.877 -0.0069 -0.0460 -0.1149
 6991W        W22608   4.542   7.577  12.863 -0.0738 -0.2329 -0.0054
 6992W        W22609   7.689  14.746   4.708  0.2521  0.0738  0.0761
 6993W        W22610   3.504  18.528   0.471 -0.1729  0.3481 -0.0816
 6994W        W22611   8.361   6.272  13.199 -0.4161  0.0276  0.1840
 6995W        W22612   1.077  13.957  11.405 -0.0406  0.1163 -0.1050
 6996W        W22613  16.773  12.270   5.122  0.0287 -0.2302  0.0107
 6997W        W22614   4.491  14.644   1.391  0.1013 -0.0137  0.2239
 6998W        W22615  14.232   3.250  12.594  0.4308 -0.0392 -0.0998
 6999W        W22616   3.443  10.666  11.165 -0.2230  0.3749 -0.1928
 7000W        W22617  17.817  15.390  12.481  0.0225 -0.1611 -0.0988
 7001W        W22618  17.995   3.002   5.090  0.1972 -0.1132 -0.3102
 7002W        W22619   0.353   6.342  15.387 -0.0171  0.1072 -0.3380
 7003W        W22620  15.807  14.457   1.466  0.0598 -0.1411  0.0461
 7004W        W22621  12.294   6.784   4.143  0.1022 -0.1332 -0.3494
 7005W        W22622  17.882   0.985  13.688  0.0844 -0.1267 -0.0418
 7006W        W22623  14.939   6.884   1.465 -0.1255  0.0506 -0.5205
 7007W        W22624   4.475   7.131  12.733  0.1335 -0.0188  0.0182
 7008W        W22625  10.627  18.034  11.120 -0.1856 -0.0114 -0.0321
 7009W        W22626   3.516   9.048  14.773 -0.2024 -0.1222 -0.2022
 7010W        W22627  17.407   5.347   1.624  0.3091 -0.1274  0.0875
 7011W        W22628  11.245  18.524  13.557 -0.0258  0.2393  0.1668
 7012W        W22629  15.303   7.236   3.769 -0.1096  0.0029  0.0192
 7013W        W22630   0.434  11.846  15.522 -0.0322 -0.0851 -0.1898
 7014W        W22631   4.641  17.168  14.787 -0.0537 -0.1308 -0.0534
 7015W        W22632   0.656   6.653  11.533  0.2174  0.0004 -0.2351
 7016W        W22633  13.969  14.839  10.928  0.2588 -0.0079 -0.0837
 7017W        W22634   9.405   9.162  15.452 -0.0452 -0.0705  0.0882
 7018W        W22635  10.587   7.169  14.289  0.0517 -0.3114 -0.2254
 7019W        W22636   1.265  12.304  15.269 -0.0875  0.0968 -0.0361
 7020W        W22637   0.445   6.945   0.529 -0.1903 -0.1419 -0.1448
 7021W        W22638   0.963  12.720  15.210 -0.1121 -0.0537 -0.2061
 7022W        W22639   8.015   8.951   4.020 -0.0705  0.1745 -0.1538
 7023W        W22640   8.873   2.999   0.979  0.0303  0.0120 -0.1518
 7024W        W22641  13.635  10.815   9.740  0.0237 -0.1101  0.0401
 7025W        W22642   7.578  12.218   2.676 -0.2152  0.6359 -0.2019
 7026W        W22643   4.707   1.187   1.045 -0.2037 -0.0316  0.2222
 7027W        W22644   5.581   2.443   5.159  0.2536 -0.1660 -0.1099
 7028W        W22645   8.004   5.307   0.483  0.2109  0.0790  0.4407
 7029W        W22646   4.961  16.854  13.363  0.1577  0.0777 -0.0332
 7030W        W22647   0.676   3.425   5.686 -0.1015  0.1604 -0.0669
 7031W        W22648   0.995  10.971   2.520  0.2668 -0.1321  0.2252
 7032W        W22649   3.866   0.271   0.311 -0.1675 -0.1003 -0.0535
 7033W        W22650   8.317  17.282   9.970  0.1394  0.1536 -0.0939
 7034W        W22651  18.628  11.715   1.082  0.0293  0.2047 -0.5387
 7035W        W22652  10.510   5.780   6.297 -0.0216  0.2467  0.0767
 7036W        W22653  12.061   5.840  14.506 -0.0281 -0.2755 -0.0400
 7037W        W22654  12.291  14.290  12.282  0.0012  0.1630 -0.0462
 7038W        W22655   3.924   0.253   2.628  0.2910 -0.1296 -0.0539
 7039W        W22656   7.321   7.894   4.789  0.1468 -0.0239  0.1515
 7040W        W22657   2.873  16.867  11.844  0.2090 -0.0588 -0.0314
 7041W        W22658  15.728   2.825   2.249 -0.0689 -0.2689  0.1484
 7042W        W22659  14.744   0.807  13.418  0.0400 -0.4331  0.0909
 7043W        W22660  10.904  15.193   3.439  0.1445 -0.1371  0.3786
 7044W        W22661   6.246  10.275   0.438  0.3749 -0.1774  0.1409
 7045W        W22662   8.042   4.433  15.260  0.1152  0.0512  0.1282
 7046W        W22663   0.280   4.831   3.473 -0.0195  0.3822 -0.2628
 7047W        W22664   8.400  12.116   4.370  0.3067 -0.1659 -0.0107
 7048W        W22665   8.325   9.269   0.367  0.3192 -0.1012 -0.0163
 7049W        W22666  16.950   3.756   0.798  0.2090  0.1647 -0.3762
 7050W        W22667   8.729  10.866   4.156  0.0339  0.0046  0.1857
 7051W        W22668  11.744  15.142   0.445 -0.0149  0.0433 -0.0707
 7052W        W22669   1.055   0.389  13.887  0.1918 -0.0238  0.0890
 7053W        W22670   3.838  13.386   0.129  0.2398  0.0136  0.1287
 7054W        W22671   8.928   3.983  12.194  0.0181 -0.1341 -0.1678
 7055W        W22672   8.652   4.155  11.471 -0.2122 -0.0447 -0.0279
 7056W        W22673   2.332  15.021  13.023 -0.2849  0.1467 -0.2458
 7057W        W22674   0.198  10.963   4.350  0.0508 -0.1128 -0.2603
 7058W        W22675   0.174   4.831   2.894  0.0080  0.0673  0.1759
 7059W        W22676   1.619   8.903  12.930  0.0956 -0.3092 -0.0267
 7060W        W22677  12.013   5.137   5.421  0.0647  0.0290  0.0101
 7061W        W22678   0.334   5.841  14.232 -0.1639  0.1359 -0.1383
 7062W        W22679   7.627   3.863  11.096 -0.3514  0.0637  0.1855
 7063W        W22680   5.790   3.654  14.855 -0.2799 -0.1249  0.1631
 7064W        W22681   7.760   2.800   0.341  0.5527  0.0484  0.1870
 7065W        W22682  16.110   2.251  14.480 -0.1376  0.1758 -0.0712
 7066W        W22683  15.759   7.683   4.049  0.4166  0.0957  0.2095
 7067W        W22684   0.310  13.929   4.646  0.1560  0.2437 -0.0547
 7068W        W22685   2.222   3.142   1.085 -0.1289  0.0719 -0.1955
 7069W        W22686  17.090   9.602   2.111  0.0122 -0.0380 -0.0301
 7070W        W22687  12.831  10.584   1.363  0.1573  0.2441 -0.0010
 7071W        W22688   2.958   7.087   0.457 -0.2094  0.0460 -0.1436
 7072W        W22689   2.163  14.683  14.532  0.1680 -0.0503 -0.1347
 7073W        W22690   3.201   2.370   1.668  0.2095 -0.0831 -0.0664
 7074W        W22691   8.151  14.455  14.501 -0.0487 -0.1139 -0.2904
 7075W        W22692  13.728   6.799  11.392  0.1098 -0.1092 -0.0267
 7076W        W22693   5.287  18.108   1.165  0.1225 -0.1396  0.1602
 7077W        W22694   5.974   8.109   5.322 -0.0272 -0.1356 -0.0647
 7078W        W22695  11.011   8.419   2.903  0.0754 -0.1210  0.1007
 7079W        W22696  17.207  17.879   4.645 -0.0411  0.0280 -0.1486
 7080W        W22697   0.490  11.657  13.620 -0.2163 -0.0987 -0.0448
 7081W        W22698   3.270   1.756  14.078 -0.0290  0.0037 -0.3115
 7082W        W22699  14.095  17.879   4.576 -0.2617 -0.2943  0.1869
 7083W        W22700  12.479  16.046  14.429 -0.3038 -0.1713  0.1829
 7084W        W22701  12.212   0.712   0.695 -0.2409  0.1031  0.0102
 7085W        W22702  15.620   3.653  14.277 -0.1132  0.1584 -0.0061
 7086W        W22703  16.892   4.779  12.504  0.1302 -0.0684  0.1633
 7087W        W22704  18.227  10.823   0.532 -0.1171 -0.2103  0.1246
 7088W        W22705  14.906  14.216  13.210 -0.2708 -0.3616 -0.3179
 7089W        W22706  11.621   3.219  12.186  0.3146 -0.0405  0.0013
 7090W        W22707   9.196   0.728  12.178 -0.2361 -0.3273 -0.1666
 7091W        W22708   8.596   6.935   4.556  0.0411  0.0280 -0.3229
 7092W        W22709   2.863  16.319  11.431  0.1223 -0.1403 -0.0545
 7093W        W22710   0.039   2.229  15.367  0.0953 -0.2348  0.1820
 7094W        W22711  12.318  10.361   3.925 -0.0576 -0.3375 -0.1866
 7095W        W22712  10.322  11.116  15.763 -0.0851 -0.1509  0.0576
 7096W        W22713   1.771  12.308   4.509  0.0355 -0.3852  0.2347
 7097W        W22714   6.874  10.517   4.671  0.2140 -0.2343  0.0197
 7098W        W22715   5.170  13.738  11.354  0.1308 -0.0353  0.1416
 7099W        W22716  14.780   1.337   0.398  0.0277  0.3061  0.2551
 7100W        W22717  10.184  17.417   0.619 -0.0142  0.1207 -0.1853
 7101W        W22718   2.009  11.710  12.881 -0.1546  0.0551  0.2976
 7102W        W22719  11.963   7.551   5.763 -0.2243 -0.3962 -0.0683
 7103W        W22720   8.816   3.527   3.990  0.0815  0.1645  0.5329
 7104W        W22721  15.770  14.554  13.542  0.2361  0.2839 -0.1148
 7105W        W22722  12.347   9.966  14.761  0.0043 -0.3254 -0.0597
 7106W        W22723  17.304  18.505  14.188  0.3380 -0.1384  0.1653
 7107W        W22724  14.707   3.125   0.076  0.3536  0.0378  0.1239
 7108W        W22725   6.423   6.292   0.937  0.0006 -0.1861  0.1030
 7109W        W22726   0.886  11.129   2.090  0.2757  0.2104 -0.0003
 7110W        W22727   2.351  10.142   1.733  0.0546 -0.1016  0.2961
 7111W        W22728  16.464  13.566   4.915  0.3972  0.2606 -0.1606
 7112W        W22729   7.613  15.339  13.331 -0.0018  0.2334 -0.0310
 7113W        W22730   6.334   6.537   1.770 -0.0911 -0.0945 -0.3107
 7114W        W22731   1.859  14.236  15.772  0.0754  0.1371 -0.2054
 7115W        W22732   7.425   8.463  13.285  0.2429 -0.1566 -0.0192
 7116W        W22733   3.121  14.066  13.239  0.0397 -0.2410  0.0838
 7117W        W22734   5.151   0.757  13.720 -0.1623  0.2414 -0.4063
 7118W        W22735   5.229   1.832  12.936 -0.0578 -0.1402 -0.3782
 7119W        W22736  15.457   2.052   4.712 -0.3266 -0.1899 -0.1504
 7120W        W22737   6.073   3.281  14.670 -0.3675  0.0850 -0.3123
 7121W        W22738   9.090   8.360  14.373 -0.1404  0.2772 -0.1818
 7122W        W22739   1.456   6.693   3.262  0.2596 -0.0712 -0.1096
 7123W        W22740   1.157  16.719   2.436 -0.0606  0.3150  0.0438
 7124W        W22741  18.001   8.619  15.622 -0.1067 -0.3453 -0.2736
 7125W        W22742   2.177  11.397   1.189  0.4532 -0.0896  0.0141
 7126W        W22743   8.019  13.749  11.485 -0.0647 -0.2762  0.0265
 7127W        W22744   1.361   8.873   1.364 -0.0657  0.2138  0.2529
 7128W        W22745  15.723  10.751  11.604  0.2551  0.2424  0.1827
 7129W        W22746   3.885   8.315   5.128 -0.2292 -0.1092 -0.0716
 7130W        W22747   2.470  10.513  15.644 -0.1605 -0.0433  0.2611
 7131W        W22748  10.894   1.683   0.286 -0.0349 -0.1011  0.3365
 7132W        W22749  17.906   8.502  12.266  0.0063 -0.1459  0.4220
 7133W        W22750   0.199   6.260   3.047 -0.1758 -0.2266  0.0793
 7134W        W22751   4.369  15.705  12.742  0.0190  0.1033  0.1374
 7135W        W22752   8.566  10.853  12.937  0.2084 -0.0886  0.0818
 7136W        W22753   9.934   4.815  11.511 -0.0087  0.2266 -0.1197
 7137W        W22754   5.048   1.557  11.699 -0.0471 -0.0748  0.0260
 7138W        W22755   4.296  12.675   0.669 -0.2100 -0.2598  0.2177
 7139W        W22756   0.364  13.109   4.106 -0.2938 -0.1621  0.2396
 7140W        W22757   5.668  17.132  12.617 -0.3352 -0.1534 -0.0658
 7141W        W22758  14.870   6.792   1.977  0.0175 -0.2902  0.2865
 7142W        W22759  13.866  17.736   4.152  0.3749  0.1728  0.1411
 7143W        W22760  15.492  14.250   1.817 -0.0830 -0.0197 -0.0016
 7144W        W22761  16.821  16.260   0.370  0.1199  0.3799 -0.0924
 7145W        W22762   7.807   5.419  15.148  0.2593  0.0201  0.3569
 7146W        W22763  10.704   0.592   2.731  0.1424  0.0667  0.0838
 7147W        W22764   8.251  13.269  12.028 -0.5323 -0.1673  0.1848
 7148W        W22765   0.135   1.988   4.528  0.1625  0.3542  0.0210
 7149W        W22766   0.769  15.351  13.779 -0.0935  0.0652 -0.3506
 7150W        W22767  11.522   6.302   3.614  0.3957 -0.0446  0.2955
 7151W        W22768  10.078  17.620   1.071 -0.2529  0.1567  0.1103
 7152W        W22769   8.475  12.827  13.033  0.0045  0.0586  0.0133
 7153W        W22770  10.784   8.562   4.179 -0.0527 -0.1772 -0.2083
 7154W        W22771  17.877  10.985  14.897  0.0013  0.0534  0.0789
 7155W        W22772   8.201   7.417   3.337  0.3371 -0.1721 -0.0919
 7156W        W22773   3.959   8.205  13.416 -0.2850  0.0801 -0.1725
 7157W        W22774  10.665  11.235   0.407  0.0018 -0.2345 -0.1735
 7158W        W22775  11.404  16.074   3.657  0.1503 -0.2014 -0.0106
 7159W        W22776   7.682   3.855  10.611  0.1165  0.0495  0.1313
 7160W        W22777  18.352  12.361   2.624  0.2710  0.1083  0.1968
 7161W        W22778  18.642   9.298  13.848 -0.2323  0.1257  0.1979
 7162W        W22779  11.539   4.863  14.010  0.1865 -0.0338  0.2213
 7163W        W22780  15.669  17.378   1.338 -0.2015  0.0546 -0.1427
 7164W        W22781  10.878  15.888   1.997  0.1822  0.1228  0.2471
 7165W        W22782   2.695   5.208  12.177  0.1935 -0.0518 -0.2880
 7166W        W22783  16.601   9.172   3.403  0.1023 -0.0583 -0.1297
 7167W        W22784  10.073   7.154  11.704 -0.2941  0.1203 -0.1007
 7168W        W22785   1.887   2.732  11.872  0.3005  0.1396  0.0281
 7169W        W22786  17.543  12.016   4.050 -0.5235 -0.1457 -0.1717
 7170W        W22787   9.858   9.879   4.441 -0.0388  0.4816 -0.2561
 7171W        W22788   9.675   9.986  14.616  0.3576 -0.3264 -0.1310
 7172W        W22789  12.157  11.309  13.071 -0.0712  0.0524 -0.0216
 7173W        W22790  16.257   5.066   1.813 -0.2653 -0.0148 -0.1623
 7174W        W22791  18.648   1.566  12.834 -0.0253  0.2314 -0.1804
 7175W        W22792  14.133  16.208  15.444 -0.1473  0.1187  0.0950
 7176W        W22793   5.059   2.112   1.480 -0.1100  0.1348 -0.0713
 7177W        W22794  13.798   1.196   0.401 -0.1081 -0.2184 -0.3675
 7178W        W22795  18.278  12.910  14.923  0.1610  0.0969 -0.1025
 7179W        W22796  15.090  16.938  13.907  0.0014  0.0185 -0.0069
 7180W        W22797   5.994   7.077   3.865  0.0722 -0.1622 -0.2357
 7181W        W22798   0.031   4.758   0.541 -0.0942 -0.1975 -0.0548
 7182W        W22799  14.757   5.288  13.566 -0.1241 -0.1319 -0.0287
 7183W        W22800   4.108   3.952  13.026 -0.2421  0.1798 -0.0689
 7184W        W22801  15.797   6.694  13.771  0.1380 -0.3827 -0.1439
 7185W        W22802  17.573   6.150   4.365 -0.0843 -0.1716  0.0295
 7186W        W22803  17.632  15.140   9.640  0.2691  0.1194  0.0077
 7187W        W22804   9.210   5.653   0.432 -0.0001 -0.0446  0.1028
 7188W        W22805   6.299   3.524   2.497  0.0848 -0.2030 -0.1537
 7189W        W22806   4.171   0.588   0.659  0.1028  0.2405 -0.0039
 7190W        W22807  10.096   9.706  14.519 -0.0117  0.0924  0.0515
 7191W        W22808  11.762   1.834   4.423 -0.0605 -0.3071 -0.3093
 7192W        W22809   2.173  12.175   0.528  0.2667 -0.1761 -0.0396
 7193W        W22810   5.271  10.592  10.529 -0.0299 -0.0690 -0.0319
 7194W        W22811  12.447   4.738  15.560  0.1753 -0.2436  0.0404
 7195W        W22812  16.001  11.090   2.195 -0.3355 -0.0151 -0.1368
 7196W        W22813  15.395   9.885   2.077  0.1147 -0.2142 -0.0389
 7197W        W22814   9.222   0.224   2.976  0.1269 -0.3209 -0.0237
 7198W        W22815   5.939  11.081   2.811 -0.1244  0.0463 -0.0054
 7199W        W22816   7.881   8.346   5.154  0.2071  0.0086  0.2324
 7200W        W22817  17.838   9.968   3.211 -0.2341 -0.2754  0.0024
 7201W        W22818  18.086   3.910   0.403 -0.1969  0.3674  0.4262
 7202W        W22819   5.460  17.797  15.445 -0.0130 -0.1430  0.2880
 7203W        W22820   7.048   7.903  12.688 -0.3246  0.0369  0.1856
 7204W        W22821   1.999  13.586   3.477 -0.0672 -0.1375 -0.1772
 7205W        W22822   0.060  10.336   4.994 -0.0306 -0.2815 -0.1200
 7206W        W22823  15.882  18.565   0.931 -0.1913 -0.1187 -0.0451
 7207W        W22824  12.625   2.216  15.396  0.0220  0.0343 -0.0526
 7208W        W22825   4.081   0.170   4.033  0.1064  0.0139 -0.0645
 7209W        W22826   3.873  15.648  12.559  0.0362  0.2582  0.3771
 7210W        W22827  14.477  17.564  11.018 -0.2460 -0.1090 -0.1458
 7211W        W22828  16.187   7.403  11.683 -0.0284 -0.0824  0.0950
 7212W        W22829  13.379   6.722   5.342 -0.0355  0.0284 -0.0247
 7213W        W22830   3.506   0.892   1.546 -0.2154  0.4864 -0.0520
 7214W        W22831  17.904  10.726  10.807  0.1548  0.0563  0.0178
 7215W        W22832   7.347  12.817  15.559 -0.1015  0.0580  0.1808
 7216W        W22833   4.189   6.148  12.100  0.2755  0.0741  0.1177
 7217W        W22834   0.271   4.706   0.045 -0.0218 -0.0605 -0.1034
 7218W        W22835  15.105   8.885   2.977 -0.2038 -0.1042 -0.0171
 7219W        W22836  15.585   1.498   0.325  0.1105 -0.2239 -0.4233
 7220W        W22837   3.945  11.164  15.794 -0.0160 -0.0107  0.2070
 7221W        W22838   7.770   4.887   1.100 -0.4141 -0.1071 -0.0154
 7222W        W22839   7.686  12.364   0.758  0.0847  0.3315  0.0604
 7223W        W22840  15.395   2.453   3.131  0.1690  0.2572  0.1989
 7224W        W22841   8.880  14.673   1.377 -0.1166 -0.0160 -0.0935
 7225W        W22842  10.869  18.418   2.165 -0.1481  0.1800  0.3607
 7226W        W22843   9.802   4.963   4.913  0.1593  0.0711 -0.0201
 7227W        W22844   7.202   5.228   4.638  0.2772 -0.0881 -0.0101
 7228W        W22845  10.302   9.210   0.054 -0.2001 -0.1459  0.0592
 7229W        W22846   7.229  17.528   2.821 -0.0728 -0.2886  0.0417
 7230W        W22847   3.213   4.840   3.935  0.0169 -0.1583  0.4129
 7231W        W22848   5.935   8.754  12.793  0.0884  0.2331  0.0548
 7232W        W22849   7.830   1.623  13.404 -0.2812  0.1431  0.2075
 7233W        W22850  15.002  12.706  13.327 -0.0363  0.0169 -0.0393
 7234W        W22851  16.755   9.159  15.484 -0.0948 -0.2241  0.1709
 7235W        W22852   8.046  17.421   0.029 -0.1188 -0.0566 -0.0089
 7236W        W22853  12.487  13.073   4.678 -0.0923  0.0164  0.1576
 7237W        W22854   8.104   2.975  11.836 -0.4037  0.2107  0.0556
 7238W        W22855   2.676   8.739   3.526 -0.1698  0.0935  0.2965
 7239W        W22856   5.729  15.131   5.276 -0.1042 -0.0028 -0.1766
 7240W        W22857  15.065   4.522  14.366 -0.1792  0.3582 -0.0989
 7241W        W22858  10.877   0.203  14.148  0.0612  0.0930  0.1443
 7242W        W22859  18.450   6.536   0.883 -0.1532  0.2577  0.0857
 7243W        W22860  13.357   4.765   1.130  0.0877  0.1532  0.2953
 7244W        W22861  14.476   3.987   0.376  0.1550 -0.1463 -0.0327
 7245W        W22862  13.833   6.666   5.221 -0.2092 -0.0942 -0.1645
 7246W        W22863   4.038   5.446  13.149  0.1256 -0.2179  0.3118
 7247W        W22864  11.389   6.384   5.477 -0.1343 -0.0297  0.3747
 7248W        W22865   9.939  16.459  14.876 -0.2297 -0.0026  0.0790
 7249W        W22866  15.648  13.288   0.828  0.0386  0.0582 -0.0686
 7250W        W22867   4.770   6.173  14.204 -0.2367 -0.1951  0.0580
 7251W        W22868   8.069  15.380   2.381  0.0015 -0.2846  0.1934
 7252W        W22869   8.598  15.120   4.162 -0.1669 -0.1054 -0.0214
 7253W        W22870   6.278   5.810   4.818  0.0014  0.0359  0.1640
 7254W        W22871   6.702   9.086   2.066  0.1648  0.1623  0.0392
 7255W        W22872  17.390  15.375  14.237  0.3032  0.0057 -0.0431
 7256W        W22873  10.414  18.245  13.182  0.1933  0.0760  0.3957
 7257W        W22874   8.678   9.288  11.585 -0.2142  0.0644 -0.0773
 7258W        W22875  18.112   4.949   3.827 -0.0729  0.1409  0.1155
 7259W        W22876  13.402  16.880   4.762  0.1774  0.1797  0.0751
 7260W        W22877  16.115   9.242   3.178 -0.0980  0.1420 -0.1141
 7261W        W22878   3.997   7.770   2.318  0.1818  0.1118 -0.0404
 7262W        W22879   7.511  15.848   3.837 -0.0450  0.1947  0.3904
 7263W        W22880   7.497  13.964  15.459  0.3335  0.0285  0.3044
 7264W        W22881  16.935  18.332   1.776 -0.4292  0.3210  0.0909
 7265W        W22882  17.729  11.095   4.973  0.3070 -0.0363  0.0113
 7266W        W22883   9.540   3.677  13.783 -0.0874 -0.2924 -0.0391
 7267W        W22884   5.958   3.054  14.206  0.2137  0.1203 -0.0840
 7268W        W22885   4.058   6.798   0.050  0.4697 -0.1420  0.3251
 7269W        W22886  13.931  14.913  11.419 -0.1345 -0.1296 -0.2177
 7270W        W22887   2.563  12.759   9.829 -0.0266 -0.1560  0.1578
 7271W        W22888  10.055   1.377   0.063  0.3321  0.0845  0.1618
 7272W        W22889  16.829  13.214  11.581 -0.2862 -0.0318 -0.3081
 7273W        W22890  10.355  18.197  11.609 -0.0536 -0.1211 -0.1312
 7274W        W22891   5.109  11.668  14.499 -0.2228 -0.0150  0.2987
 7275W        W22892   6.776  17.368  11.785 -0.3040  0.4225  0.0774
 7276W        W22893  17.499  13.340   3.385 -0.1130 -0.3459  0.4578
 7277W        W22894   6.751   3.061   5.050  0.4311 -0.1913 -0.0948
 7278W        W22895   6.928  16.821   1.684 -0.0316 -0.1989  0.2491
 7279W        W22896  14.794   1.047   3.000  0.0324 -0.1721  0.3580
 7280W        W22897   8.304   1.210  14.941 -0.0384  0.0430  0.1257
 7281W        W22898  11.994   9.025  15.551  0.0394  0.1607  0.3426
 7282W        W22899  14.167  11.806   0.115  0.1982  0.2084  0.2600
 7283W        W22900  17.489  17.022  10.670  0.2118  0.2348 -0.0850
 7284W        W22901  16.333   7.643  15.326  0.1059 -0.0021 -0.0438
 7285W        W22902  12.243  14.505   9.758 -0.1011 -0.1330 -0.5949
 7286W        W22903  18.239  14.399   5.044  0.0278 -0.2477 -0.1471
 7287W        W22904  15.194   6.211   4.491  0.1368  0.1234  0.0502
 7288W        W22905   5.156  15.913   4.317 -0.0393  0.1171  0.3596
 7289W        W22906  17.329   1.947  13.876 -0.1231 -0.2706 -0.0364
 7290W        W22907   5.670   8.792   4.436  0.0736 -0.0605  0.1291
 7291W        W22908  18.444  13.968  15.432 -0.2102 -0.0298 -0.4025
 7292W        W22909  14.091   0.375   0.204  0.1647  0.1668  0.0596
 7293W        W22910  13.862   7.061   5.881 -0.0593 -0.1160 -0.3617
 7294W        W22911   8.183  16.449   0.438  0.2978  0.2375  0.0826
 7295W        W22912  12.430   9.476   1.787  0.1868 -0.0572  0.0736
 7296W        W22913   8.748   6.578   4.147  0.1216 -0.0747 -0.3864
 7297W        W22914  13.796   4.565   1.013  0.1929  0.1481 -0.0331
 7298W        W22915  12.092  13.521   1.303  0.0185 -0.0572  0.1097
 7299W        W22916  14.211   0.405  12.023 -0.0291 -0.0208  0.2811
 7300W        W22917   2.591  17.570   1.344 -0.0281  0.0734  0.1583
 7301W        W22918  16.375  12.300  10.184  0.2392  0.3446 -0.0593
 7302W        W22919   4.822  17.028   5.135 -0.1422  0.0235 -0.0619
 7303W        W22920  14.543  12.533  12.648  0.1129 -0.1199 -0.0842
 7304W        W22921   1.781  13.527   2.075 -0.0181  0.0053  0.0495
 7305W        W22922  11.150  11.224   1.158 -0.1318 -0.0552  0.3412
 7306W        W22923  17.924  11.761   4.382  0.2621  0.0643  0.0968
 7307W        W22924  10.568   2.647  15.726  0.4531  0.1511  0.1528
 7308W        W22925   7.577   4.586   3.813  0.0958  0.0070  0.0491
 7309W        W22926   9.321  12.063  11.370 -0.0044 -0.1480 -0.0227
 7310W        W22927   3.911   7.573  14.599 -0.0368  0.0755 -0.1651
 7311W        W22928   7.806  13.484  13.375  0.3848  0.0784 -0.0902
 7312W        W22929  16.734  15.693  13.247 -0.2446 -0.1262  0.1128
 7313W        W22930   4.903   0.004   2.895  0.1687  0.0857 -0.2545
 7314W        W22931  10.350   3.662  15.401  0.0731  0.0490  0.1428
 7315W        W22932   2.260   8.860  11.504  0.1003 -0.1141  0.2400
 7316W        W22933  12.483   5.008  13.756 -0.0271 -0.3595 -0.0867
 7317W        W22934   9.341   4.588  12.710 -0.2304 -0.1785  0.2114
 7318W        W22935  13.834   7.499   5.149 -0.0247 -0.0188  0.2143
 7319W        W22936   6.369  16.407   2.913 -0.0009  0.4988 -0.3340
 7320W        W22937   2.323  12.729   0.554 -0.0599 -0.2991 -0.1842
 7321W        W22938   0.628  13.177   1.680  0.0130  0.2065  0.0323
 7322W        W22939   9.779   3.844  13.239 -0.0384  0.0197  0.3290
 7323W        W22940  13.449  12.312   0.945  0.0511  0.3921 -0.2347
 7324W        W22941  16.998   7.814   2.992 -0.2109  0.1560  0.0765
 7325W        W22942  17.265   7.738  13.960  0.0968 -0.1053 -0.1282
 7326W        W22943   9.095   5.399   4.294  0.1673  0.2725 -0.0736
 7327W        W22944   0.179   3.376   3.043  0.1640 -0.0457  0.0026
 7328W        W22945  18.015   8.986  14.975 -0.2400  0.1090  0.2295
 7329W        W22946  12.090  15.496  15.525  0.1584  0.1531 -0.2361
 7330W        W22947   8.949   6.963  13.946 -0.1302  0.0160  0.0548
 7331W        W22948   4.969  17.999  10.899 -0.0102  0.2743  0.1147
 7332W        W22949  17.450   2.678   0.172  0.3061 -0.1701 -0.0428
 7333W        W22950   0.913   2.367  13.569 -0.0255 -0.1846 -0.2006
 7334W        W22951  11.559   2.300  12.791 -0.5058  0.0574 -0.1570
 7335W        W22952   3.221   4.950   3.288  0.2082  0.0044 -0.1359
 7336W        W22953   4.428  13.661  12.899  0.1794  0.0380  0.1182
 7337W        W22954   7.393   3.914   0.582  0.1167 -0.1825  0.0280
 7338W        W22955   5.766   3.011   4.564 -0.0416 -0.3960 -0.4838
 7339W        W22956  10.255   8.987   2.076 -0.0058 -0.2325 -0.1049
 7340W        W22957  17.227   3.365   3.131  0.3889 -0.2066 -0.1010
 7341W        W22958  13.555   7.710   3.091  0.3065 -0.3257 -0.2314
 7342W        W22959   8.750  15.043  13.388 -0.0219  0.0352  0.1277
 7343W        W22960   1.649   5.607   5.492 -0.3571  0.1349 -0.1158
 7344W        W22961   4.230   9.679  13.128 -0.2925  0.1578 -0.2587
 7345W        W22962   2.290  14.125  12.727 -0.0060  0.0845  0.1421
 7346W        W22963   8.261   3.785   2.174  0.0038 -0.0489 -0.1841
 7347W        W22964  18.437  12.761   2.926 -0.2270 -0.0671  0.1759
 7348W        W22965   9.108  12.929   0.595 -0.1438  0.1405  0.0698
 7349W        W22966   8.449  10.976   0.884  0.3379 -0.0172  0.3889
 7350W        W22967  17.908   3.686  12.545  0.3774  0.1707  0.0288
 7351W        W22968   3.380  13.072   4.912 -0.3462  0.1715  0.0388
 7352W        W22969   9.161   2.300   4.700  0.0782  0.0994 -0.0894
 7353W        W22970   6.916  14.832  14.573 -0.2488 -0.1618  0.0228
 7354W        W22971   0.653  13.990   5.288  0.0172  0.1911  0.0186
 7355W        W22972  18.568   6.931  11.902  0.3860  0.0103  0.2478
 7356W        W22973   2.045  15.844   0.845 -0.0248 -0.2674 -0.2021
 7357W        W22974   1.958   0.132  10.084 -0.1816 -0.2447  0.1358
 7358W        W22975  13.806   2.513   6.394 -0.0778  0.1050 -0.1169
 7359W        W22976   5.406   3.448   2.432 -0.2910  0.1653  0.2273
 7360W        W22977   7.822   2.373   0.141  0.2607 -0.0642 -0.0213
 7361W        W22978  16.456   4.144   4.005  0.3464 -0.0688  0.3745
 7362W        W22979   7.046   8.938   3.493  0.3656 -0.3754 -0.0221
 7363W        W22980   7.452   1.100   4.086 -0.2334 -0.2429 -0.0492
 7364W        W22981   5.290  15.674  10.363  0.0343  0.0179  0.0089
 7365W        W22982  15.078  11.340   4.097  0.0327  0.1136 -0.1289
 7366W        W22983   6.151  13.994   2.701 -0.2265 -0.1900 -0.2701
 7367W        W22984   4.663   2.035  13.594  0.0189  0.2836  0.2384
 7368W        W22985   4.124   7.195  15.568  0.0524 -0.1287  0.2367
 7369W        W22986   9.188   9.447  15.760 -0.3179 -0.0046 -0.0658
 7370W        W22987   0.142  11.972  14.069  0.0119 -0.1555 -0.1237
 7371W        W22988  15.426   8.571   2.767 -0.0010 -0.6068 -0.3418
 7372W        W22989  10.219  11.094  15.262 -0.1782 -0.2981 -0.1830
 7373W        W22990   0.384   6.575   0.086  0.0133  0.0718 -0.0261
 7374W        W22991   7.947  16.009   1.618  0.2603 -0.1584 -0.0132
 7375W        W22992  14.488   7.328  15.374  0.1066  0.0851 -0.1887
 7376W        W22993  12.242   4.128  13.899 -0.1985  0.1199 -0.1539
 7377W        W22994   4.623  10.919  14.527  0.1449 -0.0199 -0.3413
 7378W        W22995  14.533  18.041  14.967  0.0536  0.2863  0.0823
 7379W        W22996   5.046   4.162  15.478  0.1793 -0.1866  0.2670
 7380W        W22997  12.471   1.784  13.356  0.0582  0.0326  0.0285
 7381W        W22998  10.800   4.973  10.995  0.0812 -0.1239  0.1498
 7382W        W22999  11.711  16.828   3.246  0.1471 -0.1884 -0.1013
 7383W        W23000   6.381   2.583   2.043 -0.0666 -0.1516  0.0355
 7384W        W23001   4.313  13.781  13.450 -0.1655  0.0036 -0.1000
 7385W        W23002  18.555   8.017   1.649 -0.1163 -0.1516  0.2087
 7386W        W23003   9.087  13.182  11.644 -0.0481  0.0415 -0.1342
 7387W        W23004   7.797   5.716  12.578 -0.1976  0.0850  0.3344
 7388W        W23005   8.538   6.235   3.103  0.0944 -0.0404  0.0293
 7389W        W23006   9.760   1.284  15.050 -0.1952 -0.1144 -0.1610
 7390W        W23007  11.084   6.037   5.631  0.1376 -0.2207  0.1865
 7391W        W23008   6.750   9.220  13.080 -0.0843  0.2216  0.0625
 7392W        W23009  13.185  14.619  13.524  0.4803 -0.4969 -0.0994
 7393W        W23010   7.989   7.524   2.339  0.1552 -0.0732  0.0916
 7394W        W23011  14.932   9.044  14.054  0.0660 -0.1859 -0.0420
 7395W        W23012  15.927  12.181  10.418  0.3058 -0.0729  0.1376
 7396W        W23013  14.539  10.198   1.616  0.1184 -0.2290 -0.0774
 7397W        W23014  14.059   0.026   0.926 -0.0087  0.2368  0.1565
 7398W        W23015  10.495   5.444  11.795  0.1967 -0.0401  0.0518
 7399W        W23016  16.007  13.586   4.691 -0.1161 -0.2152 -0.0350
 7400W        W23017  13.066  10.166  10.246 -0.0186 -0.1904 -0.3703
 7401W        W23018   1.901   7.656  10.932  0.1580 -0.1291  0.2606
 7402W        W23019  11.169   9.295   1.023 -0.2179  0.3469 -0.2433
 7403W        W23020  16.239  10.306  15.162 -0.2106 -0.0500  0.2114
 7404W        W23021   9.160  14.592  11.363  0.0208  0.1367  0.1557
 7405W        W23022   0.104   7.531  10.837  0.0852 -0.1715  0.0359
 7406W        W23023   8.929  17.155  11.920 -0.1246 -0.3484  0.0906
 7407W        W23024   7.649   1.670   5.134  0.4157 -0.0830  0.0404
 7408W        W23025  16.129  11.560  12.720 -0.0187 -0.0130 -0.0028
 7409W        W23026   4.061   8.885   3.320  0.2504 -0.0209  0.1247
 7410W        W23027  12.018  11.247   2.009 -0.1476 -0.0761  0.1878
 7411W        W23028  10.057  11.359   3.716  0.1684  0.1113  0.1475
 7412W        W23029  11.295  16.237  13.156  0.1489 -0.2455 -0.1425
 7413W        W23030   3.425   5.670   4.260 -0.1719  0.0738 -0.1173
 7414W        W23031   0.648   3.403  11.229 -0.1309 -0.4390 -0.4028
 7415W        W23032   3.268   9.343  11.297  0.0471 -0.0728  0.1941
 7416W        W23033   9.948   6.388   5.504  0.1191  0.1895 -0.0734
 7417W        W23034  17.818   3.504   0.594 -0.3364 -0.0897 -0.1945
 7418W        W23035   9.411   5.028  12.405  0.1387  0.1243  0.0342
 7419W        W23036   6.973   6.402  12.306 -0.0212 -0.2467  0.0212
 7420W        W23037  14.002  15.263   3.357 -0.1556  0.0375  0.2294
 7421W        W23038  12.598   1.695  15.697 -0.1690 -0.2988  0.2059
 7422W        W23039   8.146   1.043  13.939 -0.1197 -0.2904 -0.6731
 7423W        W23040  13.817   0.598  13.473 -0.1356  0.0695 -0.0168
 7424W        W23041  10.415  17.240   4.988 -0.2186 -0.2416 -0.2415
 7425W        W23042  15.808   8.891  10.897 -0.2180 -0.1040  0.1437
 7426W        W23043  15.846  18.553  13.348 -0.0028  0.0345 -0.3068
 7427W        W23044   5.590  14.714   2.492  0.1349  0.0777  0.2031
 7428W        W23045  15.438  14.698  13.912  0.1285 -0.0490  0.2961
 7429W        W23046  15.272  13.812  15.319 -0.0312  0.2266 -0.0664
 7430W        W23047  11.667  15.866   3.247  0.1285  0.2926  0.0622
 7431W        W23048  11.710  13.346  14.080 -0.2724 -0.0465 -0.0585
 7432W        W23049  10.327  14.644  11.073 -0.1419 -0.0981  0.2182
 7433W        W23050   2.189   0.157  14.194  0.0051 -0.0315 -0.5713
 7434W        W23051  13.210   0.563   4.319  0.2459 -0.1240  0.0158
 7435W        W23052   8.254   6.305  13.721 -0.2174  0.0485  0.0884
 7436W        W23053   9.023  17.408   3.910 -0.2604 -0.0086 -0.0845
 7437W        W23054   7.297   2.102  11.142 -0.3262  0.0389 -0.1549
 7438W        W23055  14.938  10.543   3.689 -0.2894  0.3594 -0.0132
 7439W        W23056  16.084  15.774   5.950 -0.4414  0.1051  0.2682
 7440W        W23057   6.411   9.256  13.493 -0.0005 -0.2024 -0.0399
 7441W        W23058   5.046   2.782   2.015 -0.0154 -0.0894 -0.0760
 7442W        W23059   5.327  14.176   3.682  0.1771  0.1838 -0.0523
 7443W        W23060   2.278   6.809  14.324  0.1778 -0.2521  0.0615
 7444W        W23061   1.777   0.096   3.048  0.3155  0.2370 -0.3139
 7445W        W23062   0.891   9.112  13.979 -0.0949  0.0181 -0.4400
 7446W        W23063  15.903  15.539   9.748 -0.0517  0.0004 -0.0448
 7447W        W23064   3.172  11.115   1.204 -0.3375 -0.0319  0.0872
 7448W        W23065  18.069   2.342  12.318  0.0294 -0.0483 -0.0886
 7449W        W23066  11.260  17.113   3.294  0.1547  0.2343  0.1269
 7450W        W23067   9.906   2.120   2.387 -0.0039 -0.0320 -0.2174
 7451W        W23068   2.345  13.556   0.143 -0.0832  0.0748  0.0120
 7452W        W23069  14.399  11.376  15.144  0.0879 -0.1614  0.0386
 7453W        W23070   6.819   5.098  15.028  0.1014 -0.1418 -0.3081
 7454W        W23071  16.266  12.249  15.701  0.2953 -0.0126  0.0427
 7455W        W23072   4.023   2.816   3.559  0.1925  0.0192  0.1060
 7456W        W23073  12.475   0.844  12.243 -0.1299 -0.0396  0.1131
 7457W        W23074  12.594   8.297   0.300 -0.0981  0.0323  0.2933
 7458W        W23075  10.177   0.053   0.947 -0.1792  0.1416  0.0037
 7459W        W23076  11.501  13.249   5.329 -0.1918  0.1011  0.0227
 7460W        W23077  13.921   5.537  14.099 -0.1917  0.0484 -0.0148
 7461W        W23078   4.955   1.634  13.407 -0.1395 -0.2012 -0.0027
 7462W        W23079  11.475  10.268   4.412  0.3856  0.1487 -0.1196
 7463W        W23080   7.870  15.612   1.910  0.2795 -0.0797  0.0792
 7464W        W23081  17.772  12.314   0.673 -0.1653 -0.0684 -0.0273
 7465W        W23082   9.162  11.305   2.553 -0.0735 -0.2832  0.2018
 7466W        W23083  10.543  10.183   3.557  0.2314 -0.0226  0.2502
 7467W        W23084  12.852   5.782  14.051  0.2125 -0.2055  0.2598
 7468W        W23085   1.544   2.042   3.176 -0.2916  0.0155  0.0318
 7469W        W23086  12.600   6.756   5.309  0.2890 -0.3811 -0.0248
 7470W        W23087  15.389  13.684   0.490 -0.2298  0.1468  0.2597
 7471W        W23088  12.392  16.275   4.004  0.0859 -0.0943  0.5299
 7472W        W23089   6.945  13.538   4.789  0.3494 -0.0102 -0.0543
 7473W        W23090  17.875   5.271  14.151 -0.2044 -0.2176  0.1397
 7474W        W23091  10.394  16.092   1.062  0.0430 -0.1652  0.2916
 7475W        W23092  17.696   3.238  11.368 -0.2359 -0.1529 -0.0989
 7476W        W23093   3.527   4.353   0.023  0.1699 -0.0288 -0.0344
 7477W        W23094   9.817   4.075   4.541 -0.1235  0.0573 -0.0201
 7478W        W23095   8.269   6.623   3.725  0.1065  0.0607 -0.0827
 7479W        W23096  12.498  11.683  13.973  0.2582  0.5146  0.1097
 7480W        W23097  16.890   3.983   1.588  0.3638  0.0724  0.0865
 7481W        W23098   9.124   7.704  11.167  0.1712  0.2502  0.0839
 7482W        W23099   1.753  16.111   1.181  0.0369 -0.1803  0.1278
 7483W        W23100   3.686  15.222   4.478  0.0312 -0.0957 -0.2873
 7484W        W23101   3.484   4.078  10.336 -0.0113 -0.1395 -0.1187
 7485W        W23102   6.107  11.879   4.790  0.1655  0.1422  0.0427
 7486W        W23103  15.057   3.886   2.937 -0.0148  0.0338 -0.1493
 7487W        W23104  14.478   7.850   5.247 -0.0913 -0.0360  0.0081
 7488W        W23105  15.535  16.848   4.210 -0.1680 -0.4436 -0.1030
 7489W        W23106  13.071  16.861   2.161 -0.0876 -0.1521  0.0327
 7490W        W23107   1.983   8.981  10.892  0.1206  0.1801  0.3441
 7491W        W23108  12.737   9.345  15.551 -0.2067 -0.2199  0.0368
 7492W        W23109   2.672  11.074   1.979  0.2054  0.1633 -0.0472
 7493W        W23110  13.559   2.220   6.002 -0.1440 -0.2599  0.0817
 7494W        W23111  16.496   9.790   3.234 -0.0277 -0.0186 -0.0049
 7495W        W23112   8.864   8.005  11.484 -0.1516  0.3169  0.0029
 7496W        W23113   2.820  17.270  14.814  0.0622 -0.1880  0.0149
 7497W        W23114  10.513  12.385  14.287  0.2538 -0.1681 -0.2090
 7498W        W23115   9.157  14.412   2.201  0.0525 -0.1502 -0.2795
 7499W        W23116  13.547   8.062  14.697  0.0471  0.0178  0.0627
 7500W        W23117  12.242  17.446   4.525  0.0454  0.0375  0.1645
 7501W        W23118  13.538   7.904  11.345 -0.2091  0.0311  0.0136
 7502W        W23119  17.672   7.845  13.117  0.1360  0.1967 -0.0598
 7503W        W23120   1.827  12.844  15.449  0.1170 -0.1892 -0.1305
 7504W        W23121   0.239   6.605  10.600  0.0297 -0.2117 -0.0043
 7505W        W23122  10.273  10.133   1.403 -0.1250  0.2327  0.1173
 7506W        W23123   9.410  11.379  14.866  0.3708  0.0560 -0.1825
 7507W        W23124   9.550  18.521  12.735  0.0407  0.1443  0.1923
 7508W        W23125   0.736  16.382   0.670  0.2767 -0.1375 -0.1963
 7509W        W23126  12.057  11.833  14.202  0.2560  0.0354 -0.2560
 7510W        W23127   5.162  13.367  15.044  0.0325  0.0835 -0.1145
 7511W        W23128   6.167  11.832  11.506  0.1836  0.1325 -0.1418
 7512W        W23129   7.704  13.491   2.240  0.1168  0.2547 -0.2287
 7513W        W23130  14.583  16.967  15.245  0.0899  0.1030 -0.4293
 7514W        W23131   3.395   7.577  12.731 -0.1500  0.2917 -0.2410
 7515W        W23132  17.650   3.666  15.435 -0.1179 -0.0655  0.1271
 7516W        W23133   0.079  16.791  12.420  0.2365 -0.0902  0.0990
 7517W        W23134  13.649  17.263   4.329 -0.2419 -0.1421  0.0041
 7518W        W23135  17.923  13.715   0.870 -0.3121  0.4098  0.0519
 7519W        W23136  14.621  10.624  15.588  0.2367  0.2291  0.0449
 7520W        W23137  16.337  18.287   4.152  0.0664 -0.3427 -0.0344
 7521W        W23138  14.810  17.557   0.863  0.2227  0.0170 -0.0805
 7522W        W23139   9.177   2.025  11.101  0.1753 -0.0050  0.0328
 7523W        W23140  11.050   4.323   5.000  0.2490  0.1541 -0.2826
 7524W        W23141   4.504  16.179   1.344 -0.0922  0.0489 -0.1161
 7525W        W23142   4.754   1.620   3.621  0.1729  0.3059 -0.2645
 7526W        W23143   9.274  16.565  15.400  0.2670 -0.2579 -0.1138
 7527W        W23144   6.347  10.792   0.317 -0.3177  0.3152 -0.1604
 7528W        W23145  16.719   2.649  15.519 -0.2009  0.1800  0.2371
 7529W        W23146  12.258  10.142   4.398  0.1844 -0.0049  0.3340
 7530W        W23147  15.878  11.802   4.515 -0.1655  0.1444  0.2581
 7531W        W23148  12.378  17.248   4.037 -0.0042  0.1007 -0.1989
 7532W        W23149   0.874   6.680   0.187  0.0078  0.2608  0.0471
 7533W        W23150  18.437  15.036  11.040  0.0234 -0.2428  0.1466
 7534W        W23151   8.168  16.568   0.985 -0.1376 -0.0988  0.0941
 7535W        W23152   1.615  17.370   1.400 -0.1423  0.2894  0.1256
 7536W        W23153  15.203   5.705   1.468 -0.3387  0.1777 -0.1296
 7537W        W23154   2.520   8.145  14.277 -0.3531 -0.0624 -0.2074
 7538W        W23155   3.932  12.316   0.620  0.1018 -0.1241 -0.4948
 7539W        W23156   3.934   8.050  14.111  0.2221  0.0746 -0.0132
 7540W        W23157   0.104  17.403   2.904 -0.0510 -0.2430 -0.0846
 7541W        W23158   1.730   3.181  12.192 -0.1392  0.1287 -0.2583
 7542W        W23159  11.774   3.373  13.697 -0.1949 -0.0180 -0.0722
 7543W        W23160   5.344   8.892   3.621 -0.0480  0.2856  0.0539
 7544W        W23161   3.316   4.853   2.762 -0.1338 -0.3319  0.1959
 7545W        W23162  10.639   3.046   4.434  0.0012 -0.2428 -0.0783
 7546W        W23163   5.013  17.629  15.537  0.1377 -0.0409 -0.1557
 7547W        W23164  14.791  13.991   1.941  0.1839 -0.1721  0.2951
 7548W        W23165   9.453  10.055  10.644  0.0332  0.2248  0.0366
 7549W        W23166  14.176  15.774  13.931 -0.0484 -0.0958  0.1160
 7550W        W23167   5.257  17.277   5.025 -0.1685 -0.5365  0.0688
 7551W        W23168  11.885   6.600   0.199 -0.1144  0.2681  0.2291
 7552W        W23169   1.346   6.666   4.613 -0.0333 -0.0150 -0.0422
 7553W        W23170  11.049  16.322  13.956  0.1364  0.1416 -0.1165
 7554W        W23171  17.801   8.881   4.268  0.3335 -0.1533  0.1142
 7555W        W23172   6.192  12.550   1.909 -0.1478  0.1087  0.1462
 7556W        W23173  15.437  13.458   3.843 -0.1227  0.2703  0.0858
 7557W        W23174  10.318   2.735  12.281  0.0714  0.0570  0.0861
 7558W        W23175   8.081  11.703   3.212 -0.2205 -0.1789  0.1343
 7559W        W23176  15.979  15.632   4.630  0.1193 -0.0607  0.1277
 7560W        W23177  15.556  16.494   1.784  0.0541 -0.1287 -0.0203
 7561W        W23178  11.796   1.420  10.896  0.0091  0.1393 -0.0025
 7562W        W23179   8.476   9.501   5.113  0.0530 -0.1409  0.0312
 7563W        W23180   2.707   7.931   3.161  0.0989 -0.1548  0.1558
 7564W        W23181  12.587  13.076   1.072  0.0185  0.0873  0.0813
 7565W        W23182  12.096  10.375   5.326 -0.0540  0.1998 -0.1059
 7566W        W23183   6.674  15.448   3.693 -0.2321 -0.0626  0.0452
 7567W        W23184  18.655  10.246   1.321 -0.0315 -0.0980 -0.2739
 7568W        W23185   0.363   5.329   1.839 -0.0106 -0.0668 -0.1125
 7569W        W23186   5.672  11.013   2.421 -0.0284 -0.1066  0.0196
 7570W        W23187   4.691   7.566   3.033 -0.0410 -0.1449 -0.0031
 7571W        W23188  14.087  18.065   2.634 -0.2319  0.3449 -0.1214
 7572W        W23189   9.580  10.672   3.093 -0.0543  0.0438  0.0243
 7573W        W23190  17.045   7.804   0.925  0.1529  0.2615  0.0043
 7574W        W23191   3.977   0.995   2.088  0.1303 -0.0140  0.3712
 7575W        W23192   5.689   0.563  14.060 -0.2130  0.1169  0.0461
 7576W        W23193  17.507   8.030  11.350  0.1189  0.1960  0.1922
 7577W        W23194  13.054   4.548   6.568 -0.0097 -0.1703  0.1632
 7578W        W23195  16.452  13.430  11.950  0.5056 -0.1854  0.0678
 7579W        W23196   2.635   9.490  13.645  0.0793 -0.0569 -0.2335
 7580W        W23197  14.646   2.840   5.400  0.0138 -0.0577 -0.2067
 7581W        W23198   2.328   5.908   3.949  0.0019 -0.0739 -0.1002
 7582W        W23199   3.047   3.905  12.697 -0.0644  0.1599  0.0442
 7583W        W23200  13.067  11.546   1.181  0.0881  0.3208  0.2677
 7584W        W23201  10.159  10.293   2.410 -0.0942  0.0331 -0.1575
 7585W        W23202   0.895  13.316   2.234  0.1515  0.1205  0.0105
 7586W        W23203   8.089   7.165   4.513  0.0672 -0.0734  0.0274
 7587W        W23204   6.539   2.093   4.254  0.4683 -0.0124  0.2482
 7588W        W23205  16.019  10.916  10.350 -0.1557 -0.1892 -0.0434
 7589W        W23206  18.607   9.475   2.707  0.0673 -0.0235  0.0050
 7590W        W23207   6.074   3.347  12.686 -0.0529 -0.0232 -0.0530
 7591W        W23208  17.040   2.197   4.617  0.0573  0.1351  0.0565
 7592W        W23209   5.008   9.225   1.077  0.1396 -0.0880  0.3165
 7593W        W23210   9.249   6.575  13.635  0.2966 -0.2413  0.2073
 7594W        W23211  16.561   0.662   0.231 -0.4408  0.2175 -0.0659
 7595W        W23212   2.281  18.332  14.137 -0.4109  0.0288 -0.0397
 7596W        W23213   5.543  13.600  14.861  0.2699  0.0211 -0.1501
 7597W        W23214  17.398  14.921   2.532 -0.0874 -0.1358  0.1148
 7598W        W23215   5.580   6.621  15.256  0.1354  0.1559  0.1278
 7599W        W23216   4.865   8.863  14.380  0.2451  0.1434 -0.3974
 7600W        W23217  10.139   6.533  13.243  0.7730  0.4585  0.0582
 7601W        W23218   2.383   5.753  11.035  0.4573 -0.1201 -0.0263
 7602W        W23219   6.789  14.113   3.233  0.1332 -0.0839 -0.0058
 7603W        W23220  13.937   7.167  11.050  0.0351 -0.1331 -0.0547
 7604W        W23221  14.527   7.199  14.846 -0.0953 -0.1520 -0.3051
 7605W        W23222  12.809   5.540   3.729 -0.1396 -0.2178 -0.0582
 7606W        W23223  17.566   7.613  14.377 -0.1678 -0.0286  0.1077
 7607W        W23224   2.998  18.572   0.458 -0.0224 -0.2000 -0.0360
 7608W        W23225  13.162  16.022  15.676 -0.1662 -0.1298 -0.1252
 7609W        W23226   2.482   6.911  13.391 -0.1436 -0.1201  0.3199
 7610W        W23227  12.581   5.596  13.632 -0.2500 -0.1912 -0.1359
 7611W        W23228   6.660  16.370  13.671  0.1265 -0.2072  0.2598
 7612W        W23229  16.180  14.253   2.513  0.3222  0.2266  0.0265
 7613W        W23230   2.687   7.871   4.532 -0.1013 -0.1389  0.0028
 7614W        W23231  10.689   9.343  15.308  0.1546  0.1305 -0.1285
 7615W        W23232  10.950   2.744  15.292 -0.0317 -0.1055 -0.2208
 7616W        W23233  11.132   0.333   1.179  0.0804  0.1488  0.2037
 7617W        W23234   7.386  17.992  15.462 -0.3075  0.2295 -0.2081
 7618W        W23235   5.636  16.680  12.713 -0.0773  0.2378 -0.0776
 7619W        W23236  16.808   6.906  11.553 -0.0557 -0.2162 -0.1880
 7620W        W23237   7.566  14.274  12.381  0.0293 -0.0409 -0.2796
 7621W        W23238  11.287   7.884   3.647 -0.2132 -0.2062  0.1553
 7622W        W23239   6.052  14.833  15.650  0.1986 -0.1053  0.3075
 7623W        W23240   8.273   9.137  13.243  0.1287 -0.1080 -0.2310
 7624W        W23241  14.221   8.647  10.963 -0.2366 -0.2418  0.1074
 7625W        W23242  15.754   3.583  12.304  0.0530 -0.0701  0.1231
 7626W        W23243  14.232  18.009   2.111 -0.2235 -0.0250  0.0949
 7627W        W23244  13.736  15.274   0.564 -0.0044  0.0891 -0.1557
 7628W        W23245  12.726   6.264   4.245 -0.3191 -0.0734  0.3342
 7629W        W23246   2.334  17.810  11.036  0.0714  0.1830  0.4578
 7630W        W23247   5.649  15.408   3.162 -0.0259 -0.0513 -0.4318
 7631W        W23248  12.082   8.215   0.293  0.0616 -0.1341  0.1515
 7632W        W23249   7.528  12.966   4.071  0.1303 -0.1592  0.0669
 7633W        W23250  12.681  16.044  12.495 -0.1193 -0.1349  0.1651
 7634W        W23251  11.415  16.444   0.650 -0.0451 -0.0948  0.0628
 7635W        W23252   8.906   7.614   1.581  0.2483  0.1438 -0.0068
 7636W        W23253  12.492  15.093  15.762 -0.2653  0.1227  0.5473
 7637W        W23254   7.734   0.511  15.370  0.4158 -0.1298 -0.0342
 7638W        W23255   8.665   5.397   3.983  0.0563 -0.0176  0.1725
 7639W        W23256   7.742   4.187   2.853  0.0423 -0.1850 -0.1512
 7640W        W23257   1.845   5.351   1.205 -0.1733 -0.0702 -0.0756
 7641W        W23258   3.021   4.719   0.755  0.0382 -0.1594  0.0402
 7642W        W23259  12.162   3.158   4.903 -0.0982  0.1507 -0.2361
 7643W        W23260   6.499  15.608   1.293  0.1275  0.5351 -0.0070
 7644W        W23261   8.821  12.199   2.262 -0.2313  0.2527 -0.0930
 7645W        W23262   8.675  15.845   1.241 -0.1284 -0.1187  0.3505
 7646W        W23263   4.366   0.716  12.309 -0.3875 -0.0824  0.1602
 7647W        W23264   7.835   2.661   0.953  0.1157 -0.2498 -0.4320
 7648W        W23265   9.670  17.805  12.339  0.0040  0.0035  0.2833
 7649W        W23266  12.544   4.164  14.538 -0.0145  0.0281 -0.0581
 7650W        W23267   6.831   6.221   3.270 -0.1876 -0.5756  0.1025
 7651W        W23268  12.576  13.754  12.379  0.0165  0.3714 -0.4168
 7652W        W23269  11.530  15.058   3.834  0.0939  0.0084  0.3014
 7653W        W23270   7.919   4.123  11.398 -0.2668 -0.0406  0.2237
 7654W        W23271   3.944  12.966  12.241  0.0168  0.1677  0.2055
 7655W        W23272  14.587  17.544   5.334  0.0727  0.1690 -0.0687
 7656W        W23273  14.825  12.621   4.757 -0.1933 -0.1300 -0.1791
 7657W        W23274  11.467   2.742  14.058 -0.3147 -0.0040  0.4356
 7658W        W23275  18.105  15.741  13.525  0.2450  0.1620  0.0524
 7659W        W23276   7.478   3.088   2.188  0.2384  0.4269  0.3413
 7660W        W23277  14.286  16.411  11.308  0.0723  0.1822  0.0183
 7661W        W23278   5.306  10.304   4.370  0.2230 -0.2491 -0.0065
 7662W        W23279  13.275   6.654   1.188  0.1458 -0.5970  0.0213
 7663W        W23280   9.739  13.024  15.017  0.3008 -0.3751  0.0004
 7664W        W23281  18.502  11.278   5.578 -0.0905  0.0477  0.1923
 7665W        W23282   6.294  10.154  10.748  0.0523 -0.0807  0.4898
 7666W        W23283   2.684   5.457  13.790 -0.1696  0.2627  0.0460
 7667W        W23284   1.021  12.446  12.712  0.2002  0.3498  0.2948
 7668W        W23285  13.092   0.959  14.530  0.0082 -0.1497 -0.1275
 7669W        W23286   3.100  14.430  11.655 -0.1672 -0.2690  0.0134
 7670W        W23287   8.516  14.205   1.269  0.1880 -0.1337  0.4069
 7671W        W23288  17.776  17.111   0.152  0.2598 -0.0242 -0.0909
 7672W        W23289   0.465  12.159  13.675 -0.1629  0.1818 -0.0948
 7673W        W23290   8.030   6.329  10.388  0.0438  0.2305 -0.0909
 7674W        W23291  14.898   7.071  13.156  0.0981 -0.1070 -0.1433
 7675W        W23292   6.960  16.069  11.182  0.2288 -0.0762  0.4963
 7676W        W23293  14.735  10.469  11.961 -0.2088  0.1750 -0.1094
 7677W        W23294   3.181   7.611  15.679 -0.1450  0.1259  0.0246
 7678W        W23295   0.658  17.968   5.089  0.0935 -0.4811  0.0559
 7679W        W23296   3.061   1.010   1.283 -0.0991 -0.0924 -0.0256
 7680W        W23297   4.693  14.773  10.775 -0.1437  0.4403  0.2671
 7681W        W23298   5.768  18.421   0.490  0.2525  0.1780 -0.0198
 7682W        W23299   2.024  10.150  12.018 -0.1173 -0.1611 -0.1816
 7683W        W23300   7.541   1.028   2.604 -0.0045 -0.1456  0.1923
 7684W        W23301   1.946  12.103  13.205 -0.0068  0.3227  0.3844
 7685W        W23302  17.280   2.913  12.257 -0.1536  0.2050 -0.0225
 7686W        W23303  17.553  11.808   2.421  0.0357  0.0768 -0.0326
 7687W        W23304   1.234  10.610  14.253 -0.0311  0.3911 -0.0343
 7688W        W23305   7.778  18.646  15.330 -0.0616 -0.0677  0.0304
 7689W        W23306   9.347   1.050  13.116 -0.3067 -0.0665  0.2766
 7690W        W23307   1.549   3.587   0.818 -0.0714 -0.0085 -0.4414
 7691W        W23308   7.533  15.593   2.899 -0.1180  0.0804  0.3171
 7692W        W23309  17.515   5.315   3.279 -0.1440 -0.1723 -0.0119
 7693W        W23310  10.672  11.953  15.650 -0.0301  0.2154 -0.0923
 7694W        W23311  15.445   7.769   0.971 -0.0537 -0.2192  0.0599
 7695W        W23312   1.920  11.299   3.262 -0.3221 -0.0413  0.2429
 7696W        W23313   0.227   5.080  15.471  0.1871 -0.1081 -0.1777
 7697W        W23314  17.681  14.637  10.931 -0.0063  0.0063 -0.3048
 7698W        W23315   0.094  11.981  10.971  0.1001 -0.3386 -0.1735
 7699W        W23316  16.945   9.728  15.220  0.0362  0.0403  0.1290
 7700W        W23317   9.678  14.957  13.936  0.3351  0.3077  0.1848
 7701W        W23318  14.061  12.556  13.910 -0.3290  0.1955  0.4266
 7702W        W23319   2.886   8.863   4.043 -0.0945  0.1354  0.0891
 7703W        W23320  10.747   0.004   4.135 -0.1016  0.0439  0.0584
 7704W        W23321  12.986  17.842   2.783  0.1593  0.2664  0.0516
 7705W        W23322   0.385   0.324   1.203  0.0872  0.3210  0.1850
 7706W        W23323   8.765   6.676  13.073  0.0425  0.0779  0.0165
 7707W        W23324   3.165   5.271  11.335 -0.1146 -0.0947  0.5414
 7708W        W23325  10.106   0.540   2.959  0.0905  0.0179 -0.2476
 7709W        W23326   8.525  15.252  14.218  0.5499 -0.0109  0.0768
 7710W        W23327   9.892  15.627  11.086 -0.2672  0.0806  0.1120
 7711W        W23328  15.318   3.122   4.192 -0.1339  0.0825 -0.1476
 7712W        W23329  14.948  14.765   4.094 -0.3622 -0.2331  0.1440
 7713W        W23330   7.302  13.031   2.487  0.0648 -0.0905  0.0279
 7714W        W23331   3.572   2.583   5.020  0.2759  0.0371  0.3338
 7715W        W23332   0.973   9.932   4.562 -0.0929  0.1619  0.2184
 7716W        W23333  18.443  10.692   4.260 -0.3406 -0.1528  0.0337
 7717W        W23334   6.323  12.448  15.368  0.0103  0.2164  0.1166
 7718W        W23335   7.912   1.828   1.296 -0.0948  0.0075 -0.2343
 7719W        W23336   0.779   5.806   4.537 -0.2190 -0.3412  0.2757
 7720W        W23337   3.116  12.707  11.225 -0.3780 -0.2005  0.3309
 7721W        W23338  16.762   4.049   6.274 -0.1156 -0.1725  0.0947
 7722W        W23339  12.673  11.159  11.694  0.0737 -0.3081 -0.0314
 7723W        W23340   0.992   6.078   0.221  0.3458  0.1676 -0.0789
 7724W        W23341  17.826   8.188   0.043 -0.0155 -0.0142 -0.2197
 7725W        W23342  13.690  15.540   4.631 -0.0161  0.0874 -0.1492
 7726W        W23343   9.812  17.849  13.781  0.1068  0.2990 -0.1764
 7727W        W23344   2.577   4.034  13.682 -0.1723 -0.2571 -0.0207
 7728W        W23345   3.611   3.961  12.913 -0.0623 -0.0635  0.2199
 7729W        W23346   3.654   8.473  11.451  0.1562 -0.2759 -0.0399
 7730W        W23347   2.646   5.464   2.577  0.1369 -0.1888 -0.2037
 7731W        W23348   4.904  11.411   2.120 -0.1352  0.1782 -0.1137
 7732W        W23349  13.937  11.453  14.715 -0.2826  0.1019  0.1768
 7733W        W23350  10.415  18.010  12.525  0.1367  0.3432  0.2955
 7734W        W23351  14.340   9.060   4.803 -0.0411  0.0190 -0.0457
 7735W        W23352   4.191  10.439  13.978 -0.0114 -0.2118  0.2952
 7736W        W23353   7.916   5.028   4.106 -0.1995  0.0193 -0.1736
 7737W        W23354   3.549  16.293   0.213 -0.0175  0.0398  0.0781
 7738W        W23355   6.290  11.633  14.479 -0.4395  0.1081  0.2539
 7739W        W23356   7.484  11.180  10.593 -0.1532  0.0332 -0.0547
 7740W        W23357  18.015  13.768  13.362  0.0451 -0.2204  0.0323
 7741W        W23358  17.270  15.265   3.815  0.1159 -0.0191  0.1021
 7742W        W23359   1.160   3.192  13.350 -0.1809  0.1659  0.1185
 7743W        W23360  11.433  18.126   1.493 -0.0052 -0.3403 -0.1121
 7744W        W23361   6.767   2.607   3.030  0.0411  0.0298  0.2266
 7745W        W23362   2.148   9.893   0.792  0.1518 -0.0957 -0.0986
 7746W        W23363  17.900  16.886  11.286  0.1146 -0.3766 -0.2632
 7747W        W23364  12.653   9.989   1.778  0.2104  0.0145 -0.1339
 7748W        W23365   5.198   8.281   2.948 -0.0804  0.2776 -0.0246
 7749W        W23366   2.367   7.421   4.836 -0.1025 -0.0582  0.0510
 7750W        W23367   4.920   2.696  15.749 -0.0033 -0.0504  0.0482
 7751W        W23368   8.090  14.999   3.960 -0.0491 -0.0217  0.2567
 7752W        W23369  15.562   9.350   3.065 -0.3839 -0.1069 -0.4642
 7753W        W23370  13.418  14.178   4.055  0.1748 -0.1105  0.0054
 7754W        W23371  11.556  18.075  11.822 -0.3184  0.1395 -0.2905
 7755W        W23372  10.686  13.159  11.965  0.1702  0.1081  0.2092
 7756W        W23373  17.560  10.903   1.350 -0.2664 -0.0098 -0.0191
 7757W        W23374   4.001   9.556   2.268 -0.1969  0.1646 -0.1292
 7758W        W23375  18.278  15.429  10.756  0.0398 -0.2035  0.0027
 7759W        W23376  10.015  14.696   0.650  0.1634  0.1412  0.1022
 7760W        W23377   6.236  17.726  10.274  0.0080  0.2120  0.0505
 7761W        W23378  11.783   3.120   0.976 -0.1057  0.3372  0.3548
 7762W        W23379  12.623   4.327   2.215 -0.0539 -0.1781  0.0839
 7763W        W23380   8.152  15.175   1.354 -0.3807 -0.0254  0.1587
 7764W        W23381   6.314  11.685  13.940 -0.1829 -0.3631 -0.0055
 7765W        W23382  16.587   4.281   2.841 -0.3182 -0.2239  0.2527
 7766W        W23383   3.407   3.383   0.438  0.1192  0.0440 -0.2209
 7767W        W23384  16.900   9.046  11.196 -0.0620 -0.3330  0.0826
 7768W        W23385  12.894  11.715   3.786 -0.1265  0.3568  0.0207
 7769W        W23386  14.842   7.548   2.636 -0.1226  0.0567  0.1807
 7770W        W23387  13.963   1.872   1.093  0.0795 -0.1780  0.1582
 7771W        W23388   7.879  16.601   2.899 -0.0286  0.1166 -0.2606
 7772W        W23389   9.359  18.189   2.216 -0.0446 -0.1102 -0.0265
 7773W        W23390   6.195  10.592   3.420 -0.0604 -0.1383  0.1646
 7774W        W23391   1.251  15.771  14.565 -0.2285 -0.0188  0.1616
 7775W        W23392  15.424  12.907  13.481 -0.2091  0.1713 -0.0682
 7776W        W23393  12.753   9.143   5.203 -0.0399 -0.3713  0.0325
 7777W        W23394   4.246  13.348   1.323  0.2472  0.2289 -0.3739
 7778W        W23395   5.341   1.688  12.461 -0.1964 -0.1488  0.1483
 7779W        W23396  11.043   9.722   2.911 -0.0908 -0.1520 -0.1315
 7780W        W23397  11.710   9.035  14.410  0.0085  0.2988  0.2697
 7781W        W23398   0.500  14.423  13.454  0.1858 -0.1431  0.2652
 7782W        W23399   6.766  11.149   2.033  0.1661  0.1250 -0.0383
 7783W        W23400   0.933   1.213   1.468  0.2142 -0.0500  0.2066
 7784W        W23401   2.303   0.877  12.137 -0.0454 -0.0275 -0.0677
 7785W        W23402   6.935   9.802  14.407  0.1025 -0.1580  0.2888
 7786W        W23403  16.717   2.953  12.783 -0.0319 -0.1127 -0.0424
 7787W        W23404   1.061   0.074   2.473 -0.1719  0.0985  0.2267
 7788W        W23405  16.269   3.697  13.585 -0.2170 -0.1681  0.3010
 7789W        W23406   8.617   0.495   4.138  0.3338 -0.3494  0.0600
 7790W        W23407  17.683   6.821   0.726  0.3162  0.3406  0.0355
 7791W        W23408   3.889   5.837   5.346 -0.1630 -0.3750 -0.1083
 7792W        W23409   5.453   1.862   0.395  0.2998 -0.3349  0.1929
 7793W        W23410  11.320  11.894  15.744  0.0815 -0.1919 -0.1242
 7794W        W23411   3.494   2.072   0.601 -0.1414  0.3958 -0.3734
 7795W        W23412   5.457  15.766   0.838 -0.0789 -0.2017 -0.4280
 7796W        W23413  18.585   4.792  14.563 -0.0527  0.1852  0.0529
 7797W        W23414  17.900   8.452  11.419 -0.1530 -0.0549  0.0337
 7798W        W23415  13.446  11.294   1.112 -0.1270  0.0633 -0.0022
 7799W        W23416   5.659  16.555   4.001  0.1794  0.1521  0.0405
 7800W        W23417   4.476  15.732   1.094  0.0485 -0.1189  0.0619
 7801W        W23418   2.822  11.789   1.818 -0.0670 -0.0018  0.1048
 7802W        W23419  14.716   1.427  15.747 -0.4787 -0.2305  0.0934
 7803W        W23420  18.151   7.907  13.160  0.0912 -0.1194  0.0375
 7804W        W23421   3.899  13.320   4.328 -0.1291 -0.0498 -0.1705
 7805W        W23422  14.429  16.562   5.479  0.0427 -0.0180  0.1009
 7806W        W23423   6.107  13.528   4.018  0.0970  0.2053 -0.0842
 7807W        W23424  18.491  14.906   1.031 -0.4766  0.0582 -0.0659
 7808W        W23425   1.274  16.652   0.835 -0.3557 -0.3275 -0.0401
 7809W        W23426  18.226   2.319  15.517 -0.2588 -0.0800 -0.2890
 7810W        W23427  14.803  16.743  12.669  0.0801 -0.0281  0.2594
 7811W        W23428   2.706   4.277   5.451  0.2194 -0.0595 -0.2060
 7812W        W23429  16.287   8.642   0.555 -0.1501 -0.0306  0.3116
 7813W        W23430   3.039   9.695   0.684 -0.1847  0.0747 -0.1403
 7814W        W23431   8.879   8.047  15.643  0.2946  0.1589 -0.1448
 7815W        W23432  13.801   9.685  13.783 -0.1751 -0.0546  0.3462
 7816W        W23433   5.998   6.668  12.751 -0.0798 -0.0394  0.0459
 7817W        W23434  17.183  12.720   1.171  0.0596 -0.0967 -0.1938
 7818W        W23435   1.719  15.455   2.929  0.0488 -0.3049 -0.0988
 7819W        W23436  15.713  12.034   3.831  0.4610  0.1976  0.0050
 7820W        W23437   6.044  11.036  10.728  0.1871 -0.0359 -0.2439
 7821W        W23438   2.326  10.691   4.610  0.1324 -0.1245  0.0248
 7822W        W23439  17.522   5.248   0.355  0.0418 -0.0432 -0.1288
 7823W        W23440  15.875   5.886   5.657 -0.1170  0.1485  0.2674
 7824W        W23441  13.011   0.522   1.216  0.1612  0.0676 -0.2560
 7825W        W23442   1.099   8.343  13.550  0.3262 -0.1533 -0.0829
 7826W        W23443   1.512   5.691  15.283 -0.0666  0.1503 -0.3959
 7827W        W23444  11.624   5.007  14.868  0.0597 -0.1981  0.0376
 7828W        W23445   6.751   7.584  14.203  0.1382 -0.2257 -0.0775
 7829W        W23446  15.189  15.228   4.011 -0.1540 -0.0177 -0.0410
 7830W        W23447   2.758   2.097   4.701  0.1884 -0.0844  0.1185
 7831W        W23448   2.858   0.356  13.394 -0.0488 -0.2056  0.2929
 7832W        W23449   3.348   1.307  15.355  0.0891 -0.1083 -0.0522
 7833W        W23450   4.836  18.229   4.298  0.1476  0.0302 -0.3909
 7834W        W23451   8.185  16.203   3.093 -0.2736  0.3636 -0.0520
 7835W        W23452   7.938  14.468  13.108 -0.0423  0.2116  0.3330
 7836W        W23453  14.975   1.189   5.889  0.1178 -0.0529  0.2674
 7837W        W23454  11.782  12.186  13.930 -0.2625  0.1608  0.0572
 7838W        W23455   5.757   7.458  11.315 -0.0353 -0.3438 -0.0662
 7839W        W23456   7.939  11.824  15.133  0.0318 -0.0893  0.1701
 7840W        W23457   2.443  11.927   3.074 -0.2891  0.2044 -0.1488
 7841W        W23458   7.606  13.352  11.910  0.0423  0.2949 -0.4294
 7842W        W23459   8.974   0.749   6.170  0.1888 -0.0074 -0.2365
 7843W        W23460   8.721  13.240   0.419  0.0754  0.1677  0.1672
 7844W        W23461  12.901   6.416  14.334  0.0150 -0.0702  0.3835
 7845W        W23462   5.672   1.102   0.770 -0.1542 -0.1635 -0.1328
 7846W        W23463   8.809   6.156   1.650  0.3980  0.0462 -0.0989
 7847W        W23464   1.066   3.443   0.658 -0.2105 -0.0460 -0.0789
 7848W        W23465  18.377   0.400   1.823  0.4144  0.1987  0.1017
 7849W        W23466  17.261  17.274   0.358  0.2296  0.1481 -0.3517
 7850W        W23467   6.743  13.295  11.242  0.1091 -0.0193  0.1568
 7851W        W23468   0.371   5.595  15.620 -0.0472 -0.0574  0.1847
 7852W        W23469   2.433   2.911   2.690 -0.4171  0.0879 -0.0550
 7853W        W23470   7.924   7.535  14.942 -0.0600  0.0847 -0.1249
 7854W        W23471   4.352  14.559   4.401 -0.3426 -0.0397  0.0407
 7855W        W23472  15.319  13.682  12.454  0.0902 -0.3038 -0.2883
 7856W        W23473   1.973   9.327  11.335 -0.0395  0.3821 -0.2834
 7857W        W23474  14.803  10.832   1.431  0.1645  0.1342 -0.1234
 7858W        W23475   2.174   5.689  14.567  0.2468  0.2568 -0.2651
 7859W        W23476  18.243  15.236  12.813 -0.0481  0.4221 -0.2432
 7860W        W23477   1.348  12.989  13.909 -0.1443 -0.0353 -0.1938
 7861W        W23478   3.045   0.476  15.771  0.0342 -0.2367  0.1780
 7862W        W23479  11.226   8.729   3.286 -0.1909  0.1121 -0.2171
 7863W        W23480  17.338   9.581  13.081 -0.1597  0.1220  0.2305
 7864W        W23481   6.231  18.509  14.167 -0.2638 -0.2050  0.1998
 7865W        W23482   1.233   8.486  12.660 -0.0145 -0.0448  0.0271
 7866W        W23483   4.014   2.296  11.082  0.5528  0.1036  0.1421
 7867W        W23484  12.804   0.960   4.869  0.0966  0.1402  0.3034
 7868W        W23485   0.621  17.640   0.487  0.0152 -0.0567 -0.2746
 7869W        W23486   6.035  12.413  10.526  0.0913 -0.0784 -0.0611
 7870W        W23487   4.841   8.728  11.882 -0.0970 -0.3101 -0.1996
 7871W        W23488  18.329  18.527   0.654  0.4872  0.0184  0.2700
 7872W        W23489  10.476   6.398  15.295 -0.0438  0.3556 -0.1294
 7873W        W23490   7.187   7.133  13.380 -0.0404  0.0702 -0.1198
 7874W        W23491   2.288   1.473  12.596 -0.1112 -0.0436  0.1871
 7875W        W23492   0.290   7.090  13.079  0.0410  0.4637  0.1137
 7876W        W23493  10.395  12.162  14.798 -0.0522  0.0469 -0.1242
 7877W        W23494  15.457  12.668   2.166 -0.2241  0.0539  0.0729
 7878W        W23495   7.224  10.034   3.501 -0.1712 -0.0694  0.0457
 7879W        W23496   5.270  13.365  15.626 -0.2867 -0.1520 -0.0963
 7880W        W23497   8.789  15.457  12.569 -0.0098 -0.1409 -0.0683
 7881W        W23498  17.072   4.790   5.088  0.1000  0.1330  0.1521
 7882W        W23499   1.295   3.700   6.256 -0.2398  0.1077 -0.1077
 7883W        W23500   3.957  11.888   4.708 -0.0587 -0.1096  0.1296
 7884W        W23501  17.929   7.205  12.649 -0.0426  0.1685  0.1489
 7885W        W23502  14.793  12.092  12.934  0.1112  0.0661 -0.1826
 7886W        W23503   4.109   4.972   3.907 -0.0346 -0.3281 -0.3644
 7887W        W23504  10.789   4.555  14.509 -0.0996  0.5661  0.1824
 7888W        W23505   2.733   6.733  12.894 -0.2284 -0.0531  0.1031
 7889W        W23506   3.175   0.229  11.654  0.3246  0.2633  0.2311
 7890W        W23507  17.828   4.832   0.086 -0.0209 -0.1326 -0.2135
 7891W        W23508  15.537  16.407  13.985 -0.1596  0.1793  0.0713
 7892W        W23509   8.114   7.890   2.015  0.2672 -0.1021 -0.0978
 7893W        W23510  15.672   8.058  12.293 -0.1226  0.0607 -0.1740
 7894W        W23511  10.415   2.984   1.886 -0.2455 -0.0248  0.2307
 7895W        W23512  15.122   0.578  11.727 -0.1977 -0.0517 -0.0198
 7896W        W23513   5.792   0.601   1.010 -0.0645  0.1947  0.2261
 7897W        W23514  15.702   4.681   2.881  0.3207 -0.2565  0.2083
 7898W        W23515   1.453   7.835   4.880 -0.0454  0.0745 -0.2974
 7899W        W23516   4.880  10.634  13.537  0.0384  0.1936  0.1058
 7900W        W23517   2.164  13.743  12.098 -0.2095 -0.1187  0.1714
 7901W        W23518   9.620   8.220  13.025 -0.0108 -0.0641  0.2200
 7902W        W23519   6.622   3.281   0.788  0.1416 -0.2404  0.1957
 7903W        W23520   5.328   1.376  13.111  0.1299 -0.1554  0.1389
 7904W        W23521   0.158   0.750   3.335  0.1163  0.0130  0.0268
 7905W        W23522  13.312  12.478  11.158 -0.0496 -0.0737 -0.2721
 7906W        W23523   6.506   1.551   0.910 -0.2871 -0.0940 -0.0060
 7907W        W23524   4.610   9.450   2.321 -0.0126 -0.0459  0.1452
 7908W        W23525   1.596   7.778  15.629  0.1656  0.1035 -0.0899
 7909W        W23526   9.684   5.574  10.568  0.3154 -0.0802 -0.0823
 7910W        W23527   4.710   0.271  11.002  0.1102  0.0530 -0.0234
 7911W        W23528  15.408  12.509   2.620  0.1946 -0.1573 -0.1815
 7912W        W23529   0.059   1.463  14.558 -0.0444 -0.1095  0.2936
 7913W        W23530   2.631   1.862  13.914 -0.0756 -0.0787  0.2425
 7914W        W23531   9.475  13.649  11.619 -0.0643  0.1077  0.3946
 7915W        W23532  14.577  10.119  13.479 -0.5867 -0.3885  0.0438
 7916W        W23533   0.237  11.563   2.638 -0.0230  0.1458 -0.1750
 7917W        W23534   2.128  18.437   2.864 -0.0529  0.1220 -0.0110
 7918W        W23535   8.931   4.627   1.804 -0.1153  0.4412 -0.1676
 7919W        W23536  11.165  14.555   4.832  0.4757  0.0076  0.3981
 7920W        W23537   9.145   9.341  12.846 -0.0620 -0.4333 -0.1220
 7921W        W23538  15.755   0.825   1.341  0.1457 -0.1508 -0.2429
 7922W        W23539   0.327  13.404  15.003  0.0728  0.0076 -0.2801
 7923W        W23540  16.533  10.550  11.044 -0.5979 -0.3343 -0.1119
 7924W        W23541  15.438  17.384   5.723  0.3068 -0.1286  0.4770
 7925W        W23542  10.351  12.192   0.388 -0.0212 -0.3240 -0.1923
 7926W        W23543  15.195   2.188   3.962 -0.2651 -0.0982 -0.0885
 7927W        W23544  13.019   1.389   1.817 -0.0180 -0.1547  0.1682
 7928W        W23545   2.878   3.999   2.257  0.0429 -0.0835 -0.0862
 7929W        W23546   0.655  14.247  14.733 -0.0969  0.0001  0.4470
 7930W        W23547  13.193  13.347  15.141 -0.3492  0.1536  0.5226
 7931W        W23548   2.136  13.450   0.661  0.0132 -0.1174 -0.1424
 7932W        W23549   7.443  11.342   2.163 -0.0793  0.1310  0.0273
 7933W        W23550  12.760  18.021   0.519 -0.2533  0.2571 -0.0495
 7934W        W23551  17.248  11.181   1.687 -0.0683 -0.0235 -0.0350
 7935W        W23552   6.359  15.985  13.852 -0.2452 -0.2524  0.0017
 7936W        W23553  10.003   5.426   1.107  0.0655  0.2503 -0.0357
 7937W        W23554   4.011   6.402   5.242 -0.0079  0.0415  0.1719
 7938W        W23555   9.465   8.003   2.286  0.1403  0.0940  0.1437
 7939W        W23556  16.136   4.680  10.879 -0.0419 -0.1596 -0.4366
 7940W        W23557   4.019   8.669  13.268 -0.0681 -0.1768  0.0507
 7941W        W23558   0.783  17.916   0.068  0.2677  0.1788  0.3405
 7942W        W23559   1.446  13.571  11.512  0.1368  0.0736  0.1372
 7943W        W23560   6.318  10.470   1.649 -0.0701  0.0090  0.2301
 7944W        W23561  10.851   1.696  14.696 -0.0858 -0.1879  0.2514
 7945W        W23562  17.734   1.822  12.519 -0.2951  0.0995  0.1720
 7946W        W23563   3.644   2.943  12.124 -0.4430  0.1268  0.1903
 7947W        W23564   4.271   4.571  11.457  0.2831 -0.1554 -0.1488
 7948W        W23565   6.706  10.472  15.471  0.0269  0.1228  0.2133
 7949W        W23566  11.556  13.328   2.998 -0.2354  0.0433 -0.0560
 7950W        W23567  14.758  10.194  12.520 -0.3998  0.1152 -0.2327
 7951W        W23568  16.800   6.465   3.848 -0.2173  0.0577  0.0594
 7952W        W23569   1.536   5.896  11.041  0.1254  0.0736  0.2516
 7953W        W23570   3.899  16.497   2.020 -0.1563  0.1151 -0.1612
 7954W        W23571   1.527   2.399  11.991  0.2199  0.1838 -0.5351
 7955W        W23572   7.543  17.910   1.907 -0.1305 -0.1647  0.3454
 7956W        W23573   2.764   0.282  14.857  0.1940  0.1637  0.3188
 7957W        W23574  13.598  14.136   3.013  0.0440 -0.0526 -0.0197
 7958W        W23575  14.903  11.826   4.224  0.1112  0.1859  0.0101
 7959W        W23576   9.249   5.415   0.882  0.0104  0.1839 -0.0749
 7960W        W23577  18.252  15.135  12.310 -0.3711 -0.2929 -0.0552
 7961W        W23578  15.186  10.029   0.726 -0.2540  0.2432 -0.3226
 7962W        W23579   9.811   8.676   1.412  0.2968  0.0927 -0.1268
 7963W        W23580  17.032  18.103   0.928  0.0334 -0.0377 -0.0770
 7964W        W23581  14.449   1.807  14.031 -0.0986  0.0009  0.0112
 7965W        W23582   5.340  11.443   2.302 -0.3074  0.0145 -0.3372
 7966W        W23583   8.263   4.029   5.690  0.1509 -0.2380 -0.1479
 7967W        W23584   2.541   1.837   3.877 -0.0993 -0.1540 -0.1842
 7968W        W23585   4.231  17.251   4.099  0.0903  0.4446 -0.2776
 7969W        W23586   0.342  10.767  11.817 -0.0451  0.1896 -0.1135
 7970W        W23587   2.853  16.035   2.154 -0.2020  0.1967 -0.2015
 7971W        W23588   5.579  16.508   0.335 -0.0994  0.3465 -0.2754
 7972W        W23589   5.696   5.087   0.888 -0.1173 -0.3721  0.2959
 7973W        W23590   8.223  17.955  13.469  0.0482 -0.0241  0.0182
 7974W        W23591  17.091   9.349  10.378  0.0754 -0.1275 -0.1534
 7975W        W23592  15.519   7.820  10.628  0.0731 -0.2218  0.2197
 7976W        W23593   6.720   6.835   2.013  0.1373  0.0854  0.2825
 7977W        W23594  13.463  17.341  12.537  0.2020 -0.1101  0.1470
 7978W        W23595   0.389  15.907   4.372  0.1115  0.0843  0.1816
 7979W        W23596   5.474  16.045   5.195 -0.2764 -0.0459  0.1573
 7980W        W23597   6.055   4.018   5.175 -0.2238  0.0273 -0.1408
 7981W        W23598   1.388  10.913  15.375 -0.0162 -0.0707 -0.1131
 7982W        W23599   2.037   6.024  12.360 -0.1603  0.3542  0.0095
 7983W        W23600  10.579   4.500   4.037 -0.0980 -0.5649  0.0800
 7984W        W23601   8.830   1.324  15.361 -0.0857 -0.0672 -0.2473
 7985W        W23602   1.033  15.815  15.700 -0.0554  0.1875 -0.0601
 7986W        W23603  13.735  10.235  15.513 -0.0569 -0.0480  0.3829
 7987W        W23604   9.779  14.661   4.747 -0.2605 -0.0609  0.1563
 7988W        W23605   0.300  18.538  10.305 -0.1105 -0.2977  0.0569
 7989W        W23606  14.775   5.462   1.270  0.2228 -0.1395  0.0425
 7990W        W23607  18.046   3.296   4.059  0.1750  0.0116  0.1152
 7991W        W23608   2.649  18.512   1.091 -0.1120 -0.0586  0.1570
 7992W        W23609   4.677  14.210   1.324  0.0227  0.1335 -0.0783
 7993W        W23610  12.049   0.423   1.709  0.1109  0.0389  0.1890
 7994W        W23611   1.654  11.879   4.756 -0.0099 -0.0282 -0.2163
 7995W        W23612  16.091   3.295   0.489 -0.1693 -0.0827 -0.4058
 7996W        W23613   4.682  10.317   1.221  0.3243  0.1584  0.1764
 7997W        W23614   9.532   2.962   1.666  0.1208 -0.0940 -0.0504
 7998W        W23615  18.163  12.471   2.125 -0.4109 -0.2235 -0.2777
 7999W        W23616   6.926  11.647   1.932 -0.0863  0.3223  0.0951
 8000W        W23617   0.733  14.547   1.580 -0.1614  0.1467 -0.0983
 8001W        W23618   5.118   3.671   4.623 -0.2968  0.0170  0.0153
 8002W        W23619   7.334  15.936  10.871  0.2542  0.0006  0.1402
 8003W        W23620  12.987  14.245   1.521  0.0871  0.1458 -0.0117
 8004W        W23621  14.250  18.285   5.089  0.1225 -0.0014 -0.1861
 8005W        W23622  16.693   5.975  11.775  0.2980 -0.0950 -0.2724
 8006W        W23623   4.414   7.031   3.146  0.3442  0.2029  0.5060
 8007W        W23624   0.824  12.947  13.883  0.0279  0.0132  0.2467
 8008W        W23625  18.341   0.372  12.081 -0.2465  0.2524 -0.2361
 8009W        W23626   6.857  15.757   0.044  0.5187 -0.0394 -0.4667
 8010W        W23627  12.681   3.899  15.280  0.0583 -0.0833 -0.3110
 8011W        W23628  17.857  15.887   0.904  0.2977  0.0793  0.0411
 8012W        W23629  11.759   6.381   3.160 -0.0993  0.1959  0.4279
 8013W        W23630  17.269   2.640   1.521 -0.2755 -0.0646  0.2125
 8014W        W23631   5.417   0.416   4.024 -0.0515  0.2026  0.1292
 8015W        W23632  12.554  18.495  14.278 -0.2036  0.2230 -0.1326
 8016W        W23633   9.294   2.251  13.411 -0.0000  0.0757 -0.1199
 8017W        W23634  16.479   6.044  13.977  0.1477 -0.2810  0.0214
 8018W        W23635   8.906  13.608  12.977 -0.3503  0.4457  0.2012
 8019W        W23636  10.945   8.916   2.908 -0.1137 -0.0487  0.1444
 8020W        W23637  14.665   7.736  11.893  0.1080 -0.0268  0.0359
 8021W        W23638  10.105   4.487   4.217  0.3500 -0.3587 -0.0519
 8022W        W23639   9.954   4.072   2.549 -0.1486  0.0535 -0.2618
 8023W        W23640   4.424   6.672   0.397 -0.1180  0.0111 -0.0160
 8024W        W23641   8.154   8.273   3.704 -0.3414  0.1653 -0.0745
 8025W        W23642   7.762   1.940  15.562  0.1000 -0.1329  0.0513
 8026W        W23643   8.332  11.056  15.742  0.1235  0.4485 -0.0095
 8027W        W23644   6.092  18.130   1.004  0.0520 -0.0146  0.1725
 8028W        W23645   4.442  12.993  14.675  0.1949 -0.0466 -0.3137
 8029W        W23646   7.133  14.925  11.426 -0.1012 -0.4711  0.0939
 8030W        W23647  12.371   7.035   3.706  0.0543  0.0339  0.3077
 8031W        W23648   1.999   8.288   3.204  0.0775 -0.1698 -0.0177
 8032W        W23649   8.532   6.403   4.597  0.4768 -0.0272  0.2600
 8033W        W23650  10.302   2.877  11.766  0.2087  0.1278 -0.3222
 8034W        W23651   6.315  11.828  12.650  0.2098  0.1687  0.2775
 8035W        W23652  17.799  17.380   4.404  0.1981  0.1169  0.0140
 8036W        W23653   0.375   6.057   1.030 -0.1620 -0.2343  0.0899
 8037W        W23654  13.108  16.361  15.266 -0.1342 -0.1053  0.3602
 8038W        W23655  12.311  16.561   5.756 -0.1191  0.1692 -0.2125
 8039W        W23656  16.923   4.824  12.003  0.3192  0.0677 -0.2095
 8040W        W23657   5.213   8.096   4.041 -0.0008  0.0338 -0.1536
 8041W        W23658  16.949  10.927  15.363 -0.0971 -0.1433  0.3834
 8042W        W23659  16.942  13.075  12.998  0.1996  0.1299 -0.1533
 8043W        W23660   2.388   5.759  14.081  0.0849 -0.1437  0.0990
 8044W        W23661  12.249   0.923   0.187  0.0865  0.2969 -0.1919
 8045W        W23662   2.194   3.904   1.595  0.1938 -0.2106  0.1081
 8046W        W23663  11.979  14.610  15.216  0.1883 -0.3535  0.1112
 8047W        W23664  17.772   1.755   5.389  0.2686 -0.1252  0.3364
 8048W        W23665   6.991   6.721  15.503  0.1976  0.1064  0.2219
 8049W        W23666   6.939   4.733   4.408 -0.1900 -0.0702 -0.0576
 8050W        W23667   1.684  16.304  13.670  0.3550  0.0696 -0.5557
 8051W        W23668   4.237   1.913   1.020 -0.2749 -0.0209 -0.1630
 8052W        W23669  13.401   8.243   1.753 -0.1638 -0.2192 -0.2816
 8053W        W23670   3.620   1.210   2.616 -0.1181 -0.2015  0.0090
 8054W        W23671   3.262   7.649   4.661 -0.1603  0.1517  0.1787
 8055W        W23672  14.603   4.487   0.294  0.1582  0.0364  0.4872
 8056W        W23673  16.532   5.596  12.970  0.0307 -0.1150 -0.2804
 8057W        W23674   7.087  10.664   0.460 -0.1695  0.2166 -0.2251
 8058W        W23675  14.876   3.564  15.579 -0.1331 -0.0875  0.1667
 8059W        W23676   2.894   8.807   2.743  0.0684 -0.0250  0.0613
 8060W        W23677  16.281  14.249  15.474  0.1592 -0.0393  0.0903
 8061W        W23678  15.315  13.180  14.051 -0.1168 -0.0496  0.1515
 8062W        W23679  11.191   7.962  13.917  0.0576  0.3495 -0.1339
 8063W        W23680   8.357   8.006  13.374  0.1366  0.1208 -0.0324
 8064W        W23681   6.704   6.894  12.283 -0.2069 -0.0116 -0.0398
 8065W        W23682   3.236  12.674   0.030  0.3398 -0.1625 -0.1766
 8066W        W23683   1.234  14.190  11.834 -0.0030  0.1054 -0.0514
 8067W        W23684  15.176  15.508   0.399  0.1312 -0.1170 -0.0095
 8068W        W23685  15.469   9.709   5.027  0.1259 -0.1600 -0.2492
 8069W        W23686   9.657   9.231   0.598 -0.3156  0.1524  0.1493
 8070W        W23687  10.174   5.403  12.248 -0.3978  0.2748 -0.0271
 8071W        W23688  12.309  14.424   1.569 -0.1844 -0.1429 -0.0131
 8072W        W23689  11.475  15.201  13.958 -0.1020  0.1070 -0.1795
 8073W        W23690  16.163  12.900  11.254 -0.3198 -0.1153  0.0792
 8074W        W23691  10.134  10.336  11.535 -0.0787  0.1462 -0.0984
 8075W        W23692   9.388  10.494   0.002 -0.1777  0.1266 -0.0221
 8076W        W23693   9.342  14.490   0.041 -0.0358  0.3721 -0.0853
 8077W        W23694   0.998   0.585   4.911  0.0889  0.3144 -0.1012
 8078W        W23695  12.283  13.983   3.166 -0.2843 -0.1727 -0.0850
 8079W        W23696   3.728   5.474   2.517 -0.0445 -0.1940  0.0589
 8080W        W23697   4.880   3.790  12.736 -0.1183 -0.0321 -0.0725
 8081W        W23698  12.003   9.767  12.486 -0.0409  0.0210 -0.0553
 8082W        W23699  10.967  15.000  14.813  0.2337  0.0414  0.1840
 8083W        W23700  12.073   0.314   4.889  0.0191  0.1200 -0.1065
 8084W        W23701   5.006   4.852  11.066  0.1223 -0.1939 -0.1348
 8085W        W23702  10.246   3.758   4.234  0.0932  0.0087 -0.3615
 8086W        W23703  15.200  10.521  11.746  0.1300  0.0137  0.2869
 8087W        W23704   1.517   9.874  12.988 -0.2974  0.4406  0.0947
 8088W        W23705   3.014  17.000   2.091 -0.0940 -0.0471 -0.0498
 8089W        W23706  16.897  17.550   4.835  0.3122 -0.2759 -0.0473
 8090W        W23707   1.246  18.461  13.590 -0.2561 -0.2052  0.0327
 8091W        W23708  10.944  10.634  11.628 -0.1216 -0.1419 -0.0248
 8092W        W23709   9.425  13.465  15.682 -0.2780  0.1675  0.0058
 8093W        W23710   2.942   0.368   4.997 -0.1158  0.3513 -0.0144
 8094W        W23711   3.421  10.814   3.781 -0.0798 -0.0997  0.2569
 8095W        W23712  15.666  17.703  13.679 -0.0482 -0.1495  0.4351
 8096W        W23713   7.014  15.226  15.744  0.0137 -0.0779  0.0965
 8097W        W23714  10.461   4.857  11.361  0.2739 -0.2744  0.0750
 8098W        W23715  12.256  15.519   3.319 -0.0269  0.3800 -0.0851
 8099W        W23716  14.859  17.946   0.125  0.1554 -0.2625 -0.1714
 8100W        W23717  10.311   5.493  15.768 -0.0804  0.1451  0.2179
 8101W        W23718  14.414  14.453  15.701  0.1358 -0.0961  0.0682
 8102W        W23719   4.562  14.004   4.125  0.3562 -0.2148 -0.2167
 8103W        W23720  13.818   3.269   5.232  0.1107  0.0588  0.2371
 8104W        W23721  17.977   7.428  13.123 -0.0366 -0.0854  0.0934
 8105W        W23722   4.851   7.981   2.618  0.1395 -0.1700  0.1357
 8106W        W23723   4.880   1.170  15.475 -0.0298 -0.0527 -0.1436
 8107W        W23724  12.664   0.033   4.893 -0.0648  0.3139 -0.5084
 8108W        W23725   9.695  16.728  15.547 -0.0440 -0.2207  0.3694
 8109W        W23726   0.526  16.517   1.534  0.0204 -0.1796 -0.1383
 8110W        W23727  13.095   8.327   4.153 -0.0663  0.1226  0.3113
 8111W        W23728   8.666  11.232  10.978  0.0201  0.2369 -0.0906
 8112W        W23729  10.491  15.669   2.730  0.3469  0.0241  0.2366
 8113W        W23730   7.321  13.927  11.131 -0.0540 -0.2396 -0.1118
 8114W        W23731  11.107   4.411   3.384  0.0114 -0.2193 -0.0913
 8115W        W23732   5.992   0.615   3.760 -0.1638  0.0675  0.1901
 8116W        W23733  12.152   9.904   1.635 -0.0377 -0.1511 -0.1785
 8117W        W23734  15.896   0.070   2.007 -0.0466 -0.0899 -0.0555
 8118W        W23735   8.880  16.432   1.821 -0.0096 -0.0969 -0.1225
 8119W        W23736   2.788   1.681   3.470  0.1157 -0.1705 -0.4595
 8120W        W23737   7.586   7.205  15.372  0.0087  0.0715  0.1853
 8121W        W23738   2.168  18.154   4.473  0.0810 -0.0048  0.0789
 8122W        W23739  12.198  10.866  10.983  0.1239 -0.0324 -0.0097
 8123W        W23740   6.010   3.743   4.755 -0.1032  0.0617  0.1233
 8124W        W23741  14.273   2.153  12.079  0.1211 -0.3051  0.1824
 8125W        W23742  13.254  15.142  15.408 -0.0151  0.2122 -0.2251
 8126W        W23743   0.606   8.759   3.312 -0.2636  0.3337 -0.2600
 8127W        W23744  14.903   0.155  15.493 -0.1708  0.2197  0.1423
 8128W        W23745  13.123   6.446   3.368  0.0305  0.1070 -0.2838
 8129W        W23746   9.925   1.824   3.623 -0.1059  0.0797 -0.0793
 8130W        W23747   8.118  11.574  11.163 -0.2880 -0.0856  0.1455
 8131W        W23748   3.410  13.458   2.879 -0.1307 -0.1025 -0.0198
 8132W        W23749  11.331   6.167   1.659 -0.3072  0.4421 -0.1129
 8133W        W23750  15.279   3.305  13.340  0.0138 -0.0495  0.3798
 8134W        W23751   5.879   2.088   2.726  0.2745 -0.3251 -0.2500
 8135W        W23752  15.845   6.661  11.964  0.0599  0.0223 -0.2016
 8136W        W23753  16.653   7.736  12.025 -0.1896 -0.2255  0.3822
 8137W        W23754   9.517   6.746   5.665 -0.1809  0.1613 -0.0013
 8138W        W23755  12.294   7.730   5.488  0.2720 -0.0483 -0.4250
 8139W        W23756  11.169   9.260   2.482 -0.2559  0.1623  0.2510
 8140W        W23757  15.494  17.325   4.285 -0.0744 -0.0198 -0.2304
 8141W        W23758   8.104   9.401  11.532  0.1934 -0.3449 -0.2348
 8142W        W23759   4.449   1.120   0.083  0.0782  0.3667  0.1305
 8143W        W23760  15.803  14.212   0.808  0.0692 -0.0397  0.4776
 8144W        W23761  14.709   3.358   0.997 -0.1113 -0.1266 -0.1755
 8145W        W23762   4.205   6.048   2.913 -0.2987  0.1324  0.1536
 8146W        W23763  16.520   4.146   2.117  0.0625 -0.0652  0.4336
 8147W        W23764  15.166  10.434  12.273  0.1706 -0.0921 -0.0161
 8148W        W23765  17.734   5.794   0.407  0.1718 -0.1257 -0.1295
 8149W        W23766   0.952   6.846  14.926 -0.0341 -0.0287  0.1908
 8150W        W23767  15.922  14.612   4.402 -0.4040 -0.3959 -0.4153
 8151W        W23768   6.743   0.076   0.351  0.1240  0.1901  0.1989
 8152W        W23769   2.059   5.102  10.359  0.0858  0.0460  0.0236
 8153W        W23770   7.050   2.634  15.591 -0.2421  0.0878 -0.1025
 8154W        W23771   4.083  16.168   2.869 -0.0376 -0.0351  0.3244
 8155W        W23772   8.180   4.321   3.017 -0.3609  0.1611  0.2226
 8156W        W23773   6.163  16.764   1.399 -0.0386  0.0118 -0.3650
 8157W        W23774   5.153   7.719  12.846 -0.0546  0.1589  0.0992
 8158W        W23775   0.084  13.524   0.313 -0.0386 -0.0331  0.0887
 8159W        W23776  17.422   0.011  15.030 -0.3072 -0.0094 -0.0601
 8160W        W23777  15.038   4.516  14.927  0.1867 -0.1281  0.1742
 8161W        W23778  12.903   4.246  10.354  0.0982 -0.1090  0.0218
 8162W        W23779  13.668  11.463  11.133  0.0947 -0.1966 -0.1878
 8163W        W23780  10.646  13.202  15.419  0.1384  0.0527  0.0447
 8164W        W23781  14.686   0.239  13.960  0.0813  0.0703 -0.2238
 8165W        W23782   4.138  18.040  14.281  0.0734  0.0538  0.0202
 8166W        W23783   5.358  11.483   5.506  0.0259  0.1589 -0.1179
 8167W        W23784   3.180  16.475   1.219 -0.2360 -0.1421  0.0589
 8168W        W23785  11.497   3.461   1.289 -0.0231 -0.2299 -0.0664
 8169W        W23786  12.214  17.492   5.238 -0.3133 -0.4108  0.2125
 8170W        W23787   4.724  10.064  13.895 -0.0940  0.0835  0.5099
 8171W        W23788   9.645  16.747  12.430  0.2821 -0.0120  0.1056
 8172W        W23789   0.512   7.510   3.673  0.0102 -0.0964  0.1142
 8173W        W23790   7.104  15.111  13.276  0.2920 -0.1930  0.1441
 8174W        W23791   1.869  14.921   2.307 -0.2729 -0.0021  0.2028
 8175W        W23792   4.039  12.927  14.355 -0.0102 -0.0636 -0.0449
 8176W        W23793  16.008   6.662   0.395  0.0638  0.0699 -0.0261
 8177W        W23794  13.862  13.977  13.182 -0.0089  0.0006  0.1674
 8178W        W23795  16.057   4.379   1.202  0.1767  0.1478 -0.0963
 8179W        W23796   5.579  15.979  10.652 -0.0431  0.0548  0.0471
 8180W        W23797   0.930   2.980   2.986 -0.0182 -0.1695 -0.0437
 8181W        W23798   9.645  17.258  15.426 -0.1758 -0.1668  0.1465
 8182W        W23799   5.417   6.340   5.076  0.0057  0.0114  0.0611
 8183W        W23800   0.167  11.229   1.077  0.0977  0.2333  0.0993
 8184W        W23801   5.733   1.460   1.700  0.0411  0.0080  0.0650
 8185W        W23802   9.477  13.501  10.747  0.1117 -0.0366  0.1232
 8186W        W23803  17.365  13.494   4.367  0.1918 -0.1052 -0.0116
 8187W        W23804   0.105   5.050   1.352  0.0924  0.2658  0.4253
 8188W        W23805  10.725  14.851   9.942 -0.1002  0.0926  0.2253
 8189W        W23806  17.546   5.621   0.010 -0.3292  0.0376 -0.0212
 8190W        W23807   8.095  10.942  12.710  0.3446 -0.1712 -0.0708
 8191W        W23808   8.200  15.862  10.892 -0.0338  0.0823  0.0615
 8192W        W23809  18.642  11.018   5.199 -0.3638 -0.0844 -0.0305
 8193W        W23810   9.350   0.803   2.417 -0.3859  0.1382  0.3186
 8194W        W23811   7.003   5.493  13.649 -0.2653  0.0181  0.1476
 8195W        W23812  15.608  15.917  14.034 -0.1407 -0.1686  0.0349
 8196W        W23813  11.403   3.632   4.483 -0.0602 -0.0157 -0.1400
 8197W        W23814  16.914   2.241  15.194 -0.0885 -0.2365 -0.1023
 8198W        W23815   6.587   9.291   0.256  0.1265  0.0790 -0.1523
 8199W        W23816   8.099  14.028  14.038  0.1224 -0.2397 -0.0105
 8200W        W23817   6.768   7.706   2.158  0.1430  0.2120  0.3589
 8201W        W23818  13.809  17.759   3.053 -0.4308  0.1053  0.3907
 8202W        W23819  17.263  16.937  13.720 -0.0864  0.0298  0.0152
 8203W        W23820  16.061   3.584   1.611  0.2472  0.0174  0.1971
 8204W        W23821  14.522  11.645   0.667  0.0036  0.2706 -0.1378
 8205W        W23822   6.305   5.650  15.257  0.2874 -0.1381 -0.0850
 8206W        W23823   7.852  15.794  14.168 -0.0024 -0.0264  0.0874
 8207W        W23824  15.392   5.112   4.342 -0.2907  0.2811 -0.0627
 8208W        W23825   3.806   6.681   1.877  0.0475 -0.1081  0.0143
 8209W        W23826  16.179   3.908   4.357 -0.1454  0.0150 -0.0302
 8210W        W23827   3.128   1.671   1.826  0.0266 -0.2248 -0.0162
 8211W        W23828  16.759  15.350  14.540 -0.3260 -0.0743  0.1519
 8212W        W23829   0.516   3.005   0.290  0.0135 -0.2123  0.1308
 8213W        W23830  15.047   3.311   0.569  0.0164  0.1973  0.0780
 8214W        W23831   4.698   0.472   2.798 -0.1183 -0.2879 -0.2185
 8215W        W23832   7.959  13.911  12.988 -0.0581 -0.0239  0.3153
 8216W        W23833  16.443   0.997  15.369 -0.3938 -0.1431 -0.0644
 8217W        W23834  14.452   0.693  13.059 -0.1391 -0.2733 -0.0468
 8218W        W23835   1.287   8.590  11.627  0.0877 -0.0408  0.4618
 8219W        W23836   0.374   5.234   3.772  0.1761  0.2192  0.1899
 8220W        W23837  13.795   8.267  10.942  0.3439 -0.4335  0.0200
 8221W        W23838   6.474  17.871   0.555  0.1974  0.0671 -0.0110
 8222W        W23839   6.079  16.158  11.580  0.1998 -0.0578  0.0652
 8223W        W23840  12.040   3.386   2.790  0.2799  0.1686  0.3231
 8224W        W23841  13.685   5.033  14.619  0.3357  0.0161 -0.1310
 8225W        W23842   9.242  11.032  15.610  0.0132 -0.1241  0.0428
 8226W        W23843   5.989  11.460   3.515  0.3791 -0.0216 -0.0464
 8227W        W23844   7.960   0.272   0.829  0.1537  0.0685 -0.2122
 8228W        W23845   8.474  11.245   4.378  0.2775  0.0694  0.0545
 8229W        W23846  16.279  12.860   4.606  0.1385  0.0292  0.1238
 8230W        W23847  12.677  16.756  13.456 -0.0400 -0.1738 -0.1408
 8231W        W23848  11.788   8.116   3.724  0.1045 -0.2525  0.2979
 8232W        W23849  11.981   0.602   5.891 -0.0286  0.1283  0.0076
 8233W        W23850   4.395   6.346  11.378  0.1394  0.1269  0.2784
 8234W        W23851   4.241   1.204   2.451 -0.0547  0.0173  0.1839
 8235W        W23852  11.603   4.200   5.332 -0.1918  0.2245  0.2260
 8236W        W23853  12.625   0.611  12.656 -0.0419  0.0599 -0.1794
 8237W        W23854   8.061   3.181  10.599  0.1003  0.0642 -0.1974
 8238W        W23855   9.437   6.911  11.328 -0.3927 -0.1678  0.0376
 8239W        W23856   3.357  10.033   1.049 -0.1679 -0.1522  0.1018
 8240W        W23857   6.925  17.847  15.402  0.2623  0.1966  0.1720
 8241W        W23858  18.002   1.408  12.794 -0.2320  0.0067 -0.2113
 8242W        W23859  17.422   1.126  11.499 -0.2516  0.0643  0.2518
 8243W        W23860   8.013  11.952  13.337  0.2992  0.1883  0.1002
 8244W        W23861   6.588   3.218  13.656 -0.2912 -0.1081 -0.1324
 8245W        W23862  10.169  10.063   0.483  0.0170 -0.0000  0.2268
 8246W        W23863   6.055  10.330  11.955 -0.3314  0.0076 -0.0634
 8247W        W23864   7.254   7.575  11.968  0.1208  0.0772  0.3143
 8248W        W23865   6.216   8.245  13.911 -0.0186 -0.2856 -0.1611
 8249W        W23866   3.729  11.762  11.576 -0.2352 -0.1021  0.0155
 8250W        W23867   2.457   3.337  14.278 -0.1316  0.2924 -0.0868
 8251W        W23868   9.859   2.929  12.002 -0.0849 -0.2941  0.3575
 8252W        W23869   3.008  11.599   2.755 -0.1831 -0.0608 -0.1991
 8253W        W23870  15.291   5.399  14.642 -0.1384  0.0955 -0.2120
 8254W        W23871   5.119   3.177  15.742  0.1851 -0.2030  0.1385
 8255W        W23872  12.518  10.114  11.621  0.1370 -0.0669 -0.4526
 8256W        W23873  18.418   2.111   2.670 -0.2067 -0.1588  0.0470
 8257W        W23874   9.318   3.526  15.675 -0.1384 -0.0378  0.1474
 8258W        W23875  11.320   2.507  13.228 -0.0147 -0.2328 -0.0350
 8259W        W23876  12.540   7.914   3.212 -0.0956  0.1534  0.1152
 8260W        W23877   8.932  17.190  13.370  0.3302 -0.1272 -0.5513
 8261W        W23878   6.936  18.541  10.531  0.0448 -0.0536 -0.0792
 8262W        W23879   4.143  16.622  12.642  0.1890  0.0289  0.3231
 8263W        W23880  10.247  11.926  10.549 -0.4358 -0.0205 -0.0683
 8264W        W23881  10.227   3.815   1.652  0.2485 -0.2177  0.0178
 8265W        W23882   8.751   0.915  11.504 -0.2157 -0.2129 -0.2636
 8266W        W23883   4.443  18.550   4.299  0.3786  0.0861  0.1055
 8267W        W23884   6.246  18.358   2.253 -0.2554  0.0099  0.1575
 8268W        W23885  13.206  10.178   3.440  0.1973 -0.2380 -0.1324
 8269W        W23886  14.784  17.403   3.958 -0.1706  0.2130 -0.2790
 8270W        W23887   0.259  10.381  15.709  0.2506  0.0289 -0.0613
 8271W        W23888   3.835   6.268  13.113 -0.0222  0.0658  0.3295
 8272W        W23889   9.418  16.927   0.622 -0.1189  0.2070 -0.2446
 8273W        W23890  13.016  15.082  13.764 -0.3291 -0.1807  0.1550
 8274W        W23891   7.902  16.076   3.567 -0.2126 -0.1075  0.4460
 8275W        W23892  12.960  17.489   3.380 -0.0159  0.2027 -0.3283
 8276W        W23893  14.208   3.368   1.072  0.0303 -0.2276 -0.1410
 8277W        W23894   0.652  18.653  11.858  0.1619 -0.2206  0.1884
 8278W        W23895   4.402   9.891   3.182 -0.1764  0.1392  0.0441
 8279W        W23896   1.735   2.532   5.624  0.1452 -0.2899 -0.3252
 8280W        W23897   2.212  16.542   3.559 -0.0945 -0.0917  0.0750
 8281W        W23898  17.378  13.083  13.742 -0.1209 -0.0260  0.2941
 8282W        W23899   9.795   6.007  10.871 -0.0154  0.0626  0.0481
 8283W        W23900   7.192   1.574   4.926  0.0287 -0.0024 -0.2162
 8284W        W23901   1.687   4.455   2.260  0.0294  0.0852 -0.1853
 8285W        W23902  12.086   3.862  14.570 -0.0495 -0.1580  0.0840
 8286W        W23903   9.997   6.573  14.951 -0.1991  0.1304 -0.0252
 8287W        W23904  10.927   9.044  14.534  0.1615 -0.0908  0.0268
 8288W        W23905  18.185  11.657  15.172  0.1792  0.1561  0.1862
 8289W        W23906   5.455   2.050   3.125  0.0340  0.3178 -0.0480
 8290W        W23907  17.517  10.008  13.997  0.1539  0.1114  0.0287
 8291W        W23908   4.441   0.099   5.009  0.3277 -0.1057 -0.2367
 8292W        W23909   4.517  13.759  14.645  0.0802  0.0342  0.3439
 8293W        W23910  10.513   0.710   0.337  0.1572  0.0443 -0.0408
 8294W        W23911   7.974   3.966  12.798  0.1417 -0.0415 -0.0033
 8295W        W23912  18.311   4.034   4.882 -0.0701  0.0507  0.0525
 8296W        W23913   0.639   4.247  12.207  0.0604  0.1455  0.0895
 8297W        W23914   5.941   6.113  12.978  0.0774  0.2367 -0.1107
 8298W        W23915  13.246  15.972   4.213  0.0319  0.3509 -0.3291
 8299W        W23916  16.707   0.042   3.483 -0.1753  0.0817 -0.0795
 8300W        W23917  15.572   2.199  14.239  0.1347 -0.1327 -0.3444
 8301W        W23918  16.929   7.812   9.685 -0.1626 -0.3731  0.0875
 8302W        W23919   6.068  15.630  10.989 -0.2498  0.0589  0.0265
 8303W        W23920   2.721   2.257   0.376 -0.3462  0.0738  0.2301
 8304W        W23921   3.142   4.142   5.281 -0.1623  0.1868 -0.2089
 8305W        W23922   1.016   0.256   0.301  0.0969  0.1993  0.1714
 8306W        W23923   3.449  16.996  11.215  0.1236 -0.2194 -0.0084
 8307W        W23924  10.756   9.731   5.296  0.1612 -0.0002  0.1494
 8308W        W23925  18.199   4.048   4.121 -0.3850  0.0008 -0.1276
 8309W        W23926  11.214   2.659  12.733 -0.1180  0.2637  0.1312
 8310W        W23927   7.240   3.497   1.985  0.3140  0.3362 -0.0319
 8311W        W23928   9.466   8.369  15.150 -0.0742  0.1914 -0.1671
 8312W        W23929  13.935  18.320   5.562  0.3078  0.1987  0.0410
 8313W        W23930  18.616   1.358   1.864  0.3263 -0.1247  0.0879
 8314W        W23931   0.422  14.268   0.389 -0.2731  0.4544  0.1414
 8315W        W23932  16.185  17.907   3.840  0.0337 -0.0950 -0.2412
 8316W        W23933   2.854  12.837  11.901  0.0695  0.1991 -0.0126
 8317W        W23934   1.371   4.594  13.948 -0.0454 -0.0069 -0.0487
 8318W        W23935  12.494   8.199  11.658  0.0281 -0.0789  0.0960
 8319W        W23936   1.269  14.035  10.941 -0.2600 -0.4177 -0.1262
 8320W        W23937  16.869  10.213   3.360  0.0152 -0.0813  0.0804
 8321W        W23938  10.175  13.314   3.511 -0.2002 -0.0810  0.3684
 8322W        W23939   5.829  17.069   0.585  0.1645  0.3749 -0.4253
 8323W        W23940  13.040  16.733  11.855  0.3677 -0.0532 -0.2549
 8324W        W23941  12.880   2.881  13.501 -0.1111  0.0057  0.1096
 8325W        W23942  15.345   2.219   0.879 -0.2733 -0.2323  0.0811
 8326W        W23943  17.650  18.275   5.175 -0.0878 -0.0665 -0.0031
 8327W        W23944   3.492   4.718   0.856  0.1012 -0.1285  0.1141
 8328W        W23945   6.749  16.916   0.633  0.0497  0.0511  0.2758
 8329W        W23946  10.740   3.535   4.370  0.0047 -0.0446 -0.3669
 8330W        W23947   4.636  10.429   3.384 -0.0900  0.2888  0.0104
 8331W        W23948   1.897   4.267   2.869  0.0719  0.0039 -0.3865
 8332W        W23949  16.707   2.173   3.614  0.0017  0.0838 -0.3229
 8333W        W23950   9.099   3.529   1.044 -0.2950 -0.1527 -0.0628
 8334W        W23951  13.317  10.671   3.632 -0.1210 -0.0023 -0.0625
 8335W        W23952   2.417  18.107   3.327 -0.0480  0.0805 -0.0170
 8336W        W23953  10.613   0.692  14.787 -0.0486  0.1079 -0.1320
 8337W        W23954   2.330   6.428   5.037  0.1026  0.1315 -0.1555
 8338W        W23955   3.573   8.386   1.666 -0.1705  0.0399  0.1377
 8339W        W23956   7.051  15.725   3.507  0.2110 -0.1293  0.0587
 8340W        W23957   7.651  13.357   1.588 -0.0174 -0.1635 -0.2080
 8341W        W23958  13.297  13.431  15.671 -0.2366  0.0088  0.1699
 8342W        W23959  12.668   6.650  12.542  0.2556  0.0772  0.1923
 8343W        W23960  16.388   9.959   0.131 -0.1067  0.1383  0.2839
 8344W        W23961  11.743  15.811   0.984  0.0248  0.2523  0.2191
 8345W        W23962   9.250  12.237  14.745 -0.0921 -0.0370  0.0181
 8346W        W23963   8.585  16.587  13.687 -0.0235 -0.0744 -0.1001
 8347W        W23964   7.542   3.595  15.795 -0.3707  0.0882  0.2287
 8348W        W23965  12.833  18.187  15.142  0.0132  0.2010 -0.1274
 8349W        W23966  15.740   7.764  15.279  0.0750  0.2088  0.0279
 8350W        W23967   4.129   3.815   5.515 -0.0281 -0.0362 -0.1108
 8351W        W23968  13.379  11.658  15.442  0.2501  0.1121  0.2774
 8352W        W23969   0.330   5.675   4.426 -0.0022  0.0082  0.1143
 8353W        W23970  13.155   9.182   2.200  0.0481  0.0589 -0.2760
 8354W        W23971  18.292   9.931   1.062 -0.2979 -0.1190 -0.1198
 8355W        W23972  12.609   6.262   5.142  0.2538 -0.0555  0.2039
 8356W        W23973   0.132   7.589   2.829  0.1207  0.0889 -0.1725
 8357W        W23974  18.132   1.540   6.168  0.1340 -0.1704  0.0751
 8358W        W23975  15.254  12.716  14.238  0.3070  0.0947 -0.1745
 8359W        W23976   2.982   3.544  10.758  0.0206  0.0073 -0.2240
 8360W        W23977   4.597   8.378   3.922  0.0845  0.0317  0.0380
 8361W        W23978   4.660   0.271   3.278 -0.0625  0.2016 -0.1191
 8362W        W23979  17.235  15.367   4.723  0.0009  0.3009  0.4888
 8363W        W23980  17.374  15.473   2.219  0.1318  0.1032 -0.0988
 8364W        W23981   2.768   7.964   9.934 -0.2324  0.0644  0.0424
 8365W        W23982   0.161  13.797   3.352 -0.2740 -0.1551  0.3085
 8366W        W23983   7.787  15.124   1.722 -0.0784 -0.3669  0.0468
 8367W        W23984  15.066   0.130   2.407 -0.1705 -0.1367  0.1282
 8368W        W23985  15.044   8.006   2.736 -0.0248 -0.1084 -0.1326
 8369W        W23986  13.564   0.947   5.074  0.2546 -0.0390 -0.3784
 8370W        W23987   0.752   7.955   3.709  0.1949 -0.1504 -0.0442
 8371W        W23988   1.020   7.560   4.562  0.1389 -0.1956  0.2067
 8372W        W23989   1.849   0.590  12.119  0.0274 -0.4032 -0.2208
 8373W        W23990   5.324  15.186   3.917 -0.0023 -0.1361  0.2403
 8374W        W23991   8.337  13.282   0.671 -0.1196 -0.0196 -0.0144
 8375W        W23992  14.814   3.742   0.630 -0.4409 -0.0332  0.0956
 8376W        W23993   8.300   6.236   1.347 -0.2326 -0.2333  0.0551
 8377W        W23994   3.198  14.489   0.236 -0.0159 -0.0278 -0.1576
 8378W        W23995   6.282   3.783  12.568  0.0280  0.0451  0.1163
 8379W        W23996  16.110   9.031  15.422 -0.2550  0.1462 -0.0466
 8380W        W23997  12.592  18.594   1.191 -0.1291  0.1320 -0.1877
 8381W        W23998   7.653  18.338  12.174  0.3019 -0.0630  0.0291
 8382W        W23999  14.600  12.474   0.039  0.0872  0.0583  0.0099
 8383W        W24000   4.979   4.381  12.670 -0.1794  0.0762 -0.2318
 8384W        W24001   9.808  14.584  14.373 -0.0672  0.0566  0.1318
 8385W        W24002  13.917   3.887   3.836  0.0863  0.0472  0.2633
 8386W        W24003  14.425   2.929   4.169  0.0025 -0.0147  0.1258
 8387W        W24004   7.186   0.754   9.850 -0.0176 -0.2834 -0.1675
 8388W        W24005  14.882   5.757   1.884 -0.0085 -0.0034 -0.3227
 8389W        W24006  12.213  10.822  14.784  0.0363  0.1024  0.1952
 8390W        W24007   4.256  16.641  11.693  0.0611  0.0091 -0.0098
 8391W        W24008  17.299   3.380   0.826  0.0580  0.3240 -0.0461
 8392W        W24009   4.178  17.126   1.346  0.0129 -0.1731  0.0148
 8393W        W24010   6.886   7.231   2.946 -0.1567 -0.0157 -0.0314
 8394W        W24011   0.570   4.835   1.800 -0.1856 -0.0531  0.0154
 8395W        W24012   9.225  10.392   1.731  0.2737 -0.0339  0.1215
 8396W        W24013   9.594   2.945  10.630  0.0307 -0.0425 -0.1959
 8397W        W24014   2.590   3.946  13.141  0.4044  0.1013  0.0905
 8398W        W24015  15.068   5.346  15.522  0.3654 -0.1146 -0.0957
 8399W        W24016   2.169  13.605   2.363  0.0017  0.0588 -0.0483
 8400W        W24017  11.115  18.650  11.279  0.0388 -0.3651 -0.1373
 8401W        W24018   5.135   3.733   2.785  0.0994  0.1730  0.0683
 8402W        W24019   9.923   7.253  11.239  0.3569  0.2844  0.0430
 8403W        W24020  17.113   6.297   2.978  0.0418 -0.2569 -0.0977
 8404W        W24021  10.334   5.290   6.305 -0.1144  0.0713  0.0008
 8405W        W24022  10.063  14.028   3.857 -0.1411  0.0463  0.1538
 8406W        W24023   1.357  10.253  13.801 -0.4588 -0.3014  0.0169
 8407W        W24024  11.519   4.466   0.348 -0.1510  0.0837 -0.0583
 8408W        W24025  18.507  16.094   3.158 -0.1009  0.1249  0.0283
 8409W        W24026   5.540  11.113   3.666 -0.1520  0.2387  0.0887
 8410W        W24027   2.368  16.071  10.766  0.1369  0.0201 -0.2901
 8411W        W24028  11.801   8.532  13.172 -0.0981  0.0511  0.1787
 8412W        W24029  12.138   0.603  13.114  0.0061  0.1058 -0.0723
 8413W        W24030   9.356  12.934  15.762 -0.3783  0.4158 -0.0105
 8414W        W24031   3.650   6.540   2.687 -0.0925  0.1494  0.3761
 8415W        W24032   2.702   0.867  15.751  0.1239  0.4104 -0.1950
 8416W        W24033   3.210   8.113  15.762 -0.1538 -0.3950 -0.0149
 8417W        W24034   3.992  17.324  13.262 -0.2173 -0.5518  0.1131
 8418W        W24035  17.399   7.055  14.295 -0.1507  0.0876  0.1113
 8419W        W24036  10.720  12.446   1.046 -0.0285 -0.3476 -0.4607
 8420W        W24037   3.984  11.511  11.878  0.1500  0.3039  0.2490
 8421W        W24038  10.395   0.547   3.931  0.1618 -0.2198 -0.0260
 8422W        W24039   0.066   7.018  10.830  0.0746 -0.0796  0.1536
 8423W        W24040  18.279  13.522  15.768  0.1621 -0.1556  0.3375
 8424W        W24041   0.054  13.355  14.100  0.2530  0.0686  0.3638
 8425W        W24042   4.198  16.072  14.920  0.0694 -0.1815 -0.0816
 8426W        W24043   6.229   4.338  15.028  0.1455 -0.0538 -0.1351
 8427W        W24044  13.716  10.942  15.540 -0.0922 -0.1634 -0.0704
 8428W        W24045   9.612  14.627  13.580  0.0275  0.1931 -0.0537
 8429W        W24046   4.653  12.838   0.348  0.0138  0.1831 -0.4299
 8430W        W24047   5.151  12.132  14.952  0.1768 -0.1574 -0.0629
 8431W        W24048   2.777   6.017  11.816  0.2098 -0.1967  0.0252
 8432W        W24049   2.251   6.876   3.359  0.2443  0.0454 -0.4094
 8433W        W24050  13.284  14.218  15.060  0.4116 -0.1637 -0.2437
 8434W        W24051   3.311   4.286  11.674  0.1531 -0.0306 -0.1008
 8435W        W24052  11.182   4.400  15.792 -0.2469  0.0952 -0.2261
 8436W        W24053  13.481  10.964   2.035 -0.4117  0.0410 -0.0558
 8437W        W24054  10.317   5.563   2.784  0.0960 -0.2324  0.0966
 8438W        W24055   1.122  14.984   1.139  0.2131 -0.1787  0.0505
 8439W        W24056   4.643  18.285  12.156 -0.0595 -0.3077 -0.2256
 8440W        W24057  10.245  15.004   4.657  0.2108  0.0985 -0.1670
 8441W        W24058   2.165   5.180   3.416 -0.2789  0.0885 -0.1644
 8442W        W24059  17.519  12.928   3.710  0.0376  0.0454 -0.0952
 8443W        W24060   1.749  13.972  11.838  0.3058 -0.0792  0.0002
 8444W        W24061  16.884  13.845   0.502 -0.2460 -0.0993  0.0255
 8445W        W24062   5.017   6.777   5.689 -0.0923 -0.2029  0.0337
 8446W        W24063  14.099   9.281  14.696 -0.0105  0.0866 -0.2103
 8447W        W24064  17.970  17.909   5.332  0.0578  0.0583 -0.1063
 8448W        W24065   2.263  11.249  10.672  0.2686 -0.2424 -0.1408
 8449W        W24066   5.914  11.850  10.668  0.1040 -0.2043  0.1905
 8450W        W24067  15.945   1.202  12.910  0.0582  0.4208 -0.0567
 8451W        W24068   7.538   6.113   2.591 -0.2861 -0.1467  0.2362
 8452W        W24069   9.966   5.411   4.876  0.0017  0.2688 -0.0393
 8453W        W24070   7.886   3.465  11.320 -0.2296 -0.2562 -0.0912
 8454W        W24071  13.775   4.727  14.158 -0.0424 -0.1726  0.2613
 8455W        W24072  13.070   2.059   3.058 -0.1930  0.0994 -0.1554
 8456W        W24073   5.968   7.440  14.613  0.0840  0.0691 -0.2097
 8457W        W24074  13.428  14.253  13.342 -0.0390 -0.1814  0.1524
 8458W        W24075   1.835   1.489   4.536  0.3687  0.1068 -0.0239
 8459W        W24076  12.137  10.663   4.357 -0.0063  0.4643 -0.1257
 8460W        W24077   5.542  10.094   2.435 -0.1254  0.3077 -0.0284
 8461W        W24078   9.990  18.547   4.493  0.1539 -0.0224 -0.2543
 8462W        W24079  15.014  13.733   4.720  0.0501 -0.0748  0.0740
 8463W        W24080   5.748   5.141   2.628 -0.1661 -0.2160  0.0079
 8464W        W24081   2.981  12.813   4.879  0.1750 -0.1650 -0.1882
 8465W        W24082   1.618  16.914   1.577 -0.1235  0.0459 -0.0123
 8466W        W24083   0.700   4.197   3.041 -0.0621 -0.2145 -0.0332
 8467W        W24084  16.443   5.624   4.390 -0.0730 -0.0379 -0.2225
 8468W        W24085   9.600   0.319  12.567 -0.2253  0.0587 -0.2711
 8469W        W24086  12.843   9.840  14.643  0.0266  0.0395 -0.1947
 8470W        W24087   7.292   2.586  13.553 -0.0631  0.1234  0.2634
 8471W        W24088   6.837  14.539  10.475 -0.2259  0.2391  0.0340
 8472W        W24089  15.104  10.926  11.378 -0.1983  0.0918  0.2005
 8473W        W24090  11.132  10.201   9.499  0.1514 -0.0265  0.1681
 8474W        W24091   1.524  17.685  15.759  0.0108 -0.1557 -0.1636
 8475W        W24092   5.088   1.961  13.815  0.1405  0.0248  0.0277
 8476W        W24093   3.553  17.545   2.685  0.2131  0.3256  0.3374
 8477W        W24094   8.499   4.997  12.476  0.0610 -0.0486  0.0340
 8478W        W24095   5.748  14.926  15.148 -0.1117 -0.2585 -0.0581
 8479W        W24096   8.033   5.676   3.511 -0.2251 -0.1687 -0.3282
 8480W        W24097  16.738   2.870   6.122  0.0290  0.0048 -0.0792
 8481W        W24098   4.129  17.679  10.779 -0.0702 -0.2209 -0.0829
 8482W        W24099  17.162   8.318   2.175  0.0115  0.5065 -0.1366
 8483W        W24100  14.170   2.162   0.751  0.1789  0.2514 -0.0386
 8484W        W24101  13.751   8.021   0.724 -0.2789 -0.0173  0.2514
 8485W        W24102  13.710  14.291  15.271 -0.2153 -0.2383  0.1098
 8486W        W24103   5.161   5.165   3.263  0.1883 -0.0911  0.1180
 8487W        W24104   2.858   9.803  14.081  0.1936 -0.1741 -0.2129
 8488W        W24105   6.465  14.248   4.068 -0.1016  0.0940 -0.1641
 8489W        W24106   0.958   4.246  14.184 -0.2583 -0.0973 -0.0258
 8490W        W24107  11.639   3.286  14.937 -0.1441 -0.2997 -0.0416
 8491W        W24108  10.407   5.006   4.053  0.3472  0.0245  0.0098
 8492W        W24109  16.129  17.307  15.461 -0.2717  0.1331 -0.1132
 8493W        W24110   3.857  18.108   1.644 -0.1238 -0.0920 -0.0265
 8494W        W24111   4.991   5.838  15.433 -0.1355  0.0258 -0.2158
 8495W        W24112  12.660   7.086  12.241  0.0719  0.3623  0.0513
 8496W        W24113   5.763   0.829  11.541  0.2057  0.1295 -0.0537
 8497W        W24114   3.117   7.620   1.104  0.0211  0.1452  0.1731
 8498W        W24115   2.944   6.823   5.550  0.0586  0.3016  0.1148
 8499W        W24116  15.696   8.323  10.759  0.1631  0.2261  0.4804
 8500W        W24117  10.233   7.702   1.577 -0.1834 -0.2754  0.3924
 8501W        W24118  13.195  17.064  14.107  0.0800  0.0983 -0.3727
 8502W        W24119  18.037   9.649   2.365 -0.1309  0.0150 -0.2669
 8503W        W24120   2.854  17.756   3.999  0.0278  0.1265 -0.2841
 8504W        W24121  15.120  15.336  14.895  0.1679  0.0861  0.0357
 8505W        W24122   9.459  16.194   2.511 -0.1063 -0.0263  0.1303
 8506W        W24123   6.273   0.278   1.062  0.0542  0.1309 -0.3010
 8507W        W24124  17.764   4.029   2.975 -0.2156 -0.1107 -0.3117
 8508W        W24125  17.491   6.949  15.270  0.1937 -0.2554 -0.2814
 8509W        W24126   4.198  10.029  15.274 -0.3857 -0.1598  0.1116
 8510W        W24127   0.853   9.295   3.976 -0.1231  0.0690  0.0406
 8511W        W24128  13.512   5.077   0.750  0.1293 -0.1495 -0.2030
 8512W        W24129   8.891   2.436   0.151 -0.2346 -0.4610 -0.2094
 8513W        W24130  12.994  17.103  13.498 -0.1296  0.0591  0.0438
 8514W        W24131   7.125  13.677   2.499  0.1775  0.2682  0.2246
 8515W        W24132   9.568   4.530  12.222 -0.3073 -0.2513  0.1224
 8516W        W24133  13.338   9.883  14.658 -0.0390 -0.1665  0.1277
 8517W        W24134   7.649   8.140   2.055 -0.1100 -0.2110  0.1965
 8518W        W24135   3.885   3.446   4.798 -0.2349 -0.1556  0.0827
 8519W        W24136  16.475  10.822  14.521 -0.0236 -0.1012  0.0074
 8520W        W24137   1.805   5.374  11.907 -0.1130 -0.0699  0.1890
 8521W        W24138   0.864  12.309   4.407 -0.1565  0.0183 -0.2358
 8522W        W24139  16.241   1.538  14.081  0.0230 -0.0821  0.3906
 8523W        W24140   9.710   0.345   2.213  0.1551 -0.0059 -0.0677
 8524W        W24141   0.317  17.293  12.684  0.0689  0.1901 -0.0195
 8525W        W24142   1.613   9.592   1.954 -0.1708 -0.0776 -0.1027
 8526W        W24143   0.479  13.997   2.162 -0.0327 -0.1085  0.0257
 8527W        W24144   4.594  10.373  13.294  0.1775  0.2884 -0.0210
 8528W        W24145  14.254   1.241   6.524  0.0531  0.2886  0.0326
 8529W        W24146  16.081   3.301   5.712 -0.2795  0.1039 -0.3502
 8530W        W24147  12.524   2.343  11.266 -0.2738 -0.1530  0.5007
 8531W        W24148   0.253   9.377   3.989 -0.2075  0.0146  0.2410
 8532W        W24149  18.551  13.186  12.144 -0.0337  0.2122  0.0120
 8533W        W24150  16.439  16.715   1.942  0.1406 -0.1075  0.0060
 8534W        W24151   7.527   3.974   5.939 -0.0238  0.1226  0.5626
 8535W        W24152   1.910  12.382   2.156 -0.3532  0.0538  0.0514
 8536W        W24153  14.171  12.314   5.052  0.0222 -0.2376  0.0469
 8537W        W24154   7.902   0.864   2.954 -0.0602  0.2454  0.4024
 8538W        W24155   2.859  11.640   3.213  0.0361  0.0080 -0.0209
 8539W        W24156  13.582  16.355  15.584 -0.1097  0.2092 -0.2514
 8540W        W24157  14.579  15.611   0.342 -0.1002 -0.1534 -0.4982
 8541W        W24158   1.746  14.081   3.826 -0.0524 -0.0376 -0.0298
 8542W        W24159  11.740  16.899  11.204 -0.0434 -0.4775  0.2123
 8543W        W24160  16.488   6.442   9.656 -0.0279  0.0848 -0.0063
 8544W        W24161  16.557   8.054   3.830  0.0862 -0.0725  0.1185
 8545W        W24162  16.894  15.189  14.072 -0.2654  0.2654 -0.3364
 8546W        W24163   1.554   5.543   2.285  0.2102  0.0603  0.0158
 8547W        W24164   4.233  16.964   2.651  0.0202  0.0790 -0.1584
 8548W        W24165   9.323  10.202   3.118  0.1874 -0.2598  0.0114
 8549W        W24166  13.628  17.556  12.019  0.0595  0.1912 -0.0844
 8550W        W24167  13.944  15.938   3.772  0.0126  0.1508  0.0795
 8551W        W24168  15.566  13.768   0.965  0.4081 -0.0767  0.3110
 8552W        W24169  12.747  15.657   1.376  0.1248 -0.1189  0.3346
 8553W        W24170   9.987  18.643  13.519 -0.0188  0.3215  0.1274
 8554W        W24171   8.812   4.471  15.465  0.0490 -0.3271  0.1793
 8555W        W24172  17.740   0.078   4.291 -0.0359  0.3320  0.0222
 8556W        W24173  16.047   0.240  13.796 -0.0421 -0.2290  0.3182
 8557W        W24174   7.679  11.759   4.577  0.2292 -0.1567  0.1802
 8558W        W24175   4.889   6.292   1.467 -0.0694  0.0993 -0.0332
 8559W        W24176  13.104  16.034   3.437  0.4779 -0.1588  0.0636
 8560W        W24177  14.999  10.016   3.596 -0.3073  0.2311  0.1893
 8561W        W24178   9.651   9.497   6.031  0.0610 -0.0716  0.1909
 8562W        W24179  10.336  12.961   3.870 -0.0601 -0.2516  0.6657
 8563W        W24180  14.292  13.711  15.463 -0.0996 -0.0213 -0.0775
 8564W        W24181  11.338   4.681   2.957  0.3556 -0.0600  0.0201
 8565W        W24182  18.304   7.124  14.186  0.1210 -0.2376 -0.3897
 8566W        W24183  10.956   8.751   0.564 -0.1563  0.1156 -0.2170
 8567W        W24184  12.809  10.100  13.818  0.1072  0.0932  0.0257
 8568W        W24185   0.269   0.506  12.808  0.1032  0.0059 -0.0263
 8569W        W24186  15.927   9.908  12.727  0.1227  0.1598  0.0663
 8570W        W24187   9.632   4.692  13.127 -0.1388 -0.2028 -0.2069
 8571W        W24188  10.667   0.039   2.629 -0.0016  0.0821 -0.1522
 8572W        W24189   3.908   7.460   0.656 -0.2773 -0.2243  0.1368
 8573W        W24190  16.260   9.826  13.799 -0.1840 -0.4356 -0.0238
 8574W        W24191   7.028   8.697   5.015 -0.3021  0.2263  0.1462
 8575W        W24192   6.547  17.629   1.112 -0.0881 -0.1169  0.0579
 8576W        W24193  13.175   4.745   2.080 -0.2944  0.1569 -0.0503
 8577W        W24194   1.537  18.398  15.401  0.2359 -0.1215  0.0579
 8578W        W24195   5.301  11.705   2.785  0.1749  0.2485 -0.1218
 8579W        W24196  13.526  14.641  15.571 -0.0620  0.1750 -0.3852
 8580W        W24197   3.490  11.658  15.002 -0.0285 -0.0056  0.0309
 8581W        W24198   9.555  13.836   0.419  0.0884  0.0190  0.1021
 8582W        W24199  16.686  13.300  13.849 -0.0310  0.1925 -0.1975
 8583W        W24200   8.187   7.167  15.200 -0.1353 -0.1798 -0.0231
 8584W        W24201   4.677   5.974   4.631 -0.3834  0.0811 -0.1417
 8585W        W24202   9.284   2.677   0.892 -0.2480  0.0258  0.1557
 8586W        W24203   3.735  13.550  13.535  0.0208  0.0695 -0.1420
 8587W        W24204   6.760   5.960   0.831 -0.0091  0.1043  0.2698
 8588W        W24205   1.197  15.385  14.271 -0.1017 -0.1505 -0.1513
 8589W        W24206  12.872  11.520  11.938 -0.1163  0.2523  0.1110
 8590W        W24207  13.269  10.258  10.683  0.0695  0.1426 -0.3688
 8591W        W24208   8.839  11.163   5.753  0.0047  0.2178  0.4658
 8592W        W24209  14.872   2.191  15.320 -0.2257  0.2224 -0.0596
 8593W        W24210   0.615  13.978   2.742  0.3766  0.2120 -0.0219
 8594W        W24211  16.334   1.077   0.140  0.0883 -0.1496 -0.2447
 8595W        W24212  13.335  10.519   1.440  0.2866 -0.1445  0.2769
 8596W        W24213   9.446   8.589   2.263 -0.1601  0.1508  0.2767
 8597W        W24214   6.832   5.357   3.694 -0.0464 -0.1727  0.0523
 8598W        W24215   5.956  14.041  15.644  0.0466  0.0962 -0.0615
 8599W        W24216   7.336   3.160  14.016  0.2599 -0.0840 -0.0384
 8600W        W24217   4.639  15.988  13.145  0.2726 -0.1218  0.1812
 8601W        W24218  11.999  15.787   4.848 -0.2544  0.1250 -0.1580
 8602W        W24219  13.753  14.146  14.722 -0.2384  0.0865 -0.1599
 8603W        W24220  15.616   4.197   4.263 -0.1154  0.1500 -0.2291
 8604W        W24221  12.246   3.363  15.534 -0.1321 -0.2767 -0.3567
 8605W        W24222  11.520   1.362  13.128 -0.1761  0.4181 -0.0460
 8606W        W24223  16.905  14.435   5.369 -0.2745  0.1149 -0.1475
 8607W        W24224  17.768  10.274   2.298  0.3018 -0.2427  0.2644
 8608W        W24225   5.994  10.251  14.095 -0.0835 -0.0883  0.1866
 8609W        W24226  11.162   9.749   1.151 -0.2616 -0.3587  0.0242
 8610W        W24227   8.998   9.534   1.892 -0.2820 -0.1195 -0.5131
 8611W        W24228   8.554   8.212   2.353 -0.0798 -0.3008  0.0887
 8612W        W24229   4.294   2.347   3.414 -0.0357 -0.0708  0.0351
 8613W        W24230   7.322  10.289  14.221  0.1410 -0.0206  0.2076
 8614W        W24231   8.141  10.960  12.166 -0.0674  0.0205 -0.1102
 8615W        W24232   8.393   6.967  14.757 -0.2186  0.0027 -0.1487
 8616W        W24233  17.278   1.501   3.316  0.1366 -0.0241 -0.2621
 8617W        W24234   7.302  14.673   3.280 -0.0371  0.1280  0.1586
 8618W        W24235  10.065   7.075   3.140  0.0247  0.1269 -0.2149
 8619W        W24236  12.739  10.111   4.257 -0.1573  0.3163  0.5401
 8620W        W24237   5.658  10.911  13.827  0.0859  0.2091  0.1297
 8621W        W24238  13.948   5.660   3.975 -0.0811  0.2775 -0.2115
 8622W        W24239  15.475   7.689  13.410  0.2044 -0.0157 -0.0696
 8623W        W24240   1.815   0.377   3.409  0.1594  0.0570 -0.3446
 8624W        W24241  10.466   7.338   3.383 -0.0557 -0.0766  0.1121
 8625W        W24242  10.556  11.246  14.796 -0.0017 -0.0077  0.2684
 8626W        W24243   6.399   1.660  14.848  0.0418  0.1914  0.2506
 8627W        W24244  14.361  17.743  13.439  0.3760  0.1247 -0.1624
 8628W        W24245  13.868   0.865  13.950 -0.2073  0.1268  0.1115
 8629W        W24246   5.006   8.424   1.456 -0.0376 -0.0454 -0.1024
 8630W        W24247  16.092  15.973   4.246 -0.1963  0.1949  0.0559
 8631W        W24248   7.921  17.875  12.623  0.0418 -0.0077  0.0146
 8632W        W24249  17.142  16.576   1.112  0.2002  0.0117 -0.1368
 8633W        W24250  10.199  12.346  11.726 -0.3793 -0.2368  0.0718
 8634W        W24251   2.018   9.552   2.265 -0.0483  0.2015 -0.0712
 8635W        W24252  16.847  11.407  13.539 -0.0676 -0.2550  0.2772
 8636W        W24253  14.047   3.891   2.418 -0.0221 -0.0127  0.1323
 8637W        W24254  17.228  16.337   0.695  0.2085 -0.1559  0.1452
 8638W        W24255   1.807   1.986  14.989 -0.0289 -0.4065  0.0279
 8639W        W24256   6.699  12.403   4.798 -0.0221  0.3356 -0.0464
 8640W        W24257  18.218   8.974  12.591  0.1219 -0.0931 -0.1657
 8641W        W24258   0.555   7.884   4.692  0.0053  0.0166  0.0781
 8642W        W24259  10.003  15.720   0.205  0.0661 -0.1570 -0.1614
 8643W        W24260   5.370   1.599   4.357 -0.1839  0.2550  0.2192
 8644W        W24261  12.300  10.503  15.247 -0.0053  0.0181 -0.1600
 8645W        W24262  16.500   0.112   4.212  0.0789 -0.3052 -0.1207
 8646W        W24263  10.162  16.541   3.607  0.1851  0.1528 -0.0910
 8647W        W24264  12.811   1.163  12.905  0.0992  0.2225 -0.2527
 8648W        W24265  11.697  13.304   4.357 -0.0746  0.2819 -0.0151
 8649W        W24266   4.059  13.706  14.441  0.0912 -0.0027  0.0141
 8650W        W24267  18.200  11.173   1.848  0.1761  0.1078  0.3587
 8651W        W24268  13.406   0.227   3.485 -0.2639 -0.0018  0.1830
 8652W        W24269   1.595   5.710  14.790 -0.0809  0.3433 -0.2457
 8653W        W24270  11.863  18.430  13.816  0.0905  0.1211 -0.2551
 8654W        W24271  17.785   8.365   2.233 -0.0309  0.1439 -0.0904
 8655W        W24272  11.170   5.614   4.947  0.2148 -0.1638 -0.0482
 8656W        W24273  15.929   8.818   1.800  0.2168  0.1063 -0.0655
 8657W        W24274  11.601  10.092   2.051 -0.1776  0.5087 -0.1337
 8658W        W24275   4.792  10.705  11.989  0.0668 -0.2467 -0.1261
 8659W        W24276   3.105  14.682   2.757  0.0857  0.0194 -0.0571
 8660W        W24277   6.528   8.793  13.655 -0.1594  0.2135 -0.0882
 8661W        W24278  16.626   3.785  11.716 -0.0718  0.3167  0.2004
 8662W        W24279  12.211  14.030   4.413 -0.0876  0.1896  0.2386
 8663W        W24280  13.459   9.314   4.464  0.3378  0.0744  0.0425
 8664W        W24281  14.592   0.233  14.515 -0.3215  0.1276 -0.2772
 8665W        W24282   3.148  18.496   0.930 -0.0995  0.1335  0.2739
 8666W        W24283   0.823   4.487   2.292 -0.3021  0.0706  0.2645
 8667W        W24284   0.295   8.374  12.972  0.3045  0.0154  0.0283
 8668W        W24285   6.678   0.579   0.402  0.1358 -0.3681  0.0935
 8669W        W24286   6.589  11.276  14.816  0.1157  0.1695 -0.0271
 8670W        W24287  16.945   0.232   1.508 -0.1678 -0.0679 -0.2416
 8671W        W24288  16.123   7.262   2.311 -0.1544  0.0165  0.2495
 8672W        W24289  16.606   9.016  10.385 -0.0145 -0.1896 -0.2124
 8673W        W24290  14.058  12.536   1.760  0.1846  0.0711 -0.1465
 8674W        W24291   2.537   7.608  15.018 -0.1024  0.0321  0.2956
 8675W        W24292   7.978   9.932   3.236 -0.1501  0.0990 -0.2102
 8676W        W24293  17.504  18.384  12.044  0.0626  0.3186  0.0193
 8677W        W24294   6.305   9.188  11.940 -0.0741  0.3385 -0.0718
 8678W        W24295   8.363  11.858  12.413  0.1666  0.0894 -0.2541
 8679W        W24296   8.897   7.279  11.331 -0.3047  0.3588  0.0127
 8680W        W24297   8.038   4.912   6.297 -0.0083 -0.3289  0.0229
 8681W        W24298   7.639   9.770   3.639 -0.0493  0.0700  0.1502
 8682W        W24299  10.889   8.699  12.761 -0.1466 -0.1405  0.1484
 8683W        W24300  13.387   5.628  14.633  0.0014  0.1937  0.1018
 8684W        W24301   2.578  11.107   1.113 -0.3203 -0.0558  0.0486
 8685W        W24302  14.613  15.036   0.251 -0.2544 -0.4010 -0.3337
 8686W        W24303  15.342  15.402  13.919  0.2006 -0.2636  0.2768
 8687W        W24304  13.303   3.517   1.481  0.4349 -0.0462  0.0438
 8688W        W24305  13.877   5.220  12.167  0.0850 -0.0972 -0.2656
 8689W        W24306   0.147   2.115   3.001 -0.1722  0.0317 -0.1563
 8690W        W24307   3.496  11.290  11.884  0.0524  0.0942  0.0139
 8691W        W24308   9.231   9.249  11.599  0.0978  0.1710  0.2205
 8692W        W24309   1.555   9.233   2.303 -0.3621  0.0620 -0.1614
 8693W        W24310   0.558   6.282  14.077 -0.1290 -0.2797  0.1638
 8694W        W24311  10.218   6.398   3.779 -0.3685  0.2324  0.1227
 8695W        W24312   9.302   4.942   1.717  0.1406  0.0493 -0.0940
 8696W        W24313   8.884  13.102   2.339 -0.1621  0.1362  0.0230
 8697W        W24314   1.987  10.042   2.488  0.2908  0.1389 -0.1947
 8698W        W24315   0.407   6.845   4.544 -0.0292  0.1775  0.0323
 8699W        W24316  13.642  16.435  13.318  0.1372  0.4342 -0.0588
 8700W        W24317   7.111   8.642  11.448 -0.2199  0.2025 -0.3809
 8701W        W24318  17.346  11.262   2.928  0.1484  0.0820 -0.0767
 8702W        W24319  13.433   5.729   1.811 -0.2004 -0.1355  0.0698
 8703W        W24320  12.028   6.835  14.194 -0.1043 -0.0938 -0.0449
 8704W        W24321  18.580  10.210   2.754 -0.4794 -0.0181  0.4097
 8705W        W24322   4.081  10.090  10.865  0.2160 -0.0609 -0.2944
 8706W        W24323   3.100  12.549   0.578  0.2472 -0.2160 -0.2975
 8707W        W24324   5.960  11.690   0.186 -0.0660 -0.1511 -0.2136
 8708W        W24325   2.330  11.304  15.762 -0.2474 -0.0089 -0.1607
 8709W        W24326  11.554  14.424   5.051  0.0200 -0.0776 -0.0409
 8710W        W24327  15.117   5.370  10.659  0.1193 -0.2183 -0.1228
 8711W        W24328  14.341  15.150   5.251 -0.0455  0.0372 -0.0631
 8712W        W24329   7.663   2.446  10.963 -0.3074  0.1874  0.4824
 8713W        W24330   5.449   8.814  11.254 -0.2052  0.0046  0.1227
 8714W        W24331   3.673  14.324   0.345  0.1149 -0.0852  0.2091
 8715W        W24332  14.692   2.202   1.689 -0.0958  0.1929  0.1628
 8716W        W24333   4.406  13.031  12.373  0.1103 -0.3765 -0.0768
 8717W        W24334  16.919  16.213  12.487 -0.1175  0.1710 -0.0612
 8718W        W24335   5.293   7.786  15.240 -0.2260  0.0425 -0.1368
 8719W        W24336  17.201   6.595  14.459 -0.1984 -0.1436  0.0757
 8720W        W24337   1.442   3.429   1.676 -0.1102  0.1714  0.1643
 8721W        W24338   4.417   8.783  14.120 -0.2353 -0.2410  0.0738
 8722W        W24339  14.500  14.180  12.667 -0.0271 -0.2774  0.0984
 8723W        W24340   2.924  11.952   0.724 -0.0224 -0.0278 -0.1844
 8724W        W24341   8.144   7.562   4.951  0.2292  0.0285 -0.0432
 8725W        W24342  11.550  14.003   3.990  0.0135  0.0638 -0.1574
 8726W        W24343   3.036  16.282  11.897 -0.1658 -0.5583  0.0041
 8727W        W24344   5.186  12.771  12.224  0.0469 -0.2387  0.0570
 8728W        W24345   7.709  11.234   1.756 -0.0968 -0.0134 -0.1501
 8729W        W24346  14.106  17.177   6.102  0.1511 -0.3270 -0.0971
 8730W        W24347   8.851   1.088  12.852 -0.2020 -0.0004 -0.2117
 8731W        W24348   5.852   8.363  13.533 -0.1478  0.2366  0.0045
 8732W        W24349  16.500   5.048  11.608 -0.0662  0.1089 -0.2852
 8733W        W24350  12.397   7.105   4.649  0.0014 -0.1124 -0.0782
 8734W        W24351  13.353   1.049  12.122 -0.0674  0.2700  0.1874
 8735W        W24352  18.108  12.877  15.419 -0.1231  0.0386 -0.1951
 8736W        W24353   4.078  11.056   4.434 -0.3867 -0.2940 -0.1757
 8737W        W24354   6.194  11.193  14.241  0.2438 -0.1852 -0.0050
 8738W        W24355   3.767  16.304  13.050  0.0625 -0.0510 -0.0305
 8739W        W24356   9.564   0.146   1.669  0.1212 -0.3755  0.3685
 8740W        W24357  13.252   8.723   1.076  0.1394  0.2833 -0.0248
 8741W        W24358   9.152   8.173   4.799 -0.1281  0.0133  0.4389
 8742W        W24359  17.690   9.502  15.575  0.3459  0.0372  0.0641
 8743W        W24360  10.922   5.002  12.688 -0.3536  0.1815 -0.1747
 8744W        W24361  17.283   4.264   3.688 -0.2274 -0.0872  0.0707
 8745W        W24362   6.535   2.824   0.526 -0.0961 -0.0715  0.1089
 8746W        W24363  15.483  16.581   2.327  0.1561  0.1539  0.0959
 8747W        W24364  16.873   5.729  10.965  0.1787  0.1858 -0.1245
 8748W        W24365  13.640   0.900  15.253  0.0463 -0.0749 -0.0704
 8749W        W24366   9.465  17.247   1.718  0.2370  0.2545 -0.1351
 8750W        W24367  15.362  12.820   0.103  0.0748 -0.3337 -0.0556
 8751W        W24368   5.849  10.188   3.440 -0.1046  0.3422 -0.0100
 8752W        W24369  12.281  18.351   2.010  0.3215 -0.0549 -0.1646
 8753W        W24370  10.011  16.498   2.610  0.0567 -0.0078  0.1501
 8754W        W24371   8.257  16.706   2.029  0.4403 -0.0143  0.1141
 8755W        W24372  13.930  18.533   2.585 -0.1972 -0.0918  0.0037
 8756W        W24373  12.312  17.296  13.955  0.3568  0.0559  0.1464
 8757W        W24374  10.336   1.132  13.022  0.3170 -0.0589 -0.0684
 8758W        W24375   6.339   7.072   4.268  0.2496  0.0036 -0.0761
 8759W        W24376   7.131   0.241   4.447  0.1309 -0.0097  0.0654
 8760W        W24377  14.928  10.977  10.174 -0.0891  0.3272 -0.0894
 8761W        W24378  17.731  16.927  14.539 -0.1992 -0.1812 -0.1414
 8762W        W24379  13.302  12.156   2.375 -0.2311 -0.1256 -0.2475
 8763W        W24380   9.413  11.991   1.565  0.0322  0.4866  0.1059
 8764W        W24381   7.578   7.288   0.217  0.1170  0.1021 -0.0301
 8765W        W24382   3.734   7.934  13.082 -0.1793 -0.1646 -0.0574
 8766W        W24383  18.298  14.136  10.996 -0.5845 -0.2557  0.0170
 8767W        W24384   9.262  13.733  12.607 -0.0979 -0.0344  0.1296
 8768W        W24385   8.736   5.502   2.961  0.0611 -0.0752 -0.1670
 8769W        W24386  17.144   1.964   3.501 -0.0368 -0.2884 -0.1882
 8770W        W24387   1.537  13.164   2.667 -0.2722  0.1354 -0.0848
 8771W        W24388  17.884   2.376   4.342  0.0930  0.1538  0.1841
 8772W        W24389  17.533  14.190  14.924 -0.2795 -0.3688 -0.2853
 8773W        W24390  18.051   1.325   5.294  0.0520 -0.1387 -0.0242
 8774W        W24391   7.068  11.214  15.530 -0.2385 -0.2930  0.1891
 8775W        W24392  10.963  13.816   3.280  0.1491  0.3903  0.1237
 8776W        W24393  11.126   5.741  11.486  0.0425 -0.0106  0.1107
 8777W        W24394   7.233  13.323  12.370 -0.1618 -0.0895  0.0099
 8778W        W24395   9.354  11.552  12.659 -0.1600 -0.3345 -0.1460
 8779W        W24396   3.562  12.386   4.274 -0.1515 -0.4329  0.1650
 8780W        W24397   2.709  14.387  11.038  0.1558 -0.1783 -0.0166
 8781W        W24398   1.623   3.228   2.096 -0.0484  0.1084 -0.2283
 8782W        W24399  11.977  14.714   2.610 -0.4499  0.0522  0.0399
 8783W        W24400   5.135  15.960   0.512 -0.1657 -0.0269 -0.4649
 8784W        W24401  11.294   4.566   1.659  0.1796 -0.2845  0.1763
 8785W        W24402  18.563   0.096  11.388  0.2750 -0.0244  0.2131
 8786W        W24403  14.265   5.348   4.701  0.3668  0.3079  0.1006
 8787W        W24404   1.273   1.804  13.417  0.0755 -0.3197 -0.0992
 8788W        W24405  18.217   3.648  14.109 -0.0924 -0.1337 -0.2054
 8789W        W24406   9.251   6.048   3.667  0.0464  0.0765  0.0229
 8790W        W24407  10.900  17.293   3.730 -0.1494  0.2389 -0.3719
 8791W        W24408   9.797  10.983   0.750 -0.0567 -0.0294  0.1702
 8792W        W24409  10.567  12.605  15.099 -0.0333 -0.2880 -0.3659
 8793W        W24410   6.692   1.486  15.211 -0.2344 -0.0382  0.0047
 8794W        W24411  10.344  13.150   0.027 -0.0138 -0.0851 -0.0236
 8795W        W24412  12.173  15.975  12.831 -0.1195  0.2071  0.0674
 8796W        W24413   7.595   5.347  11.668 -0.0232 -0.2682 -0.0806
 8797W        W24414   9.880   0.306  14.387 -0.1634  0.2767  0.2107
 8798W        W24415  14.150  11.449   4.179  0.0000 -0.2080  0.2789
 8799W        W24416   4.989  16.608  10.727  0.1053 -0.4025 -0.3215
 8800W        W24417  10.347   7.235   4.004 -0.4536  0.2523  0.5971
 8801W        W24418  14.767   2.283  13.783  0.2140 -0.0089  0.1926
 8802W        W24419  17.440  10.093  12.179 -0.1424  0.2620 -0.0377
 8803W        W24420  18.570  14.539  10.794 -0.3289 -0.1157 -0.0679
 8804W        W24421   3.338  13.904  14.628 -0.2816  0.1071  0.2187
 8805W        W24422  11.749  17.169   1.930 -0.1220 -0.0048  0.0457
 8806W        W24423  16.872  14.460  11.030 -0.1210 -0.1620 -0.3218
 8807W        W24424   6.192  10.274   2.189  0.3982 -0.1799 -0.1136
 8808W        W24425   3.848  15.997   3.323 -0.0105 -0.1855  0.4558
 8809W        W24426  11.442  14.815   0.869  0.1775 -0.1226  0.0852
 8810W        W24427   6.017   9.058  15.695  0.3171  0.3952  0.0243
 8811W        W24428  11.089  17.613   4.192  0.0759  0.1664 -0.2237
 8812W        W24429  17.889  11.775  14.007  0.2125 -0.0082 -0.2014
 8813W        W24430  13.851  15.773  12.626 -0.1045  0.1034 -0.1640
 8814W        W24431  14.393  14.227   2.216 -0.1139 -0.0079  0.4559
 8815W        W24432   9.091   1.122   5.186  0.1240  0.2901 -0.0310
 8816W        W24433   2.512   1.266  10.652  0.6401  0.2404 -0.0883
 8817W        W24434  14.264   3.189   2.710 -0.1527  0.0599 -0.2504
 8818W        W24435   0.076   7.321  15.340 -0.0557 -0.0616 -0.2019
 8819W        W24436   2.150   9.630  13.488 -0.1662 -0.0134 -0.1871
 8820W        W24437  15.609   0.341  11.839  0.1041 -0.0278  0.1019
 8821W        W24438   9.884   3.260   0.999  0.0069  0.4305  0.0066
 8822W        W24439  12.189  11.791  13.154  0.1109 -0.0842  0.1199
 8823W        W24440  15.615  10.434  12.023 -0.0792 -0.4503  0.0615
 8824W        W24441   5.306  17.237   0.909  0.4378 -0.2069  0.0697
 8825W        W24442  17.941  13.443  15.401 -0.0043 -0.0170 -0.0923
 8826W        W24443   2.437  15.809  13.143  0.1020  0.1094  0.3489
 8827W        W24444   3.232   1.446   3.563 -0.2314 -0.1100 -0.1985
 8828W        W24445  10.106   6.956   0.304  0.1189  0.1364  0.0273
 8829W        W24446   1.375   2.514   1.429  0.3356 -0.0389 -0.3695
 8830W        W24447  16.628  14.347  11.967 -0.0008  0.0371 -0.3344
 8831W        W24448   1.193   0.864  11.286 -0.1167  0.3887 -0.0183
 8832W        W24449  18.025   2.557   4.779  0.2546 -0.0778 -0.0444
 8833W        W24450  14.670   3.403   2.891  0.2370  0.0644 -0.0199
 8834W        W24451   7.104   6.157  15.683  0.0903 -0.0171 -0.1734
 8835W        W24452   9.330   5.854   5.845  0.3312  0.0035  0.1769
 8836W        W24453  16.253   8.184  13.971  0.1267  0.2250  0.3128
 8837W        W24454   8.229   8.280   5.519 -0.0605 -0.1188  0.0776
 8838W        W24455   6.944  14.293   0.738 -0.2409  0.1648 -0.0611
 8839W        W24456   2.927   1.205  13.413 -0.0521 -0.0085  0.0283
 8840W        W24457   5.752   5.378   1.620  0.1113 -0.2633  0.1726
 8841W        W24458   7.521  12.811   1.446  0.1615 -0.1181 -0.2197
 8842W        W24459  11.313  10.926  11.904  0.1699  0.0101  0.0980
 8843W        W24460   8.129   1.373  13.105  0.1167 -0.2171 -0.2311
 8844W        W24461   7.828   7.699  11.024  0.1072 -0.2998 -0.1086
 8845W        W24462   4.823  16.769  15.109  0.0369 -0.2575  0.3042
 8846W        W24463  17.035  14.399  12.264 -0.3055 -0.2816 -0.1099
 8847W        W24464  12.886  13.355  12.519  0.0135  0.2979 -0.1269
 8848W        W24465   7.163  10.762  15.312 -0.0326  0.2537  0.2771
 8849W        W24466   2.367  17.033  13.541 -0.0268 -0.0021 -0.0128
 8850W        W24467   6.013   2.234  15.497 -0.0041 -0.0594 -0.1618
 8851W        W24468  18.043  14.123  14.201  0.0686 -0.2682  0.0109
 8852W        W24469   2.568  11.887  11.240  0.0676  0.0631 -0.1827
 8853W        W24470  13.153   0.181   3.023 -0.0895  0.0992  0.0810
 8854W        W24471   3.784   9.356  15.200 -0.3081  0.1930 -0.0223
 8855W        W24472   5.822   6.124   0.410  0.3054 -0.2565 -0.0851
 8856W        W24473  10.004  10.439   5.102  0.3525 -0.2234 -0.1446
 8857W        W24474  17.218  18.095   3.920  0.1134 -0.3448 -0.1549
 8858W        W24475  14.050   7.400  13.586  0.0979 -0.0671 -0.0403
 8859W        W24476  10.375  11.257   2.950  0.2670 -0.1806  0.0643
 8860W        W24477  18.108   5.486  12.852 -0.0234  0.1075 -0.0817
 8861W        W24478   8.280  12.517  11.662  0.0556 -0.0741  0.3072
 8862W        W24479   7.552   6.814  13.530 -0.3659 -0.1255 -0.1796
 8863W        W24480   6.677   8.761   0.240  0.0985 -0.3638 -0.0159
 8864W        W24481   9.260  18.509   1.376  0.1716 -0.1186  0.0662
 8865W        W24482   7.337  15.428   1.648  0.2331 -0.1031 -0.0413
 8866W        W24483   7.911   7.720  13.519 -0.0027  0.0508 -0.1464
 8867W        W24484  10.728  16.127  15.555 -0.1894 -0.0081 -0.1419
 8868W        W24485   4.349   0.670  13.315 -0.1814  0.0916  0.0703
 8869W        W24486   2.020   6.853   3.950 -0.0513 -0.3229 -0.1839
 8870W        W24487   9.267  13.354   0.309  0.1488  0.1685 -0.0444
 8871W        W24488   5.265  11.681   0.100  0.0865  0.4816 -0.1559
 8872W        W24489   3.130   5.406   3.955 -0.3148  0.1378 -0.2084
 8873W        W24490   3.804   7.310   5.188  0.1740 -0.1532  0.1109
 8874W        W24491   5.855  17.400  13.030  0.0588  0.1556  0.1371
 8875W        W24492  15.164   2.809   5.406  0.1274 -0.1953 -0.1489
 8876W        W24493  18.613   3.191  14.428 -0.4778 -0.0465 -0.1054
 8877W        W24494   6.699  14.587  15.041 -0.1727 -0.2688 -0.0237
 8878W        W24495  11.315   7.993   2.743  0.1389 -0.1743  0.0378
 8879W        W24496  17.482   2.076   1.000  0.1975  0.3042 -0.2007
 8880W        W24497   0.261   2.912  12.476 -0.1502 -0.2557 -0.2221
 8881W        W24498   7.345  15.578  10.468 -0.2679 -0.3519  0.0052
 8882W        W24499   5.379   6.329   1.291 -0.0633  0.1459  0.2044
 8883W        W24500  15.476  15.441   3.185 -0.1430 -0.5462  0.1386
 8884W        W24501  11.239   9.810   4.427 -0.1083 -0.1500 -0.1164
 8885W        W24502   8.954  16.340  13.978 -0.0241  0.1660 -0.0563
 8886W        W24503  11.641  13.836   1.715 -0.0095 -0.0696  0.3697
 8887W        W24504   6.902   8.643   5.826  0.1880 -0.1416 -0.2990
 8888W        W24505   4.325   1.257   1.484 -0.1180 -0.1165  0.2773
 8889W        W24506  13.626  11.852  11.472  0.1922 -0.3493 -0.2433
 8890W        W24507  14.646  11.628   1.624 -0.0093  0.3759 -0.1156
 8891W        W24508  11.976   4.262   0.372 -0.0864 -0.4852 -0.2271
 8892W        W24509  16.757  17.952  15.255 -0.1068  0.0286  0.2043
 8893W        W24510   0.588  15.584  11.511  0.1843  0.2645 -0.0659
 8894W        W24511  16.227  16.084  14.793  0.0319 -0.0129  0.0506
 8895W        W24512  16.726  11.952  12.294 -0.1802 -0.1354 -0.4033
 8896W        W24513   7.341   4.091   4.754  0.0868 -0.1365 -0.0569
 8897W        W24514   2.852   9.384   2.751  0.0271  0.2537 -0.4481
 8898W        W24515  13.753  18.373  13.425 -0.2380 -0.0883 -0.0217
 8899W        W24516  14.902  17.535   2.157 -0.2452  0.0447  0.1274
 8900W        W24517  14.023  17.373  13.261  0.2099  0.1815  0.0150
 8901W        W24518  15.470  17.088  14.202 -0.0129  0.2433 -0.0339
 8902W        W24519   1.785  15.979   3.661  0.1216 -0.2497  0.0683
 8903W        W24520  11.521  11.305   4.207  0.1461  0.0620 -0.1849
 8904W        W24521  16.192   5.012   0.945  0.1231  0.1117  0.1064
 8905W        W24522  13.870   3.387  11.708  0.2708  0.0912 -0.0122
 8906W        W24523   2.137  12.675   4.473  0.2932  0.1804  0.2366
 8907W        W24524   4.692  15.809  11.734  0.0866  0.5484  0.0653
 8908W        W24525   9.251  18.384  13.920 -0.1323  0.2928  0.1266
 8909W        W24526   9.372  18.010  14.340  0.3333  0.0269  0.1786
 8910W        W24527  12.176  13.834  12.627  0.1025 -0.0471 -0.1704
 8911W        W24528  17.309  13.065   4.612  0.4810 -0.2476  0.1481
 8912W        W24529  13.050  15.977   2.005 -0.0353  0.4618 -0.1430
 8913W        W24530   8.431  12.793  11.208 -0.4698 -0.0844 -0.0892
 8914W        W24531   8.955  10.760  13.185 -0.0716  0.0842 -0.0308
 8915W        W24532  17.308  14.595   0.011  0.0464 -0.2573 -0.2511
 8916W        W24533   5.923   3.827   4.287  0.0916  0.1524  0.1478
 8917W        W24534  17.531   0.315   2.122  0.0734  0.3039  0.1526
 8918W        W24535   1.539  16.879   4.140 -0.0562  0.1043 -0.0340
 8919W        W24536  16.632   2.268  13.478  0.3963  0.0954  0.1012
 8920W        W24537  10.927   9.481  13.304  0.2779 -0.4477 -0.0773
 8921W        W24538  15.738  12.967  10.955  0.1136 -0.1401 -0.3105
 8922W        W24539  12.991   7.670  11.088  0.3226  0.2794  0.3676
 8923W        W24540  11.594  10.973   3.814  0.3585  0.0535  0.0608
 8924W        W24541   2.929   2.173   3.022  0.1056  0.2273 -0.1900
 8925W        W24542  17.300  17.258   5.039 -0.3022  0.0400  0.0888
 8926W        W24543   1.165   8.738   0.539  0.1128  0.2367  0.1713
 8927W        W24544  14.476   6.634  11.992  0.0284  0.0094 -0.1237
 8928W        W24545  11.519   7.427  13.612 -0.2087 -0.0595 -0.0021
 8929W        W24546  12.358  12.645  11.223  0.0609 -0.0218  0.1879
 8930W        W24547   8.859   4.590   6.219  0.0268  0.0118 -0.2355
 8931W        W24548   5.467   7.661  14.613 -0.1599 -0.0155 -0.1301
 8932W        W24549  16.153   6.799   1.655 -0.0011 -0.2696  0.1096
 8933W        W24550   2.889   1.222  15.276 -0.2269  0.1463 -0.0246
 8934W        W24551   2.636  17.209   0.898 -0.0532 -0.2196 -0.0564
 8935W        W24552  12.022   2.163  11.443  0.0592 -0.1581 -0.1286
 8936W        W24553  10.135  11.426  13.231 -0.1145 -0.1049 -0.1061
 8937W        W24554  10.114  15.489   1.718 -0.0177  0.1534  0.4355
 8938W        W24555   0.580   9.680  14.338 -0.2353 -0.0519 -0.1609
 8939W        W24556  16.488   4.820   1.396  0.2839  0.1530  0.0297
 8940W        W24557   8.107  18.565   4.278  0.0273  0.1669  0.0487
 8941W        W24558   0.546  16.258   9.841 -0.0829 -0.1376 -0.0378
 8942W        W24559  15.434   4.983  14.205 -0.0405 -0.1869 -0.0881
 8943W        W24560  11.026  11.779   0.504 -0.0637 -0.1371 -0.0964
 8944W        W24561   4.762   9.731   3.820  0.1527 -0.2327 -0.0387
 8945W        W24562   5.017  14.924   4.228 -0.0644 -0.0329  0.3437
 8946W        W24563   0.414   0.615   5.363  0.2308 -0.1277  0.1853
 8947W        W24564  12.147   7.631  14.380  0.2063  0.0598 -0.1808
 8948W        W24565   9.813  12.409  13.120 -0.2807 -0.0940  0.0297
 8949W        W24566  14.237  12.249  15.596 -0.1509  0.0273  0.1390
 8950W        W24567   5.128  14.820   2.590  0.1261  0.1688  0.0709
 8951W        W24568  10.111  15.621   3.530  0.1024 -0.0392  0.0319
 8952W        W24569   8.391   1.793   1.550 -0.1344  0.1315 -0.3793
 8953W        W24570   4.969  15.562  14.733 -0.1692  0.1221 -0.0410
 8954W        W24571  10.030   2.010  11.596 -0.1217 -0.1410 -0.3085
 8955W        W24572   1.720   2.815   4.320  0.1046  0.2139 -0.0362
 8956W        W24573   0.028  14.602  13.282  0.2507 -0.1783  0.0320
 8957W        W24574   6.057   9.706  11.901  0.2481  0.0729 -0.1505
 8958W        W24575   3.580   2.566  11.173  0.1477 -0.1586 -0.2179
 8959W        W24576  11.314   5.820  13.586 -0.1123  0.0188  0.1882
 8960W        W24577   3.951  16.934   2.220 -0.0287  0.2955  0.2998
 8961W        W24578  11.276   2.048   5.918 -0.1413 -0.0754  0.4624
 8962W        W24579  16.675   7.690   0.296  0.1383  0.3283  0.2396
 8963W        W24580   3.675   5.907   3.840 -0.0955  0.3173 -0.3959
 8964W        W24581   6.631  12.646  12.340  0.1903 -0.1297  0.0560
 8965W        W24582   9.034   4.941  14.422 -0.0264  0.2040  0.0634
 8966W        W24583   0.506  17.413   3.240 -0.2755 -0.1158 -0.0382
 8967W        W24584  10.275   3.329  14.677  0.0575  0.1364 -0.2673
 8968W        W24585  16.224   1.740   1.919  0.2177 -0.2887 -0.2694
 8969W        W24586   5.009  13.543   3.106 -0.1305  0.2054 -0.0507
 8970W        W24587  12.384  11.923   3.427 -0.1169 -0.2829  0.2487
 8971W        W24588   6.256  15.353  12.871 -0.2384  0.0477  0.5459
 8972W        W24589   1.549   1.600  11.384 -0.3041  0.2170  0.1455
 8973W        W24590  15.308  16.457  11.208 -0.3368  0.1958  0.0809
 8974W        W24591   3.539   0.452   4.185  0.0038  0.3547 -0.0776
 8975W        W24592   2.676   9.110   3.163  0.1451 -0.2303 -0.2510
 8976W        W24593  17.989  18.493  11.434 -0.0537  0.2351  0.0418
 8977W        W24594  10.140  12.296   3.258  0.0192  0.1378  0.1487
 8978W        W24595   2.083   4.639  15.299 -0.0764 -0.3663  0.0715
 8979W        W24596   6.660   6.480  15.786 -0.1830 -0.1180  0.0441
 8980W        W24597   8.715   0.136  10.656  0.3933  0.3673  0.0857
 8981W        W24598  15.706  15.307   3.946  0.2300 -0.1469 -0.1399
 8982W        W24599  11.626   2.293  15.724 -0.0378 -0.2393  0.0665
 8983W        W24600  16.890   1.839  13.476 -0.0746 -0.2832 -0.0934
 8984W        W24601  10.405  13.246   0.600 -0.0953  0.0379 -0.2214
 8985W        W24602  13.992   0.870  13.005 -0.0519  0.1547  0.0519
 8986W        W24603   0.491   3.972  14.237 -0.1888  0.1718 -0.0398
 8987W        W24604  16.224  15.097   0.577  0.0195 -0.0940  0.0204
 8988W        W24605  11.005  11.310  15.049  0.1148  0.0564 -0.0939
 8989W        W24606   0.894   2.037   2.791 -0.0371 -0.2218 -0.1525
 8990W        W24607   9.172   3.643   3.534  0.1003 -0.0139 -0.2030
 8991W        W24608   7.229   7.108  12.196  0.0207  0.0346 -0.0405
 8992W        W24609  10.637   6.853  15.213 -0.1367  0.3961  0.2944
 8993W        W24610  13.244  12.618   1.337  0.2667  0.0126 -0.1643
 8994W        W24611  12.837  14.623   4.594  0.3862 -0.1612 -0.0651
 8995W        W24612  10.248  16.162   4.652 -0.3361  0.3436  0.2107
 8996W        W24613   2.641   6.878  15.489  0.0801 -0.0696  0.0526
 8997W        W24614   5.001   1.196  10.702 -0.0756 -0.1489 -0.2746
 8998W        W24615  14.278  18.020  11.658 -0.2611 -0.1628  0.2337
 8999W        W24616  12.953   3.779  14.418  0.0403 -0.0193  0.2285
 9000W        W24617  18.018   6.052  12.718 -0.0272  0.2751  0.1142
 9001W        W24618  13.924   2.088  11.705 -0.0911 -0.0029  0.1573
 9002W        W24619   9.991   1.032  13.618 -0.1420 -0.0150  0.0488
 9003W        W24620  11.356  10.425   9.897  0.1000  0.2758 -0.1878
 9004W        W24621  17.610   1.056  12.406  0.0637 -0.1006  0.0154
 9005W        W24622   8.969  15.544  13.381  0.0823 -0.1158  0.1480
 9006W        W24623   9.309   5.865   1.727 -0.3890  0.1403 -0.1862
 9007W        W24624   6.586  16.065  11.505  0.0532 -0.0771 -0.0404
 9008W        W24625   7.066   5.630   0.696 -0.0328  0.2770 -0.3350
 9009W        W24626  15.915   9.339   0.244  0.0162 -0.2415  0.1131
 9010W        W24627   0.811   8.727  10.745  0.0297 -0.0421 -0.2143
 9011W        W24628   9.388   3.891   4.556 -0.1591  0.2348 -0.2035
 9012W        W24629  17.207  12.340   2.528 -0.1757  0.1326  0.1042
 9013W        W24630   4.714  18.272  14.168 -0.2979 -0.3284 -0.1431
 9014W        W24631   5.219   2.422   2.467 -0.3289 -0.0299  0.2321
 9015W        W24632   5.831  16.536   2.979 -0.2587 -0.0921 -0.2690
 9016W        W24633   3.887   4.318  10.164  0.0734 -0.1097 -0.2556
 9017W        W24634  10.782  17.004  14.508 -0.0013  0.0870  0.0826
 9018W        W24635   5.621   2.292  14.466  0.0707 -0.0494  0.2583
 9019W        W24636   9.704   8.014   5.610  0.0203 -0.1604  0.3643
 9020W        W24637  16.791   2.427   4.252 -0.0509  0.2327  0.1188
 9021W        W24638  18.650  13.385   3.780  0.0691 -0.2090  0.2400
 9022W        W24639   2.580   4.087   1.208  0.0511  0.1809  0.1434
 9023W        W24640   6.813   5.275   6.444 -0.0577  0.1916 -0.0117
 9024W        W24641   8.327  12.768  12.113 -0.1719  0.0293 -0.1828
 9025W        W24642   0.899  15.877  11.790  0.1536 -0.1132 -0.0165
 9026W        W24643  12.787  13.872   3.267  0.3799 -0.1339  0.2441
 9027W        W24644   6.829   3.041  14.451  0.1506  0.3460 -0.2216
 9028W        W24645  18.635  13.500   4.789 -0.2074  0.1771 -0.3065
 9029W        W24646   8.168  13.053  13.360 -0.0380  0.0974  0.0338
 9030W        W24647  16.184   2.454  13.601  0.3006  0.1494 -0.0471
 9031W        W24648  18.589  18.270  12.803 -0.0854  0.0355  0.4496
 9032W        W24649  15.092   5.915  14.609 -0.5167  0.0914 -0.0259
 9033W        W24650  10.574   3.586   5.668 -0.0101 -0.2908  0.0844
 9034W        W24651   1.845   6.898  11.486  0.0694 -0.1422  0.1201
 9035W        W24652   0.096  15.640  11.546 -0.0289 -0.1598  0.1015
 9036W        W24653  18.094  16.146   3.620 -0.1496 -0.2713 -0.1705
 9037W        W24654   9.398   0.242  13.563  0.3211 -0.0386 -0.0462
 9038W        W24655  17.561   5.150   4.590 -0.1389  0.0964  0.1256
 9039W        W24656   0.098  11.737   4.170  0.0140  0.1342  0.1334
 9040W        W24657  12.286   7.829  15.699  0.1362 -0.1121 -0.0281
 9041W        W24658   6.048   3.366   4.344 -0.3049  0.0723 -0.1646
 9042W        W24659  10.386  15.206   1.447  0.2167  0.1743  0.2589
 9043W        W24660  14.578  10.724  10.507  0.1737 -0.1137  0.4173
 9044W        W24661   0.257  10.304  11.123  0.1363  0.0704  0.1480
 9045W        W24662   1.223  16.782  15.776 -0.1714  0.3550 -0.2208
 9046W        W24663   6.788   3.420   3.576 -0.2369  0.0920 -0.1412
 9047W        W24664   2.708   5.861  14.471  0.4678  0.1756  0.1216
 9048W        W24665   5.986   9.530  11.376  0.1175  0.3410 -0.1178
 9049W        W24666  12.664   6.888   1.642  0.2275 -0.1189  0.1357
 9050W        W24667   7.476   9.985   4.986 -0.0634 -0.2435  0.0357
 9051W        W24668   2.875  17.677  10.944  0.0893 -0.0492 -0.0635
 9052W        W24669  14.822   4.674  12.766 -0.0417  0.1332  0.2291
 9053W        W24670   5.611  13.361  10.568  0.1967  0.1097 -0.0285
 9054W        W24671   7.202  12.147  11.332  0.3147  0.0987  0.0709
 9055W        W24672   9.196   8.282  13.262  0.1059 -0.3249  0.0883
 9056W        W24673   1.318   6.618  12.758  0.0803 -0.0912  0.0247
 9057W        W24674   5.042   2.477   1.153 -0.1719  0.1519  0.1866
 9058W        W24675   6.830  18.420  12.364 -0.0290  0.1235 -0.0084
 9059W        W24676  14.772  15.387  11.828  0.2260 -0.0148 -0.1970
 9060W        W24677   8.310   3.299  15.655 -0.0361  0.0645  0.1460
 9061W        W24678   3.534   1.777  11.795  0.1318 -0.0899 -0.0528
 9062W        W24679   9.494  11.419  12.130 -0.0680  0.3311 -0.2000
 9063W        W24680   6.867   2.067   5.883  0.1883 -0.0044  0.1748
 9064W        W24681  14.709   1.746   1.477  0.0690 -0.2592  0.3178
 9065W        W24682   1.202   3.879   1.847 -0.3057 -0.1043  0.0475
 9066W        W24683   2.012  14.414   1.004  0.1257  0.1068 -0.0076
 9067W        W24684  17.119  16.796  13.260 -0.0704  0.0004 -0.1444
 9068W        W24685   8.817  17.578  13.764 -0.3673  0.2840  0.2982
 9069W        W24686   5.057  16.957   2.100 -0.1549 -0.0520 -0.1708
 9070W        W24687   6.445   3.344  12.252 -0.0931  0.0009  0.2314
 9071W        W24688  14.144  17.568   2.636 -0.1069  0.6417  0.0130
 9072W        W24689   7.897  12.202  12.463 -0.0535  0.4657 -0.2585
 9073W        W24690  15.447   9.013   9.425  0.1360  0.2855  0.2017
 9074W        W24691  16.456  18.144   2.207  0.1014  0.1574 -0.1986
 9075W        W24692  11.782  11.624  15.734  0.1523 -0.0832  0.3322
 9076W        W24693  16.540   1.666   1.023 -0.0908  0.2880 -0.0624
 9077W        W24694  11.390   3.007  13.584  0.1512  0.1237 -0.0086
 9078W        W24695  12.050  12.580   0.543  0.0628 -0.3166 -0.0760
 9079W        W24696   0.156  14.143  13.650 -0.2795 -0.0534 -0.2149
 9080W        W24697  13.375  15.706   5.104 -0.0038  0.2986  0.0149
 9081W        W24698   7.005   4.067  12.330  0.0453 -0.0777  0.0373
 9082W        W24699  18.448  10.039  15.708 -0.1475  0.0168 -0.1100
 9083W        W24700  10.995  13.650  14.858 -0.1336  0.4212  0.2029
 9084W        W24701   1.494  17.927  11.018 -0.0438 -0.0260  0.2090
 9085W        W24702  16.997   2.161   1.467  0.2665  0.2335  0.4435
 9086W        W24703   2.881  13.668  13.618 -0.0625  0.1741 -0.0374
 9087W        W24704   9.172   5.748   4.668 -0.0618  0.2414 -0.1274
 9088W        W24705   7.907   0.847   1.819  0.0455 -0.1168  0.2197
 9089W        W24706  15.475  15.087   5.226  0.1080  0.0027  0.0262
 9090W        W24707  12.747   0.922   5.449 -0.2792 -0.1339 -0.0485
 9091W        W24708  18.081  11.906  15.574 -0.1173  0.0794  0.0772
 9092W        W24709   2.856   5.751  10.186 -0.0469  0.0255 -0.5301
 9093W        W24710  16.223  16.339   1.117  0.1486  0.0966  0.3302
 9094W        W24711  10.472   5.602   3.305  0.2217  0.0878 -0.1211
 9095W        W24712   2.114  15.285  14.406  0.2621 -0.1202  0.2507
 9096W        W24713  13.300   8.398   3.622 -0.2679  0.1018 -0.3005
 9097W        W24714  17.408   7.199  12.516  0.0833  0.1486  0.1501
 9098W        W24715   2.801  10.865   2.492  0.0903  0.0892 -0.0074
 9099W        W24716   0.892  16.877  14.418  0.0408  0.2561 -0.3311
 9100W        W24717  12.024   1.204  11.232  0.0561 -0.0670 -0.1433
 9101W        W24718  15.541   5.033   2.366  0.0720  0.3742 -0.1271
 9102W        W24719   8.598   7.702  11.097  0.2523 -0.1819  0.2026
 9103W        W24720   5.859  11.490   2.285  0.0074 -0.1479 -0.2573
 9104W        W24721   8.006  17.056   3.733 -0.0234  0.1405  0.1676
 9105W        W24722  14.359   7.831   3.204 -0.1751  0.0179  0.1108
 9106W        W24723  11.749  11.386   3.215  0.0841 -0.1991 -0.3956
 9107W        W24724  10.360   4.886   0.438  0.3457  0.0847  0.1885
 9108W        W24725  12.926  16.388  10.713  0.1460 -0.2352 -0.1890
 9109W        W24726   9.386   7.198   5.227 -0.2411  0.1454  0.2141
 9110W        W24727  12.957   2.894   3.848 -0.0704 -0.2718  0.0477
 9111W        W24728   3.110  17.786   2.881  0.0458  0.3326 -0.1137
 9112W        W24729   2.139   0.088  11.735 -0.0260  0.1553  0.0480
 9113W        W24730  15.130   6.015  12.446 -0.0052 -0.0523  0.3312
 9114W        W24731   1.364   8.477   0.162 -0.2420 -0.4376  0.4399
 9115W        W24732  15.869  11.799   0.590  0.1553 -0.1228  0.1485
 9116W        W24733   2.490   2.113   2.815  0.2692 -0.0129  0.1399
 9117W        W24734   0.820  11.537  15.795  0.0174 -0.0691 -0.2345
 9118W        W24735   3.528   2.152   6.043  0.1050 -0.2031  0.3678
 9119W        W24736   8.331  10.799   2.332 -0.3153  0.1283  0.0302
 9120W        W24737  18.573  11.020  11.608  0.0034 -0.1307  0.1098
 9121W        W24738   4.760   5.958   2.993  0.2074  0.0397 -0.0410
 9122W        W24739   4.899  17.316  13.428  0.0173  0.0344  0.1848
 9123W        W24740   9.701   6.333   3.586 -0.3013 -0.0855  0.0548
 9124W        W24741   9.324  12.527  11.656 -0.0921 -0.1352  0.0849
 9125W        W24742   6.157   7.668  12.670 -0.0384 -0.0423  0.1194
 9126W        W24743   4.270  13.250  10.584  0.0106  0.1055 -0.1926
 9127W        W24744  12.101  13.007  11.740  0.0256 -0.1093  0.2309
 9128W        W24745   6.437   2.674  12.367 -0.4624  0.2956  0.0377
 9129W        W24746   8.422   9.886   4.617  0.0031 -0.2504  0.1138
 9130W        W24747   8.227  17.659   5.568  0.2266  0.0040 -0.0225
 9131W        W24748  14.025   0.208   3.865  0.0430 -0.0311  0.0191
 9132W        W24749  10.848   4.178   3.767  0.1551 -0.0320 -0.2064
 9133W        W24750  11.274   8.396   3.677  0.2055 -0.0852  0.1060
 9134W        W24751   4.416  13.883  14.108 -0.1623 -0.2410  0.0029
 9135W        W24752   6.003  15.741  14.192 -0.3514 -0.0412 -0.2467
 9136W        W24753  13.905   1.974   3.476  0.1523 -0.0886  0.0955
 9137W        W24754  16.004  11.770   1.960 -0.2644  0.2422 -0.1008
 9138W        W24755   7.630   4.587   5.978  0.3166 -0.0411  0.0691
 9139W        W24756   1.408  15.501   3.419 -0.4497 -0.1061  0.1162
 9140W        W24757   7.543  10.456   2.742 -0.0264  0.1412 -0.1119
 9141W        W24758   5.824  14.582  12.539 -0.1563  0.0218  0.3614
 9142W        W24759   7.742   0.610  12.504 -0.1715  0.1481 -0.0910
 9143W        W24760  16.543  10.653   1.477 -0.2046  0.0577  0.1653
 9144W        W24761  16.925   2.684  14.929  0.0878 -0.0652 -0.1041
 9145W        W24762  18.626   6.795  15.690 -0.0973  0.2068 -0.2177
 9146W        W24763   6.862  12.113  14.839  0.0831  0.0259 -0.0026
 9147W        W24764   8.002   9.337  15.740  0.0306  0.1106  0.2447
 9148W        W24765  16.607   8.183  14.329 -0.0749  0.4782 -0.0575
 9149W        W24766  10.342  10.712   4.761  0.1050  0.2072 -0.1440
 9150W        W24767  13.271   0.503  11.890  0.4192 -0.2574  0.3903
 9151W        W24768   5.742   7.822  12.308 -0.1648  0.0853 -0.2635
 9152W        W24769  16.111  15.971   0.251 -0.0581 -0.0718 -0.0890
 9153W        W24770   8.054   2.063  15.141 -0.2897 -0.2829 -0.1719
 9154W        W24771  14.292   6.828  13.415  0.2587  0.1661  0.0421
 9155W        W24772   5.815   0.777   2.077 -0.0013 -0.0467 -0.0676
 9156W        W24773   1.722  14.257   0.613  0.0864 -0.0449 -0.0782
 9157W        W24774   8.759   2.300  11.604  0.0639  0.1115 -0.0301
 9158W        W24775   3.830  12.139  14.819  0.1159 -0.1708 -0.1277
 9159W        W24776   5.340   0.686   0.351  0.0093  0.0909 -0.2182
 9160W        W24777  11.086  12.935  11.851  0.0720 -0.2889 -0.1915
 9161W        W24778  13.087  18.586   5.807  0.1236  0.0462 -0.1077
 9162W        W24779  10.618  14.122  14.550 -0.3787 -0.0864  0.0885
 9163W        W24780  17.689   6.895   1.685 -0.0023  0.0167  0.1164
 9164W        W24781   7.562   0.762   5.889 -0.4968  0.3634  0.2555
 9165W        W24782   5.302  16.840  15.220 -0.0116 -0.1304 -0.2661
 9166W        W24783  13.782  17.060  13.892 -0.0502 -0.0009 -0.1059
 9167W        W24784   6.308   9.276  10.999 -0.3132  0.2136 -0.1176
 9168W        W24785  10.459   6.388   0.260 -0.0835  0.0020 -0.3025
 9169W        W24786   9.269  13.726  14.557  0.0896 -0.4534  0.0370
 9170W        W24787   7.735  16.449  13.226  0.2243  0.0460 -0.0763
 9171W        W24788   5.161   1.709  11.258 -0.1791 -0.1085 -0.3008
 9172W        W24789   0.768  10.385   3.772  0.1895 -0.0477 -0.3876
 9173W        W24790  17.441   4.786   3.209 -0.0530  0.3231 -0.1165
 9174W        W24791  13.658  13.735  14.451 -0.0944 -0.1953  0.1907
 9175W        W24792   8.054   0.159  13.445  0.0226 -0.0963 -0.0397
 9176W        W24793   3.083   4.587   1.668 -0.0971 -0.4049  0.1348
 9177W        W24794  12.559  11.710  12.623 -0.1176 -0.0744 -0.1291
 9178W        W24795  13.658  11.079   5.616 -0.0851  0.1750 -0.0153
 9179W        W24796  10.287  13.511  15.516 -0.1399  0.2487 -0.0609
 9180W        W24797  10.621   6.372  13.059 -0.1354 -0.1256 -0.1063
 9181W        W24798   4.942   9.954  10.157  0.0591  0.0588  0.0343
 9182W        W24799   3.769  14.842  14.884  0.3150 -0.0474 -0.1716
 9183W        W24800   3.012   8.435  12.108  0.0081 -0.1766  0.0107
 9184W        W24801  12.934  11.028  13.399 -0.0100 -0.0360  0.0653
 9185W        W24802  15.748  13.409  10.581 -0.3968 -0.0605 -0.2461
 9186W        W24803   8.700   7.735   3.199 -0.0495 -0.0551  0.2098
 9187W        W24804  16.803   6.560   0.740  0.0089  0.1084  0.1873
 9188W        W24805   0.671   2.699  12.411  0.1140  0.0669  0.1663
 9189W        W24806   1.358  10.490   5.793  0.0039  0.2727 -0.0036
 9190W        W24807   8.157  11.843   4.705 -0.2177 -0.0418 -0.2062
 9191W        W24808  11.695   4.891   1.632  0.0023 -0.1297  0.1661
 9192W        W24809  13.249  10.750   0.924 -0.1912 -0.1741  0.1436
 9193W        W24810   9.966   8.934   0.370  0.0045 -0.1708  0.3245
 9194W        W24811   2.673   2.881  14.375 -0.1313  0.0521  0.0237
 9195W        W24812   5.403  17.697   4.794 -0.1227  0.0614 -0.3019
 9196W        W24813   1.200   7.480  15.380 -0.0576 -0.1325  0.0691
 9197W        W24814   2.416   1.482   5.585  0.1154 -0.0361  0.1311
 9198W        W24815  16.475   6.721   1.175  0.0111  0.2337  0.2790
 9199W        W24816   6.299  18.517   3.486 -0.1645  0.2126 -0.2253
 9200W        W24817   8.197   8.681  11.890  0.1396 -0.1111  0.2453
 9201W        W24818   2.345   0.375  13.579 -0.1352 -0.3795 -0.0842
 9202W        W24819  13.052  12.065   9.501 -0.0332 -0.2084 -0.0603
 9203W        W24820   8.683   9.041   3.351  0.0996 -0.2724 -0.1216
 9204W        W24821  10.413   8.294   3.672  0.3407 -0.2735  0.2761
 9205W        W24822   8.736  15.380  15.712  0.3272 -0.1041  0.0476
 9206W        W24823  12.188   8.138   5.255  0.0616  0.2952  0.0125
 9207W        W24824   1.688  11.776  15.600  0.0174 -0.4118  0.0397
 9208W        W24825  16.394   9.634   9.835 -0.1766 -0.1733 -0.1631
 9209W        W24826   7.003   8.376  12.499 -0.1200 -0.0148 -0.0397
 9210W        W24827   0.138   1.015  13.083  0.1069 -0.1449  0.0914
 9211W        W24828  12.252  14.443   4.772 -0.1085 -0.2850 -0.0814
 9212W        W24829   4.023   6.061  11.121 -0.1621 -0.2598 -0.1452
 9213W        W24830  12.454  17.214  11.421 -0.0388  0.1887 -0.1366
 9214W        W24831  11.108   9.357   5.199  0.2239 -0.1236  0.3092
 9215W        W24832  12.628  14.117  12.693 -0.0484  0.2552  0.3494
 9216W        W24833  12.232  10.331   0.211  0.1948  0.1530 -0.0201
 9217W        W24834   9.411   2.206   2.678  0.1065  0.1422  0.0984
 9218W        W24835   8.718   1.932   6.014  0.2352  0.0529 -0.0596
 9219W        W24836   1.062  17.498   0.071  0.0863  0.1415 -0.0716
 9220W        W24837  17.994   7.084  11.964 -0.0406 -0.0395 -0.0770
 9221W        W24838  17.116   4.188  13.172  0.0189 -0.4411 -0.0951
 9222W        W24839  14.351   1.976   2.391  0.0214  0.0337  0.0410
 9223W        W24840   7.394   3.758  12.766 -0.1079 -0.3201 -0.0781
 9224W        W24841   8.493   3.035  13.097 -0.1990  0.3323  0.2688
 9225W        W24842   0.544   2.038   1.838 -0.2790 -0.5472  0.1949
 9226W        W24843  15.538   4.369   1.757  0.0606  0.3675  0.2538
 9227W        W24844  12.084  15.192  11.433  0.0332  0.0692  0.1697
 9228W        W24845   0.207   4.123  13.800  0.4833  0.0560  0.0263
 9229W        W24846  15.498   3.607   3.815 -0.0613 -0.0731  0.1546
 9230W        W24847   4.163  17.314   0.035  0.2123  0.0064 -0.2470
 9231W        W24848   7.741  18.316  12.710 -0.1992  0.1933 -0.2731
 9232W        W24849  18.279   9.705   3.473  0.0547 -0.0709  0.0133
 9233W        W24850  14.750   8.149   0.638  0.0350 -0.2825  0.0853
 9234W        W24851  11.190   8.939  13.201  0.2353 -0.4079  0.1924
 9235W        W24852   6.303   7.990   2.216 -0.2448 -0.2484 -0.1400
 9236W        W24853   0.210  16.729   4.076 -0.4085  0.0029  0.2133
 9237W        W24854   7.841   3.949   4.937  0.2310  0.1677  0.3851
 9238W        W24855  10.584   6.805   0.517  0.1983  0.1575 -0.0114
 9239W        W24856   2.549   9.182   4.005 -0.0213  0.3613  0.1495
 9240W        W24857   4.178  13.413  15.403  0.1430 -0.0767  0.1218
 9241W        W24858  17.956  11.622   3.429 -0.0840  0.2684  0.1535
 9242W        W24859  13.150   0.665   2.984  0.1149  0.1055  0.0613
 9243W        W24860   1.804  11.205  12.942  0.0161  0.0513  0.0041
 9244W        W24861   3.049  11.884  12.609  0.2657  0.0325 -0.5169
 9245W        W24862  11.366   3.412  13.316 -0.0188  0.2943 -0.5504
 9246W        W24863  13.734   7.285  14.788 -0.1422  0.0980 -0.0755
 9247W        W24864   7.465   6.148  13.286 -0.0769 -0.0074  0.0807
 9248W        W24865   1.889   4.762   0.407 -0.3014 -0.0743 -0.0871
 9249W        W24866  14.605  16.077   3.296  0.2572 -0.3644  0.3255
 9250W        W24867   0.013   0.835  14.355  0.5235  0.1518  0.2593
 9251W        W24868  15.687   5.180   1.680  0.5091 -0.2218  0.1660
 9252W        W24869   0.484  13.537   2.335 -0.2763 -0.0784 -0.0821
 9253W        W24870   9.931  11.850   0.204  0.1128  0.0875  0.0212
 9254W        W24871   7.842  10.602   4.621  0.0028 -0.0732  0.1690
 9255W        W24872   6.274  17.353   3.986 -0.1807 -0.2054  0.2570
 9256W        W24873   9.991   5.869  12.513 -0.0292 -0.3542 -0.0801
 9257W        W24874   6.761   7.294  11.373  0.0898  0.0901  0.3648
 9258W        W24875   5.037   1.035  14.603  0.0421 -0.0038  0.1250
 9259W        W24876   9.178  10.428  10.865 -0.2731 -0.1682  0.0350
 9260W        W24877  14.672   8.265   3.399 -0.1574  0.0290  0.2087
 9261W        W24878  15.367   6.937   2.114  0.1437  0.0425 -0.2301
 9262W        W24879  12.737  16.709   3.188 -0.0110  0.0155 -0.1619
 9263W        W24880   6.024  11.185   0.417  0.0835  0.0784 -0.2917
 9264W        W24881   4.157  15.683   2.677  0.0367 -0.2393 -0.0481
 9265W        W24882   0.840   4.050   3.506 -0.0336  0.1749  0.0829
 9266W        W24883  11.234  18.200  13.191  0.1544 -0.4405 -0.0756
 9267W        W24884  16.652  14.261   1.444  0.0833  0.1496 -0.0343
 9268W        W24885   0.373   2.176  15.036  0.0842 -0.0519 -0.2047
 9269W        W24886  17.116  13.885  12.414 -0.1031 -0.1133  0.0703
 9270W        W24887  11.174   1.029  13.091 -0.3398  0.3701  0.1963
 9271W        W24888   8.143   6.222   2.849  0.0466 -0.1747 -0.0289
 9272W        W24889  10.429  13.922  13.637  0.1044 -0.0284  0.2439
 9273W        W24890   4.542   7.618   1.288  0.0497  0.1471 -0.0258
 9274W        W24891  13.030  10.609   3.214 -0.0920  0.0809  0.2722
 9275W        W24892  13.107   0.320  15.073  0.0741 -0.0580 -0.0560
 9276W        W24893  12.816   0.286   4.265 -0.1569  0.0951 -0.0016
 9277W        W24894   9.741   3.101   3.512  0.3804 -0.1175  0.0778
 9278W        W24895   1.538  16.369  10.721 -0.0833  0.2281  0.0282
 9279W        W24896   9.144  12.178  11.929 -0.0499  0.5149  0.0030
 9280W        W24897  16.294  11.742  15.324 -0.0727  0.0113 -0.1419
 9281W        W24898   3.270   7.839  13.332 -0.1497 -0.3458  0.0001
 9282W        W24899   9.326  15.342   3.620 -0.1676 -0.0782 -0.1290
 9283W        W24900  18.143   2.594  14.756 -0.1999  0.0880 -0.3274
 9284W        W24901  17.610  16.906   4.176 -0.0960 -0.2395 -0.4151
 9285W        W24902  11.292   9.262  11.253  0.0500  0.3063 -0.0510
 9286W        W24903  18.316  17.963   5.764 -0.0446  0.0388 -0.0890
 9287W        W24904   7.676   6.472   2.930  0.0078  0.1743 -0.1223
 9288W        W24905  14.492  10.195  14.728 -0.0744  0.0034  0.1823
 9289W        W24906  13.711  10.401  14.107 -0.4538 -0.1467 -0.0643
 9290W        W24907   8.682   8.277   3.609 -0.0375 -0.2276  0.3498
 9291W        W24908  13.084  10.048   2.914 -0.0434 -0.2156  0.0414
 9292W        W24909   3.766  14.891   2.987 -0.2833 -0.1206  0.2362
 9293W        W24910  11.953   6.864   2.116  0.2746 -0.3172  0.1591
 9294W        W24911  13.965   6.556   4.738  0.3694 -0.0581 -0.1199
 9295W        W24912  15.894   5.650   3.052 -0.3567  0.1267  0.2406
 9296W        W24913  13.951   2.820   2.596  0.1170 -0.1502  0.0310
 9297W        W24914  15.587   7.031   3.242 -0.1548  0.0640 -0.2189
 9298W        W24915  15.871   4.058   5.219  0.2496  0.0096  0.2041
 9299W        W24916   9.441   1.714   4.560 -0.0518 -0.0846  0.0865
 9300W        W24917   3.237   0.957   3.988  0.0154  0.3213 -0.2355
 9301W        W24918  11.856  13.132   2.010  0.2032 -0.1437  0.6317
 9302W        W24919   6.715   8.741  11.814  0.2345 -0.0733 -0.2097
 9303W        W24920  12.272   8.787   1.045 -0.0253  0.2692  0.0340
 9304W        W24921   3.551  12.169  10.655 -0.1271 -0.0684 -0.0469
 9305W        W24922   8.451  12.054   1.336 -0.0311 -0.0852  0.0902
 9306W        W24923   5.437  15.533   5.473 -0.1102  0.0220  0.0566
 9307W        W24924   1.431  11.740   3.384  0.0789 -0.0972  0.0058
 9308W        W24925   6.320   2.911   4.211 -0.1059  0.1795  0.2151
 9309W        W24926  13.836   3.088   4.189 -0.2782 -0.0489 -0.3892
 9310W        W24927   0.064   0.044   0.444  0.0221 -0.0988 -0.1788
 9311W        W24928   2.440  13.077   4.190  0.0266 -0.2472  0.2304
 9312W        W24929  11.502  17.109   5.963  0.0929 -0.1496 -0.0296
 9313W        W24930  11.008   2.929  13.279  0.0412 -0.0256  0.1351
 9314W        W24931   9.821  10.642  14.187  0.2346 -0.2657  0.0190
 9315W        W24932   7.788  12.691   1.891 -0.0686  0.1204 -0.1980
 9316W        W24933  15.231   0.974  14.379 -0.1508 -0.2036 -0.2319
 9317W        W24934   0.061   5.267   0.103 -0.0378 -0.0946  0.1113
 9318W        W24935   2.070   1.662  14.024  0.2003  0.0361 -0.0715
 9319W        W24936   2.870  13.869   2.237 -0.0517  0.0488 -0.2526
 9320W        W24937   4.232  14.699  12.036 -0.0649 -0.1469  0.0848
 9321W        W24938   3.972  17.655  11.739 -0.1327  0.0685 -0.4228
 9322W        W24939  17.129  12.361   1.840  0.0971  0.1240 -0.0409
 9323W        W24940  13.119   9.333  13.978 -0.3304 -0.0639 -0.2009
 9324W        W24941   7.994   1.748   2.418  0.1922  0.0227 -0.1252
 9325W        W24942  15.301  10.250   3.946 -0.0119  0.1567 -0.0618
 9326W        W24943  10.032  17.546   5.021  0.1185  0.0344 -0.2343
 9327W        W24944   3.014  16.876   5.497 -0.3099  0.0429 -0.2021
 9328W        W24945   3.404  18.157  13.402 -0.0788 -0.1013  0.1038
 9329W        W24946   4.416   6.213   4.294  0.1023  0.0084  0.2990
 9330W        W24947   1.187  13.048  12.378 -0.0824  0.1155 -0.1158
 9331W        W24948   3.132   2.255  13.986 -0.0650 -0.0718  0.2056
 9332W        W24949   5.184   5.955   4.437  0.1650 -0.2937  0.0893
 9333W        W24950   9.452  15.016  12.057  0.1954  0.1733  0.1205
 9334W        W24951  15.829   3.153   1.722 -0.0357 -0.1743 -0.0206
 9335W        W24952   4.278  15.831   1.630  0.2177  0.1296  0.1064
 9336W        W24953  11.304  13.774   0.851  0.0010 -0.1065  0.0967
 9337W        W24954   1.966  18.569   1.722  0.2424  0.2497 -0.1206
 9338W        W24955  16.348   2.648  13.057  0.0567  0.0251  0.0262
 9339W        W24956   1.324   6.699  11.537  0.1856 -0.2337 -0.2530
 9340W        W24957  11.368  16.430  14.801  0.1246 -0.2035 -0.0010
 9341W        W24958   6.792  13.566  15.206  0.0895 -0.2851  0.2522
 9342W        W24959   0.010  15.450   3.554  0.0532 -0.0721 -0.0732
 9343W        W24960   1.170   0.144   4.997  0.0938 -0.1391  0.4041
 9344W        W24961   8.501  12.427  14.741  0.2309 -0.3358 -0.1548
 9345W        W24962   9.822   8.519   1.883 -0.3080 -0.2261  0.0713
 9346W        W24963  16.995  17.333  14.220 -0.0995 -0.0060  0.1965
 9347W        W24964   2.938  12.231   0.162 -0.5569  0.0451  0.0673
 9348W        W24965   0.516   7.228   2.101 -0.0502  0.0597  0.0987
 9349W        W24966   1.204   1.632  11.790 -0.0216  0.3058 -0.1083
 9350W        W24967   1.255   3.412   5.323  0.4049 -0.2258 -0.1242
 9351W        W24968   6.200  17.406  13.955 -0.1762 -0.2217 -0.0284
 9352W        W24969  15.750  15.665  11.593 -0.1449  0.3108 -0.1619
 9353W        W24970   2.735  10.169  14.792 -0.2601 -0.0597 -0.0367
 9354W        W24971   8.148  13.344   1.617 -0.0350 -0.1782  0.0025
 9355W        W24972  16.332  17.561   2.606 -0.2414 -0.0821 -0.1456
 9356W        W24973   7.619  16.195   3.171 -0.1546 -0.1356  0.0047
 9357W        W24974  13.327   4.880  13.296  0.2575  0.1542 -0.0271
 9358W        W24975  13.720  14.270  12.434 -0.0846  0.2433  0.2467
 9359W        W24976  18.480   9.185   4.302  0.0042  0.2691 -0.3356
 9360W        W24977  10.745  10.299   1.813 -0.2649  0.1129 -0.1011
 9361W        W24978   4.294  16.092   0.878  0.2733  0.0721  0.0452
 9362W        W24979   3.696  17.901   3.078 -0.1175  0.3646  0.1048
 9363W        W24980   6.064  18.533  14.649  0.0470 -0.2171 -0.3417
 9364W        W24981  11.671  14.648  12.223 -0.0915 -0.0101 -0.1202
 9365W        W24982  13.194  14.689   0.510  0.2856 -0.1165  0.0839
 9366W        W24983  11.545  18.071   4.947 -0.4003 -0.0604 -0.1095
 9367W        W24984   4.203   7.497   5.028  0.0983 -0.2356  0.1641
 9368W        W24985  13.325   2.208   0.987 -0.5159  0.2084 -0.0962
 9369W        W24986   9.267  13.823  13.252 -0.2899 -0.0473 -0.1892
 9370W        W24987   3.395  16.696   4.362  0.0206  0.1141 -0.3458
 9371W        W24988  12.939  10.360   4.688  0.1577 -0.1406  0.2972
 9372W        W24989   8.394   5.365  14.861  0.0511  0.0611 -0.0318
 9373W        W24990   9.936   3.960  14.605  0.1528 -0.1146  0.1436
 9374W        W24991   0.493  14.587   5.947  0.1683 -0.2260 -0.0239
 9375W        W24992   9.671  11.179  13.329 -0.0136  0.1003  0.0630
 9376W        W24993  11.077   0.790   1.429 -0.0335  0.0718  0.2131
 9377W        W24994   9.006   2.539  12.439 -0.0913 -0.1442  0.1117
 9378W        W24995   4.993   8.070   1.118  0.2639  0.0905  0.2291
 9379W        W24996   2.830   5.298  10.988 -0.1129 -0.0824  0.0770
 9380W        W24997   8.912  11.266  14.811 -0.0603 -0.1549 -0.1310
 9381W        W24998  17.444  15.532   1.695  0.1359 -0.1852 -0.0489
 9382W        W24999   8.387  17.064  15.616 -0.1632 -0.1858  0.0530
 9383W        W25000   0.589   9.600   5.320 -0.0588 -0.1398 -0.2224
 9384W        W25001   2.798   9.929   4.759 -0.2625 -0.3790  0.0628
 9385W        W25002   3.890   9.628  14.375 -0.0598 -0.1018  0.2908
 9386W        W25003   8.226  11.241   2.921 -0.1222 -0.0622  0.3253
 9387W        W25004  14.818   9.650  13.822  0.2131 -0.0980 -0.1588
 9388W        W25005  13.665   7.567  12.165 -0.0095  0.1035  0.1816
 9389W        W25006  18.061   7.562  11.803  0.2122 -0.1136 -0.0989
 9390W        W25007  14.360   2.008   5.145 -0.0763  0.0155 -0.1853
 9391W        W25008   2.798   0.195  12.289 -0.0190 -0.0459  0.1796
 9392W        W25009   2.126   9.193   3.146 -0.1045 -0.0119 -0.1168
 9393W        W25010   4.005   4.320  13.483  0.0721  0.1246 -0.0777
 9394W        W25011   4.092   0.180   1.163 -0.5576 -0.1831 -0.0900
 9395W        W25012  10.733   6.755  14.569  0.1729 -0.1379 -0.0731
 9396W        W25013  14.799   7.367   3.520  0.1178  0.1477  0.1190
 9397W        W25014  10.770   9.117  12.973 -0.0855  0.3290  0.0391
 9398W        W25015   9.753  14.313   0.857 -0.5077  0.2732 -0.2623
 9399W        W25016   2.519  13.992   2.525  0.0040  0.2100  0.2018
 9400W        W25017   2.446  16.386   2.090 -0.1813  0.0405 -0.0013
 9401W        W25018   3.617  11.542  11.097  0.3653  0.1518 -0.0937
 9402W        W25019   9.267  17.420   4.371  0.5071  0.0276 -0.1151
 9403W        W25020  13.517   5.959   0.468 -0.0012  0.0512  0.1934
 9404W        W25021   5.752  13.199   0.109 -0.0148  0.0209  0.1890
 9405W        W25022   6.547   9.610  15.143 -0.1750 -0.1066  0.0403
 9406W        W25023  11.996   5.328  15.091 -0.1707 -0.0768 -0.1092
 9407W        W25024  14.334   3.788  15.555 -0.0276  0.0027  0.1019
 9408W        W25025   2.065  10.219  14.226  0.4876  0.0218  0.0918
 9409W        W25026   5.772  12.078   2.764  0.0716 -0.0392 -0.2028
 9410W        W25027  16.469  11.746   1.133  0.0868  0.2296  0.1380
 9411W        W25028   1.301  10.763  14.808 -0.1849 -0.0356  0.0730
 9412W        W25029   9.523  14.896   3.959  0.4052 -0.2193  0.2058
 9413W        W25030  17.758   8.877  10.606 -0.0596  0.0772 -0.1191
 9414W        W25031   8.546  14.792   4.810  0.5060 -0.2160  0.0666
 9415W        W25032  13.089   6.236  13.874 -0.0772  0.0164 -0.1630
 9416W        W25033   5.388  12.936   0.323  0.3069 -0.0125  0.0908
 9417W        W25034  13.846  17.870  14.158  0.1633  0.0147 -0.1570
 9418W        W25035   6.784  18.585   2.921  0.0829  0.1117  0.0774
 9419W        W25036   4.979  12.105   0.144 -0.2983  0.0987 -0.1949
 9420W        W25037   0.272  12.844   3.126  0.0199 -0.1340  0.0544
 9421W        W25038  16.712   9.826   2.340  0.0929  0.0456 -0.1230
 9422W        W25039  15.584  14.194   3.021 -0.4276 -0.2197 -0.0298
 9423W        W25040  16.274   0.020  14.243  0.0630 -0.0706  0.1464
 9424W        W25041  14.098   9.568  13.156 -0.6013 -0.2639 -0.2242
 9425W        W25042  12.071   4.817  11.863 -0.2529 -0.1841 -0.4203
 9426W        W25043  15.762   0.687  11.163 -0.1145 -0.0852 -0.2302
 9427W        W25044   7.533   2.798   3.531 -0.0196  0.1956 -0.0701
 9428W        W25045  11.505   9.138  10.138 -0.2345  0.0597  0.2718
 9429W        W25046   9.258  14.832   1.099  0.2089 -0.0834 -0.2437
 9430W        W25047  12.130   3.845  15.427  0.4043  0.2568 -0.0169
 9431W        W25048  12.931   4.433   3.773  0.0055 -0.0550 -0.0840
 9432W        W25049   1.004   9.983  13.733  0.1991  0.0896  0.3689
 9433W        W25050  18.575  15.679  14.405  0.2276  0.0696 -0.1190
 9434W        W25051   2.523   5.061  13.312 -0.3425 -0.1459  0.1813
 9435W        W25052  13.270   3.953  11.855 -0.2651  0.0050 -0.0819
 9436W        W25053   8.074   8.251  14.332 -0.1502 -0.0192 -0.0645
 9437W        W25054  13.810  17.273   2.360  0.0250  0.0721 -0.0153
 9438W        W25055   5.354   0.840   3.040  0.1162 -0.0865 -0.0388
 9439W        W25056   6.741  14.043   1.666 -0.0153 -0.1354 -0.0844
 9440W        W25057  11.465  12.868   3.206  0.1078  0.1328  0.2703
 9441W        W25058  12.313   6.438  13.420  0.0053  0.0231 -0.1075
 9442W        W25059   9.893   4.836  15.239  0.2497 -0.1865 -0.0844
 9443W        W25060   6.809  16.000  15.412 -0.0954  0.0093  0.0805
 9444W        W25061   9.546  11.961  10.139  0.0649 -0.0118  0.4891
 9445W        W25062   4.311   9.513  13.567  0.0012  0.0581 -0.1664
 9446W        W25063  11.295   5.441  14.594 -0.2704 -0.1321 -0.0252
 9447W        W25064   5.593  11.390  13.852  0.0933 -0.0445 -0.0001
 9448W        W25065   3.861  18.357  15.135  0.1295  0.0819 -0.0323
 9449W        W25066  11.379   1.087   0.530  0.0677 -0.0623  0.0233
 9450W        W25067   7.024   2.651  14.621  0.3676  0.1056  0.0776
 9451W        W25068  10.221  17.710   5.421 -0.0524  0.0883 -0.1479
 9452W        W25069   8.306   4.461   4.314 -0.1680  0.1711 -0.0382
 9453W        W25070   8.121   2.504   5.641 -0.0288 -0.0710  0.0758
 9454W        W25071   4.408   8.149  15.340  0.2881  0.0373 -0.4900
 9455W        W25072  14.947   6.759   0.931 -0.0719 -0.2088  0.2196
 9456W        W25073  16.742  10.667   2.907 -0.4606 -0.1795  0.0667
 9457W        W25074   4.801   0.903  11.621 -0.2205 -0.1208  0.1546
 9458W        W25075   5.340  17.509   0.156  0.0910 -0.2019 -0.1621
 9459W        W25076  18.438  13.660   3.040 -0.3220 -0.3641  0.0939
 9460W        W25077  11.833   7.781  13.501 -0.0765 -0.2465  0.3027
 9461W        W25078  12.967   3.648  12.091 -0.2832  0.3102  0.1588
 9462W        W25079  10.882  14.485   2.601  0.1398 -0.1027  0.1882
 9463W        W25080   2.699   2.751   5.510  0.1285  0.3747 -0.3350
 9464W        W25081  13.274   8.715  12.539  0.1359  0.1012 -0.0251
 9465W        W25082   3.366  11.953  11.254 -0.4714  0.1398 -0.0757
 9466W        W25083   9.235   5.581  11.590 -0.1274 -0.0756  0.1798
 9467W        W25084  15.760   3.358  13.287  0.0385  0.1332  0.0148
 9468W        W25085   1.613  16.889   2.630 -0.1177 -0.2475 -0.1372
 9469W        W25086  12.583  11.386   3.590 -0.2586  0.0231  0.1967
 9470W        W25087  18.635  15.842   5.555  0.3538  0.2615 -0.0973
 9471W        W25088  10.473   1.493  12.149 -0.0503 -0.3710 -0.0663
 9472W        W25089  10.035  18.045   5.744  0.0545  0.0096 -0.2303
 9473W        W25090   5.109  15.675  15.285  0.2678  0.1890 -0.0433
 9474W        W25091   0.344  16.541   2.261  0.1798  0.1299 -0.0401
 9475W        W25092   1.495   0.015   3.501 -0.1771 -0.4623  0.0771
 9476W        W25093   0.139  17.455  15.252 -0.1806  0.6130 -0.0323
 9477W        W25094   5.071   5.646  14.147  0.1588 -0.1047 -0.0641
 9478W        W25095   2.873   3.280   0.596 -0.1049 -0.0622 -0.1921
 9479W        W25096  17.875   1.960  15.592 -0.0876  0.2176 -0.1934
 9480W        W25097   2.317  13.657   5.702  0.0496 -0.0537  0.3746
 9481W        W25098  17.818  10.482   3.353 -0.1945  0.0997 -0.0070
 9482W        W25099  14.185  14.907   3.699  0.1276  0.3396 -0.0759
 9483W        W25100   7.292   7.862   3.565  0.1179 -0.5518  0.2633
 9484W        W25101  11.776  15.331   3.375  0.0336 -0.1115 -0.1315
 9485W        W25102   1.519   9.103   0.652 -0.3133 -0.2432 -0.1254
 9486W        W25103   4.050   7.669  15.423 -0.3013 -0.1533 -0.1745
 9487W        W25104  15.119  16.900  11.842  0.4979  0.3799  0.2549
 9488W        W25105   6.587  13.887   0.945 -0.3299 -0.2997 -0.2770
 9489W        W25106  17.881   7.619   3.239 -0.0795  0.0225 -0.1199
 9490W        W25107  12.193   7.316  15.751 -0.0863  0.1782 -0.2853
 9491W        W25108  14.944  18.198   0.590  0.0756  0.2718 -0.2594
 9492W        W25109   3.976   8.768  12.392  0.0213 -0.0157  0.1804
 9493W        W25110  13.017   1.372  14.964  0.1753  0.1835  0.0645
 9494W        W25111   4.007   2.292  12.410  0.0417  0.0192  0.0147
 9495W        W25112  15.250   6.903  15.642 -0.2503 -0.1313  0.2107
 9496W        W25113   6.895   1.495  14.554 -0.0814 -0.3313  0.1340
 9497W        W25114   4.767   8.041   3.112  0.0939  0.0783 -0.0773
 9498W        W25115  18.286   7.453  11.029  0.1797 -0.0783 -0.2981
 9499W        W25116  11.308  12.788   0.395 -0.2374  0.2081  0.0193
 9500W        W25117   0.970   3.307   4.176 -0.0455  0.3054  0.0829
 9501W        W25118  15.951   7.337  15.453  0.1989  0.1892  0.1852
 9502W        W25119  11.853  15.288   2.457 -0.1330 -0.3836  0.2248
 9503W        W25120  16.275  12.730   5.663  0.1520  0.0389  0.0114
 9504W        W25121  11.675   1.218   6.370  0.1399  0.1596  0.0069
 9505W        W25122   4.512  16.052  13.608  0.5682 -0.1592 -0.1892
 9506W        W25123  18.054   5.856  10.898 -0.0854  0.1343 -0.2676
 9507W        W25124  18.336  15.945   5.170 -0.0706  0.2301 -0.1011
 9508W        W25125   6.813  14.995  11.886 -0.0474  0.0978  0.2387
 9509W        W25126  13.727   2.062   1.442  0.1052 -0.2274 -0.0314
 9510W        W25127   0.275   7.068   4.993  0.1640  0.1098 -0.0256
 9511W        W25128   7.181  12.541  11.679  0.1727 -0.0948 -0.0742
 9512W        W25129  17.164   5.540  13.785 -0.1006 -0.1311 -0.3729
 9513W        W25130  13.877   1.813  12.721  0.0832 -0.2549 -0.4819
 9514W        W25131  14.852   6.406  12.571  0.1100  0.0516  0.0440
 9515W        W25132   4.373   7.755  13.282  0.1926  0.1247  0.0755
 9516W        W25133  11.770  15.217  15.272 -0.1295 -0.3767 -0.1710
 9517W        W25134  13.345   8.343   5.176 -0.3165  0.4674 -0.0018
 9518W        W25135  14.730  12.931  12.967  0.0635 -0.0439 -0.0916
 9519W        W25136  10.419   3.375   2.831  0.0985 -0.0300  0.0284
 9520W        W25137   9.923   4.789   2.315 -0.2282  0.2436 -0.1625
 9521W        W25138  18.580   0.913  15.732  0.1426 -0.2523 -0.0488
 9522W        W25139   3.289   0.090   3.485 -0.2228 -0.1775 -0.3711
 9523W        W25140   2.731  10.154  10.985 -0.1663  0.1601 -0.2171
 9524W        W25141  12.558   6.385   5.648 -0.2032 -0.1126 -0.0018
 9525W        W25142  13.764  14.897   4.489  0.0626 -0.0555 -0.1878
 9526W        W25143   9.879  11.593   4.150  0.4347 -0.3889 -0.1544
 9527W        W25144   8.608  14.093   3.150  0.0994  0.0612 -0.0424
 9528W        W25145   5.135  18.174  14.454 -0.1028 -0.0755  0.0191
 9529W        W25146  16.750   6.910   0.393  0.3413 -0.0412  0.3723
 9530W        W25147  13.606   7.747  13.022 -0.2513  0.1551 -0.1423
 9531W        W25148   4.688  12.318   2.332 -0.1242 -0.0551  0.1092
 9532W        W25149   7.122  17.950   3.482  0.0686  0.0446 -0.2630
 9533W        W25150  16.614   0.646   5.453 -0.3509 -0.0121  0.0398
 9534W        W25151   4.882   3.931  14.503 -0.4021  0.1681  0.1722
 9535W        W25152   1.428   4.441   5.569 -0.1266  0.1247 -0.0772
 9536W        W25153   4.176  13.071   0.323  0.0235 -0.0992  0.1867
 9537W        W25154  14.325   5.903  15.136 -0.0923 -0.2139 -0.3919
 9538W        W25155  17.388   1.008   4.892  0.0462 -0.2508 -0.0253
 9539W        W25156   6.569   8.120  10.006  0.0305  0.0307  0.3424
 9540W        W25157   9.286   5.546  11.042  0.0145  0.1053 -0.2075
 9541W        W25158  17.812   1.080  11.865  0.2554 -0.2738  0.1587
 9542W        W25159   9.119   3.378   5.116 -0.3492 -0.0108  0.3055
 9543W        W25160   8.431  15.182   0.828  0.1363 -0.2308 -0.0018
 9544W        W25161  16.962   2.938  10.576 -0.2710  0.1243 -0.0954
 9545W        W25162  11.838   2.561   1.635 -0.2214  0.0224 -0.0162
 9546W        W25163   4.153  16.340   5.643  0.0148  0.0279 -0.0048
 9547W        W25164   4.229  16.994  12.183 -0.1402 -0.3982 -0.4025
 9548W        W25165  10.763   9.619  12.137  0.0960  0.1884  0.0114
 9549W        W25166  10.697  16.451   1.190  0.0950 -0.2920 -0.3071
 9550W        W25167   2.551   0.745  10.737  0.0342  0.2390 -0.5382
 9551W        W25168   6.625  17.142   4.783 -0.1212  0.3795 -0.1980
 9552W        W25169   5.455   2.033  10.917  0.0207 -0.0691  0.1917
 9553W        W25170   3.328  10.265   4.698 -0.0044 -0.0867  0.2251
 9554W        W25171  18.244   1.166   5.754  0.2112 -0.1986  0.0210
 9555W        W25172   9.005   4.556  14.895  0.0096 -0.1882  0.1474
 9556W        W25173   1.562   4.514   4.574  0.3680 -0.2512 -0.0426
 9557W        W25174  14.038  16.544   0.514  0.4326 -0.0918  0.0470
 9558W        W25175   8.202   5.011  14.493 -0.0208  0.3281  0.1937
 9559W        W25176  13.126   8.480  13.694  0.1105  0.0041  0.1654
 9560W        W25177   5.400   4.850   1.284  0.2716 -0.1541  0.1950
 9561W        W25178  14.652  17.282   2.561  0.1943  0.0826  0.0235
 9562W        W25179  10.175  18.199   0.957  0.1603  0.3315  0.1047
 9563W        W25180   2.524   4.880   1.795  0.0423  0.2825  0.0416
 9564W        W25181  15.875  12.676   2.535 -0.0968 -0.0413 -0.0854
 9565W        W25182   7.764   6.184  13.829  0.0035 -0.0029  0.1799
 9566W        W25183   2.852  15.433  10.990 -0.0083  0.1184  0.0167
 9567W        W25184   7.995  16.122  13.586 -0.0260  0.0468  0.1580
 9568W        W25185  13.864  16.219  11.991  0.1285 -0.2113 -0.4978
 9569W        W25186   7.703   8.261   2.680 -0.2880 -0.0418  0.0502
 9570W        W25187  14.666   3.403   5.433 -0.1870 -0.0510 -0.0559
 9571W        W25188  14.951  13.352   4.096 -0.1144  0.1031 -0.0455
 9572W        W25189  15.495   8.862   5.219 -0.0920  0.1604  0.2266
 9573W        W25190   5.667   3.288   3.327 -0.1562  0.2031 -0.1813
 9574W        W25191   3.943   4.787   1.481  0.0360 -0.0311  0.2068
 9575W        W25192  11.712   6.434  14.231  0.3951  0.2996  0.0734
 9576W        W25193   6.830  11.063  11.920 -0.1412 -0.0937  0.1054
 9577W        W25194  16.905  15.448  11.934  0.0565 -0.0348 -0.1605
 9578W        W25195   1.214   5.237   2.509  0.3293 -0.0333 -0.3084
 9579W        W25196   7.074   5.210   3.155  0.2898  0.0946  0.0645
 9580W        W25197   1.120  14.486   9.980  0.0399 -0.0562 -0.1976
 9581W        W25198  14.390   0.977  13.850 -0.3019  0.4071 -0.0045
 9582W        W25199  16.521  13.972   1.979 -0.0198 -0.0599 -0.1574
 9583W        W25200  16.111  13.155   0.576 -0.0821  0.0461  0.0916
 9584W        W25201  15.795  18.139  15.660  0.2930 -0.1695  0.1881
 9585W        W25202   6.284  14.808  12.835  0.3735 -0.1674 -0.3315
 9586W        W25203   5.574   4.154  15.668 -0.1663  0.0782  0.0429
 9587W        W25204   0.641  17.248   0.804 -0.0206  0.0499  0.1710
 9588W        W25205   3.141  17.525  13.443 -0.0236  0.0821  0.0433
 9589W        W25206   5.392   3.881  14.710 -0.0830  0.0851 -0.2333
 9590W        W25207   3.058  16.112  10.629 -0.0319 -0.0509 -0.3244
 9591W        W25208  16.460  15.304  11.307 -0.0133 -0.1074 -0.0253
 9592W        W25209   2.220   8.669  14.330  0.2056  0.2175 -0.1127
 9593W        W25210  17.220   9.331   0.127  0.0842  0.1209  0.4937
 9594W        W25211   2.346   3.635  10.344  0.0179  0.1548  0.3172
 9595W        W25212   6.781   8.389  13.879 -0.1104 -0.3663 -0.0765
 9596W        W25213   2.225   5.167  15.022 -0.0369  0.1605  0.0505
 9597W        W25214   2.667  14.453  12.049  0.4686 -0.1657 -0.0289
 9598W        W25215   2.365  14.062   0.029 -0.1591 -0.0144  0.0432
 9599W        W25216  17.339  16.192  15.087 -0.0457 -0.0887 -0.0455
 9600W        W25217  13.423  11.299  14.624 -0.0448 -0.0909 -0.2557
 9601W        W25218  18.045  16.956   3.319  0.2466  0.3587  0.1628
 9602W        W25219  15.932  16.625   0.818  0.2067 -0.4246  0.1586
 9603W        W25220  11.193   2.605   0.210 -0.0050 -0.0557  0.2220
 9604W        W25221  13.834  15.034  12.066 -0.2749 -0.1512  0.0980
 9605W        W25222   0.512   1.672  13.822 -0.1134 -0.2895 -0.2805
 9606W        W25223   2.931  14.331   3.365 -0.0370 -0.1013  0.0492
 9607W        W25224  15.608  15.012   3.014 -0.3229 -0.0764 -0.1146
 9608W        W25225  12.058   1.493   5.710 -0.1334 -0.0279  0.2712
 9609W        W25226   5.271  14.542   0.039 -0.2489  0.5310  0.2136
 9610W        W25227  14.783   3.107   5.794 -0.2434 -0.0064 -0.2828
 9611W        W25228   3.731  11.208   2.998  0.1367  0.0417 -0.2497
 9612W        W25229   8.800  17.828  11.415 -0.1243  0.3357  0.0143
 9613W        W25230   7.580  12.639   2.342 -0.0025  0.0087 -0.0540
 9614W        W25231   5.271   1.323   2.959 -0.1141 -0.3000  0.5977
 9615W        W25232  17.478  14.680   1.386 -0.1276  0.1997  0.0971
 9616W        W25233  12.316   6.878   0.089 -0.2625  0.2620  0.2318
 9617W        W25234   0.724   0.151  14.226 -0.0723 -0.0967 -0.1654
 9618W        W25235   8.395   3.554  14.812 -0.1489  0.1117 -0.0776
 9619W        W25236  16.762  13.582   3.108 -0.1750  0.0109  0.1012
 9620W        W25237   8.018   7.000  11.939  0.3945  0.0826 -0.0574
 9621W        W25238   0.789  11.616   0.485  0.1287  0.0795 -0.2076
 9622W        W25239  14.998   3.284  14.935 -0.1439 -0.0043  0.1465
 9623W        W25240  16.855  10.401   0.254 -0.0730  0.2129 -0.0004
 9624W        W25241  16.441   3.751   4.886 -0.0525 -0.3205  0.1488
 9625W        W25242  13.469  11.047  11.439 -0.0819  0.1535 -0.0333
 9626W        W25243  12.093   1.736  10.684 -0.3204 -0.3432 -0.0914
 9627W        W25244   9.259   1.993  11.605 -0.2339  0.2932  0.0228
 9628W        W25245  18.553  17.143  11.258  0.2255 -0.0745 -0.2689
 9629W        W25246  10.258  14.497   4.727  0.3632 -0.1557  0.1126
 9630W        W25247  12.936   9.835  10.954 -0.4385 -0.2534 -0.0623
 9631W        W25248  11.964   6.788  15.512  0.1346 -0.1344  0.1121
 9632W        W25249   2.241  10.360  13.754  0.1189  0.1312 -0.1258
 9633W        W25250  16.689   6.152  10.777  0.0218 -0.1056  0.2515
 9634W        W25251   1.169  17.412   4.091  0.1422  0.0026 -0.1159
 9635W        W25252  16.510   2.029   4.465  0.1484  0.1365  0.0213
 9636W        W25253   4.328   5.025  14.231 -0.2840  0.2136 -0.1324
 9637W        W25254  17.014  15.709   1.428  0.0404 -0.0753 -0.0409
 9638W        W25255   5.063   0.328   2.450  0.0646 -0.1705  0.4950
 9639W        W25256  10.743   1.810  12.814 -0.2562 -0.3286 -0.0730
 9640W        W25257  13.052   7.976   5.082 -0.1190 -0.2603  0.0284
 9641W        W25258  15.648   8.781  14.573  0.1203  0.0033 -0.1286
 9642W        W25259   2.524   5.340   5.182 -0.0103  0.0825  0.1904
 9643W        W25260   1.422  10.892  11.811  0.0050  0.1163 -0.0473
 9644W        W25261   1.861  11.106  13.420 -0.0988 -0.1027 -0.1848
 9645W        W25262   9.861   5.930   5.660  0.0882 -0.0065 -0.1933
 9646W        W25263   9.683  12.142  13.528  0.1200 -0.0938 -0.4143
 9647W        W25264   2.437   0.450  14.542 -0.3147  0.1328  0.2806
 9648W        W25265  17.548   6.576  14.851 -0.0976 -0.0563  0.0748
 9649W        W25266  10.851  10.291   4.135 -0.1823  0.1490 -0.0749
 9650W        W25267   1.042   3.749   3.899  0.1325 -0.1333  0.0647
 9651W        W25268   2.420   6.220   4.436 -0.1201  0.0614  0.1852
 9652W        W25269  12.179   2.262  15.631  0.0708  0.2787  0.2231
 9653W        W25270   6.480  15.899   1.737  0.2496 -0.1105  0.1065
 9654W        W25271  14.020   0.265   4.737  0.3725 -0.4179 -0.1338
 9655W        W25272   3.932   1.483  11.924  0.1757  0.0458 -0.0778
 9656W        W25273  15.232   1.725   2.213  0.1347  0.0378 -0.0245
 9657W        W25274   2.687   8.487   4.265 -0.0364  0.0099 -0.0511
 9658W        W25275  16.149   8.284  13.495 -0.0849  0.2596  0.1174
 9659W        W25276   2.367   9.509  12.662 -0.0483 -0.3395  0.1538
 9660W        W25277  13.013   6.321  12.354 -0.0940 -0.1818  0.0716
 9661W        W25278   4.140   2.136   1.505  0.1133  0.0635  0.1739
 9662W        W25279  17.294  15.787   3.717  0.1015  0.0358  0.2498
 9663W        W25280  16.364  11.251  12.400  0.1794  0.0733 -0.2237
 9664W        W25281   2.976  14.743   0.682 -0.0537 -0.2912  0.3127
 9665W        W25282   9.714   3.897  12.537 -0.2926  0.0403 -0.0886
 9666W        W25283  10.152  15.243   5.234  0.0401 -0.0371  0.5079
 9667W        W25284  18.352  17.805  14.703 -0.2660  0.0297  0.1000
 9668W        W25285  11.918   9.442   1.765  0.0396 -0.1771 -0.2002
 9669W        W25286   3.996  14.576   1.314  0.0560 -0.1094  0.1797
 9670W        W25287   3.634  10.624  13.383  0.0535 -0.0728  0.0067
 9671W        W25288  16.019   4.539  14.012 -0.0471 -0.2015  0.0273
 9672W        W25289   8.223   5.404  13.507 -0.0701  0.1140  0.0918
 9673W        W25290   8.602   4.112   2.798  0.0409  0.1546 -0.1250
 9674W        W25291  14.627   0.833  11.900 -0.3527  0.1265  0.0155
 9675W        W25292   1.712  15.701   0.452 -0.3226  0.2320  0.3305
 9676W        W25293  13.184   4.796  14.113 -0.5387  0.3146  0.0571
 9677W        W25294  16.073   0.406   6.251 -0.0774 -0.0699  0.0542
 9678W        W25295   2.736   8.921  15.508  0.0701  0.0206 -0.0674
 9679W        W25296  17.667   6.414  12.668  0.0835 -0.4154  0.0962
 9680W        W25297  14.195  13.694   4.741 -0.1166 -0.0780 -0.1024
 9681W        W25298  15.785   4.268  12.980  0.2149 -0.2078  0.1385
 9682W        W25299   9.003   0.618   0.645  0.0208  0.1444 -0.0829
 9683W        W25300  18.034  15.983  15.325 -0.1324  0.0547  0.3735
 9684W        W25301   1.660  18.078   2.167 -0.0044  0.1524 -0.0267
 9685W        W25302   6.428   3.887   1.967 -0.2253  0.2024 -0.0938
 9686W        W25303   6.185  13.323   0.824 -0.0747 -0.0169  0.4890
 9687W        W25304  12.288   0.221   4.338 -0.2638  0.0196 -0.1702
 9688W        W25305   9.162   8.596   3.007 -0.1173 -0.0209  0.1612
 9689W        W25306  14.595   9.313   0.578 -0.2878  0.2052 -0.4515
 9690W        W25307   5.228   4.979  11.976 -0.1134  0.0420 -0.1709
 9691W        W25308   3.652  14.497  11.858 -0.0350  0.1218  0.3166
 9692W        W25309   7.862   9.927  14.049 -0.0795  0.1446 -0.2025
 9693W        W25310   4.637   0.197  15.250 -0.0528  0.0279  0.0672
 9694W        W25311   1.449  13.769  13.222 -0.2428 -0.3817 -0.1892
 9695W        W25312   5.574  13.932  11.152  0.1451  0.0335  0.1697
 9696W        W25313   1.178   9.417  13.688 -0.0137 -0.3204  0.0205
 9697W        W25314  16.077   1.984  12.293 -0.1118  0.3275 -0.1138
 9698W        W25315   1.789  15.773  13.804 -0.4537  0.0253 -0.1237
 9699W        W25316  15.290   1.064   2.565 -0.2552 -0.0507 -0.2189
 9700W        W25317  12.375  18.265   2.703 -0.1281 -0.0030 -0.1723
 9701W        W25318  14.901  16.457  12.158 -0.2304  0.1455  0.1977
 9702W        W25319  12.712  16.577  15.078 -0.0994 -0.1043  0.1405
 9703W        W25320  13.503  14.405   2.586 -0.1294 -0.2198 -0.0262
 9704W        W25321  11.853   4.673  15.792  0.2487 -0.1292  0.1977
 9705W        W25322  10.136   2.402  15.663  0.2398 -0.1574 -0.2565
 9706W        W25323  11.020  15.511   4.684  0.0424  0.0439  0.0445
 9707W        W25324   5.408   9.150  12.294  0.2992  0.1951 -0.0112
 9708W        W25325   8.302   5.830  14.978  0.0408  0.0603 -0.2098
 9709W        W25326  10.068  15.668   3.035 -0.1628 -0.0231 -0.2004
 9710W        W25327  14.613   8.403  11.630 -0.4667 -0.0063 -0.1429
 9711W        W25328   9.670  10.629  13.238  0.1443  0.0843 -0.1746
 9712W        W25329   6.277   0.403  12.484 -0.0794  0.0131 -0.2248
 9713W        W25330  14.054   7.344  15.141  0.1038 -0.0343  0.2581
 9714W        W25331   6.118   2.678   5.488 -0.1327  0.1590 -0.1062
 9715W        W25332  18.310   8.080  13.858  0.1200  0.1077  0.5802
 9716W        W25333   6.127   3.807   0.085 -0.0117 -0.1857 -0.1730
 9717W        W25334  18.550  10.747   4.807  0.1573 -0.0351 -0.0971
 9718W        W25335   4.687   8.294  14.008 -0.2833  0.1358  0.0237
 9719W        W25336   2.114   5.148   1.640  0.1789  0.4213  0.1222
 9720W        W25337   9.163  11.600  14.546 -0.0133  0.0857 -0.2982
 9721W        W25338  16.000  10.238  14.708 -0.1417 -0.0929 -0.1077
 9722W        W25339   5.342  12.558   4.625 -0.1714  0.2332  0.1220
 9723W        W25340   5.892  10.416  13.046  0.2729  0.1615  0.0573
 9724W        W25341   6.009   6.884  15.186 -0.0718  0.1396  0.0391
 9725W        W25342  18.549   2.941   0.985  0.0745 -0.2089 -0.0875
 9726W        W25343  16.596  12.292  11.467 -0.1905  0.1983  0.0434
 9727W        W25344   8.819   7.630  14.074 -0.1887 -0.0993  0.0090
 9728W        W25345  12.934  13.623  13.095  0.5589 -0.1717  0.1552
 9729W        W25346   2.452  14.560   3.218  0.0700 -0.0754  0.3249
 9730W        W25347   2.249   0.997   0.087 -0.0641  0.0482  0.0705
 9731W        W25348  17.206   1.791   1.931 -0.2844 -0.0438  0.0056
 9732W        W25349   7.525   8.763   5.119 -0.0225 -0.1245  0.0208
 9733W        W25350   7.007  12.532   3.179  0.0679 -0.2540  0.0262
 9734W        W25351  11.743   5.235   0.901 -0.0295  0.1946  0.0722
 9735W        W25352  15.585   1.230   5.584  0.1348  0.3701 -0.0088
 9736W        W25353   3.273   9.130   4.995 -0.4018  0.1487  0.1222
 9737W        W25354   1.261   4.045  14.645  0.0644 -0.3395  0.1605
 9738W        W25355  14.545   0.179   3.277 -0.0521 -0.1496  0.1526
 9739W        W25356  10.666  16.063   2.953  0.0143  0.0953  0.2341
 9740W        W25357  16.320  13.329  11.419  0.0985  0.0423 -0.3079
 9741W        W25358  16.089   6.357   6.019  0.1113  0.0430 -0.1522
 9742W        W25359  16.033   4.757  11.825 -0.0663 -0.2078  0.1563
 9743W        W25360   6.375  14.896  13.325 -0.2067  0.4016 -0.1475
 9744W        W25361   3.740  17.199   4.315 -0.0891 -0.0975  0.2321
 9745W        W25362  11.932   2.734  15.539 -0.4544 -0.1746  0.5522
 9746W        W25363   1.973   2.458   3.493  0.0051 -0.0061  0.0616
 9747W        W25364   5.879   7.933  13.249 -0.0292  0.0769  0.3900
 9748W        W25365  17.768  11.326   0.915 -0.0246 -0.1049 -0.1580
 9749W        W25366   0.826   6.012  14.476 -0.0052 -0.2629  0.1167
 9750W        W25367   2.776   3.988  11.378 -0.0234 -0.1633 -0.3811
 9751W        W25368   0.294   3.846   1.014 -0.3039 -0.2942 -0.2528
 9752W        W25369   2.049  12.298   3.032  0.0151 -0.1214 -0.1669
 9753W        W25370  12.972   6.059  12.797 -0.3264 -0.1870  0.0299
 9754W        W25371  16.992   6.080  11.419 -0.3668  0.1807 -0.2289
 9755W        W25372   8.154   4.343  12.226 -0.2347 -0.2110 -0.1786
 9756W        W25373   8.595   4.831  14.731 -0.1355  0.0676  0.1039
 9757W        W25374  16.478  16.506  12.899  0.0106  0.0118 -0.0151
 9758W        W25375   1.565   8.937  11.420 -0.2515 -0.2280 -0.0851
 9759W        W25376  11.872  12.599   5.388  0.1880  0.3148 -0.2560
 9760W        W25377   9.936   4.466   0.584  0.0441 -0.0252  0.1775
 9761W        W25378   3.157   2.435   0.614  0.0289 -0.4191 -0.0765
 9762W        W25379   2.271   4.233  12.204  0.1687  0.1973 -0.1449
 9763W        W25380   4.293  14.878   2.863  0.4489  0.1973  0.0984
 9764W        W25381   1.777   1.121  11.323  0.1817  0.3908 -0.0478
 9765W        W25382   0.827  12.248   9.656  0.2863  0.1060  0.0184
 9766W        W25383   7.130  11.608   4.251 -0.2935  0.0900 -0.2016
 9767W        W25384  11.698  10.767   4.615 -0.0949  0.1238  0.0246
 9768W        W25385   4.274   0.568  15.042 -0.0821  0.2444  0.2314
 9769W        W25386  13.877   9.514  12.274  0.0906 -0.2425  0.3106
 9770W        W25387   9.833   8.931   2.374 -0.1853  0.1217 -0.1045
 9771W        W25388  13.054   7.959  13.824 -0.2103  0.0218  0.1195
 9772W        W25389  14.568  14.643  11.323 -0.2504  0.1258  0.0838
 9773W        W25390   8.656   4.747  11.104  0.1755 -0.0850  0.0292
 9774W        W25391  17.996   5.712  15.442  0.0498  0.2962 -0.0816
 9775W        W25392   9.438  18.515   2.560  0.1324  0.0775 -0.2790
 9776W        W25393  13.369   4.117   3.874  0.0647 -0.1417  0.1850
 9777W        W25394  15.260  16.155  14.307  0.2059 -0.2352  0.0010
 9778W        W25395  12.499   7.075  15.350 -0.0944  0.0644  0.0349
 9779W        W25396  18.614  11.236  14.192 -0.2033 -0.0857 -0.3621
 9780W        W25397  15.214   2.983   0.266  0.1240  0.0727  0.1859
 9781W        W25398  14.533   6.027  12.540  0.1643  0.1314 -0.0036
 9782W        W25399   2.824  10.683   0.501  0.1159  0.0992  0.3420
 9783W        W25400   0.783  17.471   4.387  0.0527 -0.1041  0.2014
 9784W        W25401  11.054  18.636  12.640  0.3276  0.1126 -0.2503
 9785W        W25402  14.818   8.372  13.707 -0.1693  0.4967  0.1952
 9786W        W25403   9.648   8.475   4.768  0.2291  0.1232  0.2814
 9787W        W25404   7.927  16.444  12.161  0.0509 -0.1307 -0.1733
 9788W        W25405  14.010  10.099  11.238 -0.0439  0.0428 -0.0956
 9789W        W25406   9.385   3.393  11.500 -0.1554  0.1409 -0.0909
 9790W        W25407   2.633  18.088   0.538  0.2878  0.1098 -0.0914
 9791W        W25408   7.816   6.676  12.795 -0.2489  0.0324 -0.0202
 9792W        W25409   6.672  10.281   1.205 -0.5227  0.0763 -0.0404
 9793W        W25410  18.348   7.666  14.437  0.0453 -0.0770  0.2617
 9794W        W25411  16.234  17.182   0.253  0.1560 -0.1704 -0.1519
 9795W        W25412   1.765   1.057   2.161  0.1121 -0.0785 -0.3205
 9796W        W25413  16.259   7.436  14.368 -0.0139  0.0390 -0.0341
 9797W        W25414   0.738   9.747  10.798  0.0867  0.2903  0.3533
 9798W        W25415   3.395  15.043  14.593  0.2326  0.0505  0.2149
 9799W        W25416   1.219  17.733   2.376 -0.0271  0.0395 -0.1679
 9800W        W25417   4.308   0.007   3.549 -0.1385 -0.2793 -0.2066
 9801W        W25418  12.422  18.577  11.944  0.1350 -0.2754  0.3152
 9802W        W25419   7.640  10.133   4.460  0.0981 -0.1333  0.2560
 9803W        W25420  10.856   2.087   1.453  0.2139  0.1307 -0.2462
 9804W        W25421  15.867  17.644   4.115 -0.1345  0.3529 -0.0100
 9805W        W25422   8.969   7.915  13.571  0.2318  0.3341  0.1377
 9806W        W25423  15.802   4.962  15.045  0.0390  0.1359  0.0876
 9807W        W25424  15.610  17.692  14.243 -0.2100 -0.1536 -0.2615
 9808W        W25425   4.155  11.242   3.841 -0.0341  0.3872  0.0480
 9809W        W25426  14.735   5.426  11.125 -0.1966  0.2087 -0.2228
 9810W        W25427   6.964  12.369  12.087 -0.0189  0.4427 -0.0166
 9811W        W25428   9.036  13.763   0.123 -0.2772 -0.0331  0.0641
 9812W        W25429   4.001  15.276  12.870  0.1932  0.1199  0.3141
 9813W        W25430  17.431   8.628   2.559 -0.0564  0.0378 -0.2689
 9814W        W25431   2.955   6.568   4.238  0.0757  0.0619 -0.0569
 9815W        W25432   3.714   4.988   2.393 -0.3539 -0.2552 -0.0369
 9816W        W25433   8.485   4.135  12.895  0.0387 -0.2244 -0.0523
 9817W        W25434  11.676   2.712  14.881 -0.0683  0.0101  0.0884
 9818W        W25435  10.732  10.552  14.049  0.0549 -0.2640  0.0670
 9819W        W25436  12.976   1.854  11.548  0.1931  0.1714  0.1147
 9820W        W25437  10.672  15.370   3.038 -0.1561  0.0204  0.0296
 9821W        W25438  16.431  13.962  14.027 -0.0060  0.3039  0.4203
 9822W        W25439   1.134  13.134  13.410 -0.1529  0.2064 -0.2514
 9823W        W25440   0.642  16.870  13.305  0.2843  0.1068  0.1298
 9824W        W25441  11.212   3.886  14.391 -0.1180  0.1606 -0.0303
 9825W        W25442  16.788   8.697  15.613  0.0008  0.0822  0.3738
 9826W        W25443   6.776   0.012  11.463  0.1495  0.0052 -0.2111
 9827W        W25444   7.586  18.233   0.629  0.0002 -0.0090  0.0467
 9828W        W25445  12.405   9.347   0.921  0.2712 -0.0791 -0.0984
 9829W        W25446  15.452  14.811  15.515  0.2087 -0.0148  0.1174
 9830W        W25447  13.832   6.898  15.799  0.2109 -0.3304 -0.1726
 9831W        W25448   9.701   7.407   4.717 -0.1783  0.1278 -0.1875
 9832W        W25449  16.212   2.752  15.697 -0.2562  0.1579  0.2452
 9833W        W25450   5.924  15.083   0.386  0.2404  0.0252  0.1802
 9834W        W25451   6.546  13.418   4.447 -0.0813 -0.0914 -0.0697
 9835W        W25452  15.114  12.241   2.173 -0.0273 -0.0333 -0.2146
 9836W        W25453   3.849   4.439   0.527  0.2024 -0.1551  0.0709
 9837W        W25454  12.567   3.695  14.699  0.3325 -0.1536  0.0985
 9838W        W25455  15.773  10.657  13.279 -0.1624  0.0347 -0.0116
 9839W        W25456  13.716   8.628   3.935 -0.0253 -0.1505 -0.0387
 9840W        W25457  12.018   7.079  12.563  0.2231  0.0931 -0.0240
 9841W        W25458   9.864  13.807   0.013  0.1992  0.2928 -0.0463
 9842W        W25459   7.503  16.868   4.057  0.2718  0.1531 -0.1699
 9843W        W25460  15.650  10.361   0.709  0.1026  0.1175  0.0648
 9844W        W25461  15.447   4.725  14.672  0.0829 -0.0897  0.1518
 9845W        W25462  12.128  11.173   1.185  0.0334  0.0499 -0.4771
 9846W        W25463   5.962   5.168  13.458  0.1590 -0.0978  0.0709
 9847W        W25464   4.814   1.000   2.784  0.3224  0.1862 -0.1510
 9848W        W25465  17.346   2.638  13.037 -0.0365 -0.0263 -0.1489
 9849W        W25466   6.994   8.612  13.444 -0.1474 -0.1737 -0.0995
 9850W        W25467   6.274  15.133  11.292  0.1963  0.2888  0.0500
 9851W        W25468   1.542  18.546   2.080 -0.2762 -0.0301 -0.2669
 9852W        W25469  12.812  16.973  10.549 -0.2543 -0.2506 -0.1075
 9853W        W25470  15.548  14.513  11.243  0.1202  0.1878 -0.1680
 9854W        W25471   1.587   8.361   1.775 -0.1396  0.0553 -0.2404
 9855W        W25472  16.681   5.577  15.394  0.1531  0.1025 -0.1300
 9856W        W25473   0.206  11.009  12.281 -0.1982  0.0775  0.0458
 9857W        W25474   7.592  11.378   4.175 -0.1436 -0.1081 -0.0621
 9858W        W25475   8.193   2.685  12.236 -0.0287 -0.1045 -0.2157
 9859W        W25476   3.531  10.786  14.852  0.1954 -0.1367 -0.0366
 9860W        W25477  10.752  12.670   0.151  0.0788  0.1378  0.0053
 9861W        W25478   5.685   2.948   5.343 -0.0931 -0.4892  0.0464
 9862W        W25479  13.864   7.872  13.440  0.0525  0.1841 -0.1091
 9863W        W25480   8.114   4.440  13.217 -0.0818 -0.0561  0.1192
 9864W        W25481  11.203   3.434  14.772 -0.2461  0.2087 -0.2576
 9865W        W25482   4.896  13.611   4.804 -0.4097  0.1314  0.0431
 9866W        W25483   7.824  14.347  15.482 -0.1555  0.1393 -0.0426
 9867W        W25484   9.721  13.276   4.798 -0.3720 -0.3293 -0.0478
 9868W        W25485  11.892   3.525   4.538  0.0024 -0.3904 -0.1882
 9869W        W25486   1.122  13.959   2.832 -0.1182  0.3944 -0.2802
 9870W        W25487  14.315   4.179   1.609  0.2369 -0.1895 -0.0426
 9871W        W25488  12.286   2.724  14.733 -0.0181  0.0491 -0.0959
 9872W        W25489   8.457   0.742  14.272  0.1210 -0.0780  0.4043
 9873W        W25490   5.853  12.989   3.145 -0.0078  0.0201 -0.0956
 9874W        W25491   1.165  13.583   3.182 -0.0883 -0.2457 -0.3275
 9875W        W25492   6.344   4.382  13.102 -0.0875  0.2041 -0.0620
 9876W        W25493  15.138   0.451  13.724 -0.0075  0.0522 -0.0272
 9877W        W25494   7.138   1.362   2.698  0.1251 -0.1711  0.1085
 9878W        W25495  11.505   7.489   0.337  0.0813 -0.2450  0.2957
 9879W        W25496   0.797  17.725   0.919 -0.3666 -0.0805 -0.2879
 9880W        W25497   9.940  15.261   2.637 -0.1108 -0.2542 -0.1671
 9881W        W25498  13.614   1.440   2.023 -0.0377 -0.4763 -0.2498
 9882W        W25499   8.094   8.368   2.171 -0.0737  0.0262  0.3361
 9883W        W25500   6.110  17.274   5.626 -0.0942  0.0317 -0.4777
 9884W        W25501  11.216   9.902  11.930 -0.3555 -0.2284 -0.1437
 9885W        W25502   7.195   1.046  11.759 -0.3643  0.0256 -0.1670
 9886W        W25503   9.077  12.584   2.458  0.0205  0.0721 -0.1575
 9887W        W25504  15.919  17.259  10.768 -0.1171 -0.0929  0.0954
 9888W        W25505   7.284  12.063  11.846  0.0113 -0.2958 -0.2806
 9889W        W25506  14.223  13.121   1.617  0.0575 -0.2870  0.0582
 9890W        W25507  15.232   1.121   1.354 -0.2731 -0.0906  0.2037
 9891W        W25508  14.097  17.645  15.646  0.0579  0.0726  0.1534
 9892W        W25509   7.796   2.676  12.698 -0.0467 -0.3056 -0.3281
 9893W        W25510   1.263   2.907   3.403 -0.3933  0.0695 -0.2915
 9894W        W25511  14.673   1.762   1.970  0.1981  0.1758 -0.1927
 9895W        W25512  14.561   6.970   1.229  0.1657  0.3023  0.1413
 9896W        W25513   9.984  10.741   1.995  0.3786  0.0088  0.0073
 9897W        W25514   1.928   8.395  13.393 -0.1356  0.0993  0.2878
 9898W        W25515  15.716  12.594  11.963 -0.1969 -0.0870 -0.3553
 9899W        W25516   5.772   6.760  13.704  0.3467 -0.0859 -0.1513
 9900W        W25517  13.186   4.899  11.548  0.2638 -0.1121  0.0163
 9901W        W25518  11.286  14.457   0.465 -0.0971  0.1613  0.2578
 9902W        W25519   2.967  14.493  13.032  0.0628  0.2330  0.0617
 9903W        W25520   1.676   9.339   1.480  0.0906 -0.1059 -0.0450
 9904W        W25521  10.821  15.349   1.288  0.1078  0.0938  0.0022
 9905W        W25522  18.521   4.441   1.923 -0.1809  0.3223 -0.1378
 9906W        W25523  14.916  12.872  12.506  0.1004  0.0095 -0.1290
 9907W        W25524  17.605   1.573   0.913 -0.2153 -0.2673  0.1630
 9908W        W25525  12.906  10.996   3.499 -0.0508  0.0731  0.3038
 9909W        W25526   0.078  17.928  15.133 -0.1992 -0.2764  0.0103
 9910W        W25527  16.478   7.143  15.401 -0.4025  0.0698 -0.2140
 9911W        W25528  16.748   5.623   1.288  0.4061  0.1391  0.0162
 9912W        W25529  17.522  17.400   3.990  0.0928  0.1405 -0.0685
 9913W        W25530   7.156  18.237   0.016 -0.1872 -0.4364 -0.1835
 9914W        W25531  18.469   1.106  12.680 -0.1519 -0.0540  0.2775
 9915W        W25532  16.432  11.027  11.707  0.0025 -0.3465 -0.3450
 9916W        W25533  15.621   6.318  15.627  0.0306 -0.1085  0.0036
 9917W        W25534   8.683   0.616  12.838 -0.0748 -0.0213  0.1075
 9918W        W25535   7.617   4.398   5.081  0.5654  0.1709 -0.0930
 9919W        W25536   4.983  14.198   0.241 -0.0685  0.0426  0.2057
 9920W        W25537  16.322  15.868  15.627 -0.1944  0.0172 -0.1697
 9921W        W25538   0.303   3.213  11.629 -0.1063 -0.0706  0.4210
 9922W        W25539   3.871   1.050  12.781 -0.0457 -0.0942 -0.0909
 9923W        W25540  17.043  17.523   2.034  0.1253  0.0251  0.0654
 9924W        W25541   7.905  17.400   2.711  0.0155  0.0773  0.1582
 9925W        W25542   9.342   7.707   1.866 -0.0823  0.1348 -0.0444
 9926W        W25543   7.693  13.157  15.672 -0.0089  0.2359 -0.0049
 9927W        W25544   6.081   1.780   2.414 -0.1746  0.0303  0.2373
 9928W        W25545   3.373   7.010  13.696  0.0792 -0.1396 -0.0528
 9929W        W25546  11.916  17.771  11.121  0.1858 -0.0337  0.2359
 9930W        W25547  16.815  12.616   0.789  0.1528 -0.2447  0.0028
 9931W        W25548   6.212   3.454  11.806  0.0057 -0.0243 -0.0003
 9932W        W25549   7.144   7.453  12.944  0.0628 -0.0675 -0.1598
 9933W        W25550   9.887   2.120  15.360 -0.2186  0.4743 -0.3031
 9934W        W25551   4.259  11.574   3.492 -0.0058 -0.1235  0.0964
 9935W        W25552  12.172  16.219  10.686  0.0832  0.2717  0.4359
 9936W        W25553   9.467   6.555  14.916  0.1554  0.3560 -0.2694
 9937W        W25554   0.182   6.058   4.055  0.1505  0.2903  0.0733
 9938W        W25555   6.666   1.476   9.765 -0.2929 -0.2176 -0.3347
 9939W        W25556  12.797  15.399  10.715 -0.2255  0.1909  0.2958
 9940W        W25557   1.616  15.786  12.145  0.2051  0.2229  0.0545
 9941W        W25558   0.337   9.751  14.804  0.4159 -0.2253  0.0559
 9942W        W25559   1.873   5.714  12.995  0.0890 -0.0447 -0.0468
 9943W        W25560   4.123   6.121   1.320  0.3006  0.0984  0.2331
 9944W        W25561   7.177  11.538  11.878  0.0768 -0.1230  0.0655
 9945W        W25562   9.208  15.789   3.306  0.0290 -0.2399 -0.2394
 9946W        W25563   6.347   2.729  13.415  0.0539 -0.2468 -0.2786
 9947W        W25564  18.060  17.405  11.367 -0.0109  0.1353  0.1314
 9948W        W25565  13.869   8.922   2.600 -0.0298  0.2265  0.3015
 9949W        W25566  18.292   9.763  10.228  0.0738 -0.1608  0.1189
 9950W        W25567  17.692   7.917  15.087 -0.0754 -0.0834  0.0658
 9951W        W25568  15.414   3.755   5.903 -0.1522  0.1002  0.2552
 9952W        W25569  12.562  15.937  15.789 -0.1386  0.2513  0.1806
 9953W        W25570   4.071   1.258  14.338 -0.1698  0.4644 -0.0135
 9954W        W25571   2.097   6.061   4.824 -0.1791 -0.0241 -0.0146
 9955W        W25572  14.890   4.884  15.312 -0.0058 -0.0108 -0.1952
 9956W        W25573   5.173  13.500   9.796  0.3007  0.4348 -0.1918
 9957W        W25574  10.684  17.102   1.638 -0.2939 -0.3386 -0.0118
 9958W        W25575   5.104  13.786  11.876  0.3361  0.1730  0.1212
 9959W        W25576   2.921  13.994   1.749 -0.1675 -0.0738 -0.1207
 9960W        W25577   1.533  11.502  13.686  0.1636  0.2475  0.3165
 9961W        W25578  13.908   8.624   3.014  0.0164  0.2921  0.1017
 9962W        W25579  14.936  13.381  12.609 -0.0128  0.0331  0.0796
 9963W        W25580   6.797   8.670  14.751 -0.5541 -0.2440  0.0216
 9964W        W25581  15.430   6.133   1.740  0.1674 -0.1875 -0.0130
 9965W        W25582   5.183  18.014   5.154 -0.0148  0.1700 -0.0751
 9966W        W25583   7.002   1.375   0.703 -0.0613  0.1412  0.3852
 9967W        W25584  12.676   3.289  13.589 -0.2036 -0.3368 -0.2412
 9968W        W25585   9.283   4.526   3.870  0.0288  0.2198 -0.1894
 9969W        W25586  13.327  17.912  12.340 -0.0572 -0.1200  0.0869
 9970W        W25587  12.794  12.354  11.940  0.0959  0.2967 -0.0727
 9971W        W25588   0.652  14.977   1.945  0.0892 -0.2473  0.0367
 9972W        W25589  12.377   3.669   0.989 -0.1658 -0.2137  0.0877
 9973W        W25590   7.619   2.700  11.873  0.1707  0.1294 -0.2686
 9974W        W25591   8.733   2.013  15.783  0.0104 -0.1812 -0.1955
 9975W        W25592   9.521  11.067  10.891  0.0045 -0.1317  0.1105
 9976W        W25593  15.050   6.612  14.633 -0.0276 -0.5833 -0.2671
 9977W        W25594   8.525   2.865  15.625 -0.2099  0.3385  0.1660
 9978W        W25595   8.253   8.337   2.780  0.3934  0.2251  0.0659
 9979W        W25596   9.199  13.657   4.996 -0.0211  0.0667  0.3656
 9980W        W25597  13.714  14.628  14.483  0.1083 -0.2119 -0.1314
 9981W        W25598  13.167   8.751   4.439  0.0086 -0.0780  0.1046
 9982W        W25599  12.180  15.965  13.352  0.3356 -0.0595  0.3152
 9983W        W25600   7.433  16.549   5.587 -0.1830  0.2972 -0.0956
 9984W        W25601   2.078  12.613   1.732  0.5001 -0.0237 -0.4486
 9985W        W25602   1.557  10.160  12.092  0.0389 -0.0679 -0.1017
 9986W        W25603  15.283   9.976  11.382 -0.0176 -0.1513  0.0115
 9987W        W25604   1.736   5.837   0.740 -0.1688 -0.2922  0.0636
 9988W        W25605   9.678   7.924  15.250  0.2672  0.2176 -0.0569
 9989W        W25606   8.326  16.782  14.536 -0.2344  0.1024 -0.2508
 9990W        W25607   4.286   5.160   5.169  0.0183 -0.3103 -0.1142
 9991W        W25608   9.021  14.883  14.167  0.0730 -0.1600 -0.1165
 9992W        W25609   2.932   4.589   3.036  0.1742 -0.0092  0.0720
 9993W        W25610   9.768   4.951  13.612 -0.2544  0.3182 -0.2303
 9994W        W25611   5.802  12.280   4.606 -0.1525  0.0555 -0.0835
 9995W        W25612   6.081   3.570  14.247 -0.4869 -0.0684 -0.1477
 9996W        W25613   7.296  15.837  15.173 -0.2450 -0.1227  0.2052
 9997W        W25614  18.598   6.512   4.521  0.1334  0.0019 -0.0196
 9998W        W25615   2.272   5.042   6.130 -0.1403 -0.1594  0.0847
 9999W        W25616   0.525  11.891   1.905  0.0878  0.1642 -0.0156
10000W        W25617   7.731   0.611  13.743  0.1815  0.5808  0.0809
10001W        W25618  18.142  16.265  14.957 -0.0072  0.1075  0.1960
10002W        W25619   1.815  17.026  12.045  0.0905 -0.2498 -0.3035
10003W        W25620   5.252  18.263   2.012 -0.2820  0.0376  0.1436
10004W        W25621  10.117   4.104  14.150  0.2594 -0.1348  0.3322
10005W        W25622   6.492   2.751   2.503  0.1395  0.1391 -0.2874
10006W        W25623  11.932   0.457  15.198 -0.1829  0.0429  0.2017
10007W        W25624  18.217  15.834  14.059  0.0521  0.0891 -0.3410
10008W        W25625   7.371  11.244  13.487 -0.0923  0.0023 -0.2286
10009W        W25626  12.229   5.007   0.833 -0.0550  0.0751 -0.2451
10010W        W25627  13.074  13.830  10.867 -0.1552 -0.1464 -0.0569
10011W        W25628   2.530  17.510  14.271 -0.0462  0.1501  0.2087
10012W        W25629   8.606   5.915   2.062 -0.0624 -0.0066 -0.0581
10013W        W25630  12.869  12.024   5.144  0.0889  0.0187  0.0476
10014W        W25631  16.129   5.272   2.680 -0.1899 -0.1295  0.3047
10015W        W25632  11.113   3.768   4.091 -0.3396 -0.2703 -0.0969
10016W        W25633   6.654   7.640  14.919 -0.0302 -0.1110 -0.0003
10017W        W25634   4.685  17.115  11.467  0.1681  0.0246  0.0550
10018W        W25635   8.589  13.271   3.274 -0.0071 -0.0573  0.0866
10019W        W25636   9.156   4.685   1.310 -0.0326  0.2269 -0.0000
10020W        W25637  18.624  16.254  11.227  0.0705 -0.1731  0.0370
10021W        W25638   3.461  14.599  12.302 -0.1862 -0.2403  0.2653
10022W        W25639   7.597  14.749   4.161  0.1211 -0.1909 -0.2796
10023W        W25640  16.595  12.022   3.845  0.0626  0.2743 -0.0530
10024W        W25641  13.496   5.711  13.977  0.1189 -0.2274 -0.5307
10025W        W25642   9.594  11.649   9.503  0.1101  0.1309  0.0668
10026W        W25643   8.108   5.163   1.480 -0.1265  0.0140 -0.0156
10027W        W25644  14.730   6.187  12.098  0.0717 -0.1019 -0.4179
10028W        W25645   5.108  11.835   1.818 -0.0953 -0.0698 -0.1747
10029W        W25646  10.984  12.100   4.376 -0.0920  0.4060  0.0082
10030W        W25647  11.540  16.059   0.301  0.1605 -0.2274  0.1848
10031W        W25648  15.800  12.783  13.110  0.1189  0.1486  0.1093
10032W        W25649   7.392  10.478   4.733 -0.1511 -0.0801 -0.3297
10033W        W25650   6.744   2.747  15.236  0.0636 -0.2479  0.0939
10034W        W25651  12.700  10.624   0.367  0.0738  0.4653 -0.1563
10035W        W25652  12.737   0.481   3.307 -0.2357  0.1647 -0.3523
10036W        W25653   6.834   2.955  11.217 -0.0695  0.2687  0.1754
10037W        W25654   3.044  12.649   4.156 -0.3715  0.0298  0.1852
10038W        W25655   4.689  16.632   4.821 -0.0990  0.1041  0.0894
10039W        W25656  13.401  12.172   5.130 -0.1998 -0.0173  0.0640
10040W        W25657   3.220  15.359   9.755  0.1138 -0.0206  0.1678
10041W        W25658   2.894  10.287  15.238 -0.3010  0.0099 -0.1824
10042W        W25659  12.486  15.047  11.696 -0.2857 -0.3431 -0.1376
10043W        W25660  13.456   7.726  13.705  0.1632 -0.2751  0.0410
10044W        W25661   6.273   8.963  11.465 -0.0080  0.0073  0.0851
10045W        W25662  10.826  13.764   1.127 -0.2650 -0.1592  0.2014
10046W        W25663   3.109  11.688  15.310  0.4187  0.2642 -0.0511
10047W        W25664   7.175   9.006  14.638 -0.0928  0.0659 -0.0270
10048W        W25665   3.236  10.870  11.674 -0.1873 -0.3962 -0.0364
10049W        W25666  15.853  14.243   4.046 -0.3351  0.0227 -0.0779
10050W        W25667   3.008  12.828  12.959 -0.1893 -0.0706 -0.4670
10051W        W25668  13.997  10.573   4.277 -0.1614  0.0406 -0.0077
10052W        W25669   2.952  13.153  12.306 -0.0057 -0.2735  0.0890
10053W        W25670  18.092   7.502  15.290 -0.2280 -0.2105  0.0797
10054W        W25671  12.280  15.455   5.560 -0.1499  0.0092 -0.1249
10055W        W25672   2.099  14.688   4.266  0.0687  0.0544  0.0311
10056W        W25673  15.069   1.420  12.879  0.3295  0.0951 -0.1154
10057W        W25674   4.492  17.143   9.838  0.3733  0.1121 -0.3147
10058W        W25675   2.162  10.786   0.102  0.0556 -0.1363  0.2053
10059W        W25676   7.764   4.342   3.427 -0.0200  0.0567  0.1758
10060W        W25677   3.773   9.022   2.917  0.0421  0.1926  0.3428
10061W        W25678  11.701   4.214  15.238  0.2811 -0.0142 -0.0364
10062W        W25679   9.432  11.976   3.288 -0.2015  0.2756  0.1177
10063W        W25680   3.077   4.429   1.179  0.1103  0.2235 -0.0072
10064W        W25681  16.476  13.088   1.632  0.0816  0.1979  0.1755
10065W        W25682  13.774   8.896   4.464 -0.3071 -0.1097  0.2021
10066W        W25683   2.533   5.375   1.825 -0.0361  0.1843 -0.2462
10067W        W25684   1.595   1.358   5.992 -0.0286  0.0300 -0.1530
10068W        W25685  16.974   9.606   3.270 -0.1486 -0.5104  0.3005
10069W        W25686   3.949   7.092   1.031  0.0533  0.2966  0.1171
10070W        W25687   0.785   1.804  15.031 -0.2155  0.0152 -0.0299
10071W        W25688  17.500  10.217  11.640 -0.2419  0.0089  0.0667
10072W        W25689   0.528  12.703   3.845 -0.0130  0.0723 -0.0326
10073W        W25690  15.188  11.448  12.250 -0.1873  0.2048  0.1617
10074W        W25691  12.221   7.242   4.201 -0.1057  0.0378 -0.0844
10075W        W25692   5.460   9.655  12.447 -0.1890 -0.2294  0.3586
10076W        W25693  11.110   0.576  13.767  0.3177 -0.2600  0.0514
10077W        W25694   1.224   8.993  10.949  0.0145 -0.1275 -0.2553
10078W        W25695  16.213   7.789   0.415 -0.0076  0.1037  0.1737
10079W        W25696  14.598  14.065   1.366  0.2650 -0.3790  0.0829
10080W        W25697  14.274  18.187  12.126  0.2520  0.1261 -0.0569
10081W        W25698  16.143   2.636   0.501 -0.1121  0.0921 -0.0321
10082W        W25699  18.598  16.172  13.271 -0.1579  0.2240 -0.1350
10083W        W25700  15.237  11.668   3.241 -0.1057  0.1200  0.0142
10084W        W25701  10.046   2.524   0.509 -0.0189 -0.0424  0.5694
10085W        W25702   3.077  12.792   2.792  0.2344  0.4070  0.0136
10086W        W25703  15.389  16.172   0.563  0.0748  0.2276  0.1017
10087W        W25704  17.916   9.949  15.484 -0.1171  0.2293  0.0903
10088W        W25705  16.338  13.576   3.395  0.1276  0.2401  0.3453
10089W        W25706   5.251   0.131   0.436  0.0268  0.0760 -0.1648
10090W        W25707   8.302  10.554  15.147 -0.0263  0.1824 -0.2377
10091W        W25708  13.836   5.378   2.586  0.1366 -0.1455  0.3319
10092W        W25709  18.267  13.619  10.839  0.2163  0.1539  0.0786
10093W        W25710   9.221  11.378  13.440 -0.2083  0.3204 -0.2831
10094W        W25711   4.823  13.725   3.592  0.1047 -0.0269  0.1864
10095W        W25712   9.264   7.041  14.968 -0.1307  0.0664  0.3340
10096W        W25713   5.923   5.357  13.929 -0.1032 -0.0560  0.1686
10097W        W25714   5.129   2.996  11.170  0.0733 -0.4198 -0.1135
10098W        W25715   3.470  14.482  13.208 -0.4206 -0.0612 -0.0810
10099W        W25716  13.636   4.318  15.185 -0.3334  0.1912 -0.1626
10100W        W25717   6.638   2.805  15.798  0.3459  0.0856  0.2747
10101W        W25718   2.231   7.110   0.432 -0.0142 -0.2208 -0.1387
10102W        W25719   7.753  10.906   4.203 -0.1681  0.4755 -0.1409
10103W        W25720   5.642  15.684   4.558 -0.4182 -0.1868  0.0197
10104W        W25721  15.571   7.684  12.746  0.0521  0.0125 -0.1154
10105W        W25722  10.155   3.895  11.642 -0.1297 -0.0851 -0.3535
10106W        W25723   1.683   3.041   5.467  0.2700  0.1376 -0.0245
10107W        W25724  10.324   2.229  14.391 -0.2583  0.0497 -0.0581
10108W        W25725   6.240  10.071  11.484  0.2015  0.0639 -0.4655
10109W        W25726  16.181  15.142   3.063  0.3650  0.2654 -0.1770
10110W        W25727   8.002   1.314   2.145  0.1092  0.0061  0.3665
10111W        W25728  15.789   5.261   0.243 -0.2317  0.3604 -0.0689
10112W        W25729  17.328   0.804  11.947  0.1127  0.0656 -0.0904
10113W        W25730   1.764  10.990  15.001 -0.3170  0.0872  0.0343
10114W        W25731  18.519   7.201   2.183 -0.1307  0.0890 -0.2340
10115W        W25732  14.020   6.978   1.495  0.3819  0.1106  0.1265
10116W        W25733  13.401   9.454  12.427  0.1748 -0.2094  0.2059
10117W        W25734   4.159  11.440   1.824  0.1274  0.1167 -0.0179
10118W        W25735  13.137  11.625   0.267 -0.2108  0.2920  0.0790
10119W        W25736   3.259  11.379   1.755  0.0740 -0.0869 -0.3074
10120W        W25737   0.955  13.812  10.601  0.1190  0.2496 -0.1847
10121W        W25738   3.747  14.000  13.311  0.1897  0.0428  0.0254
10122W        W25739   4.108  18.282   3.809 -0.2899 -0.1962 -0.3157
10123W        W25740   6.117  10.701   5.519  0.0059 -0.0776  0.0866
10124W        W25741   0.231   8.559  11.563  0.2185 -0.2721  0.0438
10125W        W25742  10.006  17.795  15.193 -0.0121  0.0108  0.1320
10126W        W25743   3.633  16.865   2.866  0.1792  0.0243 -0.0887
10127W        W25744   3.827   0.347  14.553 -0.0288 -0.0236  0.0514
10128W        W25745  11.256   9.030   4.815 -0.0326  0.0838 -0.1015
10129W        W25746   4.932  13.735  12.972 -0.0055 -0.0870 -0.0446
10130W        W25747  10.822   4.735   1.724 -0.1179 -0.0867  0.0834
10131W        W25748   4.794   2.466  15.260 -0.1757  0.1347  0.1482
10132W        W25749  11.963  17.207   4.849 -0.0070  0.3385 -0.3964
10133W        W25750   9.623  12.029   0.938  0.0850  0.3209  0.2584
10134W        W25751   8.426  12.512   3.061 -0.4042 -0.1128 -0.2690
10135W        W25752   1.545   2.053   4.007  0.1144  0.1161 -0.3634
10136W        W25753  16.755   9.349  10.774  0.0241 -0.2340  0.4770
10137W        W25754   9.938   2.948  11.149 -0.0173 -0.0467  0.2479
10138W        W25755  16.401  12.475   3.921 -0.0623 -0.3328 -0.1006
10139W        W25756   1.742  17.070  12.601  0.5174  0.0577  0.1431
10140W        W25757   8.949   3.501   0.569  0.2159  0.1654 -0.0198
10141W        W25758  14.172   1.044   1.208  0.0567  0.1558  0.2764
10142W        W25759   3.373   2.625   2.152  0.1188  0.0206  0.2116
10143W        W25760   9.646   5.106   2.607 -0.2531  0.0579  0.1065
10144W        W25761  12.455  13.778  15.274  0.0362 -0.0733  0.1186
10145W        W25762   4.332   1.578  12.875  0.0384 -0.0294 -0.1198
10146W        W25763   9.351   1.760   1.872  0.2290 -0.1466 -0.1427
10147W        W25764   5.845   7.195  10.903 -0.1821 -0.2062 -0.3209
10148W        W25765   8.924   8.606   4.839  0.1416 -0.2989 -0.1788
10149W        W25766  12.667  10.015   2.356  0.0881  0.1210  0.1649
10150W        W25767   3.661  16.569  11.266  0.3419  0.2297 -0.2489
10151W        W25768   8.100   0.948  14.509  0.0471 -0.0618 -0.0482
10152W        W25769   3.525   0.493   5.503  0.0381 -0.0317 -0.1358
10153W        W25770   8.874   7.264   4.967  0.0893  0.3363  0.0397
10154W        W25771   9.679  11.192  14.403 -0.2564  0.2604 -0.2513
10155W        W25772  11.120  17.588  12.664 -0.2069  0.2050  0.2074
10156W        W25773   3.391   9.421   5.416 -0.0875 -0.3629  0.1437
10157W        W25774   1.313  12.440   4.264  0.0544  0.2242 -0.1889
10158W        W25775   7.495  17.443   1.852 -0.0161 -0.0978  0.2845
10159W        W25776   6.660   9.054   1.248  0.0292  0.1055  0.2643
10160W        W25777   9.152  12.556  14.003  0.1313 -0.0966  0.1064
10161W        W25778  18.222  17.735  15.259 -0.0787  0.1275  0.2895
10162W        W25779  16.801  15.552   3.816 -0.0997 -0.0768 -0.0370
10163W        W25780   2.801   5.292  15.698  0.0279  0.0760  0.2958
10164W        W25781  17.895  17.418   3.050 -0.0577  0.2619  0.0073
10165W        W25782  12.180   8.358   3.984 -0.0290 -0.1727 -0.0687
10166W        W25783   4.782  14.249   3.698 -0.3325 -0.0469  0.5680
10167W        W25784  17.550  16.379   4.796 -0.0952 -0.1609 -0.1381
10168W        W25785  14.516  13.686  12.510  0.0050  0.1222  0.3154
10169W        W25786   3.918  12.709   0.944  0.0383  0.3054  0.0070
10170W        W25787  14.112  16.794   1.763 -0.0926  0.3211  0.5023
10171W        W25788   3.415   2.999  12.803  0.1328 -0.3900 -0.1098
10172W        W25789  13.082  17.284   4.841  0.1917  0.0594 -0.2424
10173W        W25790  18.083  12.213  12.739  0.1634 -0.1738 -0.0101
10174W        W25791   6.152  14.663   0.474 -0.2649  0.1129  0.0806
10175W        W25792  12.936   8.688   0.474  0.2376  0.1794 -0.1171
10176W        W25793  18.093  18.263   4.927 -0.1100 -0.1154  0.4325
10177W        W25794  13.013   8.908   1.473 -0.3843 -0.0321 -0.1349
10178W        W25795  18.147   5.893   0.069 -0.3750 -0.0581 -0.1548
10179W        W25796   6.500   7.344   3.811  0.3524 -0.1073  0.0606
10180W        W25797  15.119  11.634   0.220  0.1547 -0.0282  0.0744
10181W        W25798   6.276  10.055  13.059 -0.1686  0.0962 -0.1426
10182W        W25799   8.088   1.704   3.000 -0.1618 -0.1495 -0.1762
10183W        W25800  14.503  12.461   0.517 -0.1749  0.0623  0.1750
10184W        W25801   7.649   5.376   4.931 -0.0233  0.0658 -0.0515
10185W        W25802  15.899   8.881   0.451 -0.0546 -0.1090 -0.3458
10186W        W25803   2.649   2.147  15.174  0.0313  0.0561 -0.1754
10187W        W25804  16.770  18.019   4.871  0.2115 -0.1478 -0.0320
10188W        W25805   0.926  16.099   4.044 -0.3915  0.0806 -0.1490
10189W        W25806   6.634  13.358   3.774  0.0687 -0.2570  0.1903
10190W        W25807  15.290   4.902   3.719 -0.3005 -0.0063  0.0670
10191W        W25808   5.138  16.202  13.931 -0.1148 -0.1175 -0.2563
10192W        W25809  14.825   6.102  13.557 -0.2171  0.0953  0.0595
10193W        W25810  11.643   5.248  13.190  0.0093 -0.0731 -0.2368
10194W        W25811   9.308  12.554  11.081  0.1202  0.3157  0.1395
10195W        W25812   1.626  16.532  11.293  0.2986  0.2579  0.0953
10196W        W25813   9.028  16.053  10.701  0.1533 -0.1069 -0.0236
10197W        W25814   1.953  14.281   1.463 -0.2265  0.0412 -0.3532
10198W        W25815  12.441  15.444  13.067 -0.2164 -0.2961  0.1764
10199W        W25816   2.224   2.171  14.891 -0.1828  0.0014 -0.1555
10200W        W25817   0.368   7.944   1.395 -0.0191  0.2104 -0.0576
10201W        W25818  18.569  12.018  12.840  0.1534  0.0765  0.4984
10202W        W25819   2.519  15.829   4.819  0.1310 -0.2287  0.1796
10203W        W25820   0.289   2.672  15.166  0.0032  0.0347 -0.0593
10204W        W25821   9.144   1.814   2.398 -0.1816 -0.2891  0.0503
10205W        W25822   3.898  15.663  10.421 -0.2477  0.1694 -0.0175
10206W        W25823   0.369   7.342  12.212 -0.1333 -0.0095 -0.1230
10207W        W25824   8.479  14.192  15.249  0.0584 -0.3095 -0.1275
10208W        W25825   4.021  16.878  13.677 -0.1482 -0.1561  0.1303
10209W        W25826   1.523  17.997  11.978 -0.0936 -0.0939  0.0479
10210W        W25827  13.575  13.834  13.894  0.3753  0.0519 -0.0650
10211W        W25828   9.771  11.629   2.377 -0.0406 -0.1789  0.0597
10212W        W25829   8.402  14.307  11.079 -0.2072  0.0616 -0.1231
10213W        W25830   1.148   0.915   3.986 -0.3048 -0.3899  0.1767
10214W        W25831  14.157  11.362  10.774 -0.0998 -0.0034  0.0109
10215W        W25832   5.486   9.817  11.146  0.3703 -0.1707  0.1677
10216W        W25833   5.831   6.179  11.598  0.3704 -0.3271  0.1638
10217W        W25834  16.693   2.683   3.438  0.1099  0.1677  0.0896
10218W        W25835   7.430  12.277   1.962 -0.0570  0.1862 -0.1238
10219W        W25836  14.980  13.446  14.817  0.0015  0.2148  0.0004
10220W        W25837   2.719   0.432  14.027 -0.1071  0.0732 -0.2767
10221W        W25838   2.518  15.738  15.577 -0.2980 -0.0147  0.1077
10222W        W25839  10.947   5.074   3.284  0.1471 -0.3172 -0.2952
10223W        W25840  17.484   8.341  10.961 -0.1913  0.0052  0.0285
10224W        W25841   4.906   2.088  11.616  0.0393 -0.0697  0.1205
10225W        W25842   3.971   2.239   5.740 -0.0229 -0.0601 -0.0822
10226W        W25843   1.454   3.062  11.728 -0.3433  0.2851  0.0125
10227W        W25844   4.642  13.583   1.940  0.0923 -0.2364 -0.1912
10228W        W25845  18.151  17.051   2.150 -0.1674  0.3294 -0.0798
10229W        W25846  16.086  13.379  11.005 -0.0765 -0.1702  0.0151
10230W        W25847  11.716   8.363   2.666  0.0574  0.1053  0.3679
10231W        W25848   1.224   8.697  13.093 -0.0894 -0.1643  0.1259
10232W        W25849  14.652  16.047  13.828 -0.0439  0.0387 -0.0033
10233W        W25850   6.362   5.124  11.031 -0.1869 -0.0924  0.0955
10234W        W25851  17.802  17.131  13.671 -0.1118  0.0357 -0.2602
10235W        W25852  18.325  13.846   3.553  0.1202  0.1167  0.2578
10236W        W25853  18.151   7.742   3.684  0.0652 -0.1157 -0.1407
10237W        W25854  14.456  13.724  11.207 -0.1344 -0.1771  0.1070
10238W        W25855   8.832  17.667  15.157 -0.0976  0.0944  0.3880
10239W        W25856   6.195   1.661   6.295 -0.3633 -0.0255 -0.3422
10240W        W25857  17.032  17.024   1.369  0.0650  0.1131 -0.2743
10241W        W25858   8.568   1.965   3.962  0.2372  0.0497  0.1023
10242W        W25859   3.884   3.675  15.569  0.2473  0.2946 -0.1007
10243W        W25860  10.692   8.900  15.038  0.1209  0.3497 -0.1651
10244W        W25861   2.700  11.777  13.629  0.0359  0.0109 -0.1166
10245W        W25862  12.808  16.366  11.245  0.4603  0.2048  0.0466
10246W        W25863   1.142  17.368   0.627  0.2448 -0.0497 -0.0729
10247W        W25864  14.854  11.415  11.799 -0.2768  0.1549 -0.0993
10248W        W25865   5.594  14.235  10.379  0.5569 -0.0500  0.0739
10249W        W25866   5.161   3.179   4.491  0.3443  0.0697  0.0576
10250W        W25867   3.350  13.456   4.510  0.2801  0.2598  0.1331
10251W        W25868  10.063   4.484  13.725 -0.0174 -0.1443 -0.1819
10252W        W25869  14.660   8.107  14.594 -0.1500 -0.0001 -0.0760
10253W        W25870  12.928   4.560  13.155  0.1012 -0.1375  0.1322
10254W        W25871  11.570  13.982  12.717  0.1248  0.3221 -0.0232
10255W        W25872  12.298   6.220   3.329  0.1340 -0.1681 -0.0226
10256W        W25873  17.302   6.444   1.045 -0.2647 -0.1289 -0.0663
10257W        W25874   7.823  13.069   2.605  0.0968 -0.0462 -0.0727
10258W        W25875  13.442   5.421  11.452  0.2050 -0.2836 -0.3134
10259W        W25876  12.230   6.606  12.886 -0.1764  0.1026 -0.1749
10260W        W25877   2.454   0.027  15.496 -0.0438  0.0296  0.0231
10261W        W25878   2.281  12.428   0.981 -0.2556  0.0538  0.0528
10262W        W25879  12.671  16.373   0.686  0.1353 -0.2419 -0.2524
10263W        W25880   4.643   1.723  15.448  0.2285 -0.2248 -0.0132
10264W        W25881  15.952   9.927   1.377  0.0739  0.0225  0.0982
10265W        W25882  16.930   6.197   5.485 -0.1676 -0.0578 -0.0024
10266W        W25883   1.642  16.358   2.811 -0.1600  0.2704  0.2374
10267W        W25884   1.628  17.492   2.033 -0.0952 -0.1995 -0.0152
10268W        W25885   1.906  18.011  14.166 -0.1750  0.0161 -0.0014
10269W        W25886   9.935   9.751  12.377 -0.0702  0.0517  0.1452
10270W        W25887  15.868  17.750   4.814 -0.0017 -0.1500  0.1002
10271W        W25888   1.333  13.349  12.927 -0.3081 -0.0076 -0.1829
10272W        W25889  13.379   3.396  11.999  0.3839  0.3077 -0.1050
10273W        W25890   5.484  10.773   0.173 -0.1497 -0.2094  0.0970
10274W        W25891   5.358  15.571   4.908  0.0342 -0.3792 -0.1964
10275W        W25892   8.249  11.132  13.253  0.0030  0.2463  0.2808
10276W        W25893   4.327   3.193   1.243  0.0538 -0.0859 -0.3171
10277W        W25894   5.442  15.369   1.184 -0.4374 -0.1925 -0.2192
10278W        W25895   1.828  14.557  11.130 -0.0741 -0.0311 -0.2019
10279W        W25896  12.427  13.866   4.949 -0.2844 -0.0561 -0.0441
10280W        W25897   0.821  11.187  14.798 -0.1675  0.0001 -0.3427
10281W        W25898   9.487   8.173  12.046 -0.0690 -0.0062  0.1019
10282W        W25899  12.561   0.145   2.940  0.0201  0.0519  0.0036
10283W        W25900   6.463   9.578  14.308 -0.1026  0.1644  0.0837
10284W        W25901  14.857   6.843   3.700  0.3165  0.1252 -0.1487
10285W        W25902  17.713   1.286   3.241 -0.0400 -0.0299  0.1323
10286W        W25903  14.249  16.959   4.508  0.4349 -0.1086  0.0815
10287W        W25904  14.618   4.766  13.471  0.4164  0.1518  0.2986
10288W        W25905   9.662  16.081  14.101  0.2414  0.0396 -0.0238
10289W        W25906  13.243   5.973   3.032  0.1741 -0.0900 -0.1517
10290W        W25907   3.006  14.354  14.890  0.0457  0.2831  0.1275
10291W        W25908   9.040  10.899  10.835  0.4638  0.2942 -0.1264
10292W        W25909   5.781  10.847  11.086  0.1213  0.1217  0.0836
10293W        W25910   5.634  10.722   5.364  0.0853 -0.0406 -0.0380
10294W        W25911  12.205   4.186   4.951 -0.0796 -0.2999  0.1938
10295W        W25912   0.855  11.894  10.870  0.4646  0.1296  0.2873
10296W        W25913   8.421  13.198  14.318 -0.0401 -0.1945  0.0391
10297W        W25914   0.318  14.526   0.750  0.2649  0.0503  0.0869
10298W        W25915   4.978  16.119   1.004  0.0195  0.1006  0.2489
10299W        W25916   3.428   3.988   1.498 -0.1132 -0.1040 -0.0899
10300W        W25917   3.851   5.273   1.651  0.0451 -0.1490 -0.0939
10301W        W25918  11.382   4.668   5.279 -0.1393 -0.1479 -0.0518
10302W        W25919   7.480   9.210   0.758  0.0070 -0.1261  0.1746
10303W        W25920   4.698   3.485   0.602 -0.0839  0.2570 -0.1733
10304W        W25921  17.153  10.538  13.870  0.0067  0.0086  0.4691
10305W        W25922  18.111   7.200  11.451 -0.2295 -0.0889 -0.0453
10306W        W25923  17.148  11.832  15.167 -0.1415 -0.0602  0.2524
10307W        W25924  13.869   5.780  11.298 -0.1860 -0.1049  0.2799
10308W        W25925   3.017   9.567  12.992 -0.1072 -0.4129  0.0411
10309W        W25926   1.546  12.693  15.087 -0.1478 -0.2696 -0.0805
10310W        W25927  18.148   6.203   4.352 -0.3026  0.3557 -0.0460
10311W        W25928  12.011  16.277   5.475  0.1756  0.1073  0.0913
10312W        W25929  15.486  14.395   4.344  0.1703  0.1041 -0.0910
10313W        W25930   5.180  10.939  13.773  0.1908  0.2059 -0.1523
10314W        W25931   4.406  14.343   0.926 -0.4322  0.0013  0.1064
10315W        W25932   8.807   2.438   1.853 -0.0202 -0.1613 -0.3203
10316W        W25933  11.010  16.356   3.814  0.2058  0.1512 -0.2784
10317W        W25934   5.863  12.068   3.674  0.1733  0.0112  0.2604
10318W        W25935  14.549   5.191  14.037  0.0248  0.0188 -0.5248
10319W        W25936   6.714  12.626  15.044 -0.2810  0.1116 -0.1774
10320W        W25937  17.451  17.316   1.466 -0.0276 -0.0424  0.1092
10321W        W25938  16.496  11.279  11.300 -0.1357  0.1572  0.1351
10322W        W25939   4.475  10.798   1.098  0.1221 -0.1682  0.2268
10323W        W25940  14.607  14.559   1.228  0.0498 -0.0324  0.0788
10324W        W25941  16.484   1.136  14.192 -0.0586  0.1152  0.1843
10325W        W25942  10.927  10.316   4.649 -0.0102 -0.1698  0.1065
10326W        W25943   0.935   6.545   3.631 -0.0208  0.2177 -0.1619
10327W        W25944  12.355   3.484   2.445  0.3257 -0.2636  0.3548
10328W        W25945   7.717  14.081   0.491 -0.2122  0.1416 -0.0119
10329W        W25946  11.721  16.153  12.332 -0.1805 -0.3985 -0.1842
10330W        W25947   1.120   0.870  12.553 -0.1676  0.1800 -0.2825
10331W        W25948  18.053  12.524   1.502  0.1368 -0.0204 -0.0913
10332W        W25949   5.724  17.465   3.875 -0.0856  0.1530  0.0617
10333W        W25950   6.023   5.163   2.199  0.0316 -0.0266 -0.1399
10334W        W25951   0.606   8.082  12.607 -0.1447  0.0650 -0.2313
10335W        W25952   6.208   0.541   0.036  0.2961 -0.3109 -0.0383
10336W        W25953  17.585  12.526   3.327  0.0701 -0.0285 -0.3353
10337W        W25954  16.999  14.679  13.539  0.1519  0.1501  0.6393
10338W        W25955   7.530   7.076  12.833  0.0933  0.3243  0.1998
10339W        W25956  12.620  15.167   3.157  0.1030 -0.1055 -0.2744
10340W        W25957  13.039  15.126  14.932 -0.2975 -0.1498  0.1101
10341W        W25958  15.318   7.622   4.976  0.1458  0.0505 -0.0772
10342W        W25959   3.785   5.395   5.822 -0.3884  0.3895  0.0737
10343W        W25960  13.374   0.419  11.424  0.1999  0.1110  0.0405
10344W        W25961   9.331  14.827  13.197 -0.0247  0.0604 -0.2614
10345W        W25962  10.745  12.548  10.548 -0.3244  0.1006 -0.2878
10346W        W25963   6.483  12.788  11.237  0.2055 -0.1705 -0.1415
10347W        W25964   9.694   8.623  13.342  0.0503 -0.0140  0.1383
10348W        W25965   9.948  17.073  13.302  0.2194  0.0471 -0.1140
10349W        W25966   7.403   5.502  12.229 -0.0014  0.5234 -0.1581
10350W        W25967  14.474   5.279  14.516  0.1312  0.2676 -0.2810
10351W        W25968   2.403   4.621  14.781 -0.1601 -0.1505 -0.1305
10352W        W25969   5.837  15.863  12.261 -0.0477  0.1149  0.0737
10353W        W25970   3.098   4.483  13.588  0.3621 -0.2342  0.1698
10354W        W25971  15.782   4.333  15.090  0.3017  0.0776 -0.0043
10355W        W25972   9.561  11.642  10.763  0.0702 -0.1159 -0.1625
10356W        W25973   3.390   8.540  14.576  0.0084  0.1760  0.1819
10357W        W25974   7.334   9.796  15.175 -0.1328 -0.1161 -0.1304
10358W        W25975  10.826  12.166  12.269  0.0884 -0.1368  0.0285
10359W        W25976   9.161  16.333   9.823  0.1501 -0.0475  0.0752
10360W        W25977   9.708   3.026   3.985  0.0299 -0.4260 -0.4734
10361W        W25978  17.670  10.380  15.363 -0.3629  0.0617  0.0440
10362W        W25979   4.383  18.224  15.239  0.0446  0.0742 -0.1448
10363W        W25980  12.867  17.642  11.464  0.2332 -0.2497  0.2782
10364W        W25981  15.164  15.283   2.204  0.1072 -0.5149 -0.0919
10365W        W25982   9.639   0.068  13.963 -0.1210 -0.1136  0.0949
10366W        W25983  14.847  11.315  12.548  0.1423  0.0221  0.5406
10367W        W25984  13.167  13.460   2.622  0.3021 -0.1078 -0.0651
10368W        W25985   6.052   8.148  12.707 -0.2318 -0.1318 -0.2158
10369W        W25986  14.957   4.780   0.522  0.0847 -0.1262 -0.1170
10370W        W25987   7.143   8.466  11.960 -0.0648  0.1317  0.1283
10371W        W25988   1.779   4.823   5.021 -0.0463  0.3433 -0.1538
10372W        W25989   1.696   0.551   2.894 -0.1849 -0.2428  0.1230
10373W        W25990   2.850   2.218  13.581  0.2499 -0.0479 -0.1787
10374W        W25991  17.966   8.737   3.645  0.0595  0.0928 -0.0167
10375W        W25992  11.629   1.269  14.372 -0.2758  0.1602 -0.1778
10376W        W25993   7.779   8.961   0.155 -0.0297  0.1672  0.1598
10377W        W25994   4.750  12.445   3.896  0.2864 -0.1881 -0.1639
10378W        W25995  13.927   0.893   6.012 -0.1024  0.0727 -0.0610
10379W        W25996  14.504   7.299   2.332 -0.3491  0.1490  0.0288
10380W        W25997   6.611  18.164   3.236  0.0385 -0.0178 -0.2854
10381W        W25998   3.704   4.218  11.993 -0.1355  0.2201  0.3099
10382W        W25999   7.562  10.463   0.413 -0.0139 -0.0773 -0.0891
10383W        W26000   3.964  16.467   3.602 -0.2242  0.0284  0.0191
10384W        W26001  11.461   4.662  15.431 -0.0116 -0.0722 -0.2828
10385W        W26002  16.058   8.925  14.821  0.2501 -0.0832  0.2633
10386W        W26003  10.237  11.868  14.402  0.0582  0.2562 -0.0215
10387W        W26004  11.225   5.656   4.154  0.0472  0.0515  0.0643
10388W        W26005  18.046  14.580  14.992 -0.1938 -0.1155 -0.2353
10389W        W26006   4.457  11.917  13.851  0.1231  0.0953  0.2739
10390W        W26007  17.330  11.612  12.950 -0.0704  0.2984  0.0166
10391W        W26008   2.136   3.764  14.338 -0.0350 -0.2331 -0.1911
10392W        W26009  12.543   1.731   2.720 -0.2750  0.0553 -0.1768
10393W        W26010   8.768  14.540  13.281 -0.0484  0.2026  0.1916
10394W        W26011   3.744   8.939  10.242 -0.1623  0.1336 -0.2586
10395W        W26012  11.376   8.543  11.454  0.2153 -0.0830 -0.2269
10396W        W26013   1.030  11.588   3.103 -0.2296 -0.0670 -0.1876
10397W        W26014   6.068  14.644   1.549  0.2068 -0.2947 -0.2196
10398W        W26015   4.019   7.714  11.017 -0.0860 -0.2728  0.3164
10399W        W26016   2.139  13.352  13.955 -0.0717  0.1271  0.1091
10400W        W26017   8.509   2.384   3.325 -0.2405  0.2778  0.0438
10401W        W26018  18.410   4.507   3.693 -0.1175 -0.0660 -0.1111
10402W        W26019  12.909  10.596  15.189  0.4352  0.1174  0.1006
10403W        W26020   0.903  10.731   5.693  0.0321  0.3065 -0.2143
10404W        W26021   9.682   4.948  11.980 -0.1525 -0.1327  0.0440
10405W        W26022  17.707  15.380  13.482  0.2238 -0.2875 -0.1955
10406W        W26023  10.529  17.808  13.876  0.3367  0.1647  0.1395
10407W        W26024  15.148   2.632  15.360 -0.2930 -0.0096  0.0550
10408W        W26025  11.569  11.568   2.278 -0.1430  0.2551 -0.1264
10409W        W26026  14.389  12.928   0.092  0.0367  0.3377  0.0509
10410W        W26027  13.800   2.784  12.585  0.2206  0.0039 -0.0346
10411W        W26028  16.958   6.596  10.565 -0.1105  0.1337 -0.0017
10412W        W26029   7.009   9.683  12.820 -0.2766 -0.1279  0.0741
10413W        W26030  15.861   3.917  13.272 -0.2772  0.4858 -0.0413
10414W        W26031   9.989  18.469  12.992 -0.3141 -0.2914 -0.1859
10415W        W26032   2.674   0.980   2.891 -0.2171  0.1521  0.3115
10416W        W26033  17.196   7.162   1.692 -0.0922 -0.0191 -0.5128
10417W        W26034   7.979  12.036   1.033  0.0101  0.2263 -0.0833
10418W        W26035   4.063  13.867  12.632 -0.3342 -0.0128  0.0754
10419W        W26036  14.561   7.700  11.415 -0.2792  0.0342  0.0335
10420W        W26037   0.276  10.662   1.414 -0.1319  0.0209  0.2713
10421W        W26038   1.263  16.131  12.105  0.0339  0.2596  0.0005
10422W        W26039   7.771   3.949  14.108 -0.1345  0.1840 -0.0804
10423W        W26040  13.784  13.798  15.403 -0.1954 -0.1702 -0.2903
10424W        W26041   5.346   5.035  15.752  0.1359 -0.1025  0.0932
10425W        W26042   9.484  13.898   2.391  0.0459  0.1171 -0.1360
10426W        W26043  17.860   6.221   9.582 -0.2069  0.2904  0.2154
10427W        W26044   7.359   8.029  11.779  0.0167 -0.1997 -0.0191
10428W        W26045  17.315   0.376  11.483  0.0115 -0.0793  0.1587
10429W        W26046   4.108  12.177  12.604 -0.1889 -0.3186  0.0042
10430W        W26047  11.583   6.066   5.826  0.0733 -0.0671  0.3934
10431W        W26048   8.579  10.071  12.439 -0.0716  0.0344  0.1963
10432W        W26049  18.650   0.407   5.398  0.0914 -0.1500  0.1709
10433W        W26050  16.163   3.671  11.974  0.1136  0.1524 -0.1180
10434W        W26051   6.529   0.779   3.955  0.2682 -0.1529  0.0074
10435W        W26052  12.390  11.617  11.599  0.3713 -0.0831  0.0061
10436W        W26053  10.405   3.777  13.322  0.4891 -0.2222 -0.0294
10437W        W26054   4.592  14.665   3.394  0.0107  0.0287  0.1629
10438W        W26055   4.147  15.061  13.816 -0.0294  0.0514  0.0515
10439W        W26056  17.986   3.894  11.675  0.1474  0.0610 -0.1342
10440W        W26057  11.332   1.479  11.759  0.2150  0.2071 -0.0659
10441W        W26058   6.553   2.216   2.636  0.0174  0.1963 -0.0528
10442W        W26059   6.773  18.127  12.793  0.3207  0.2693  0.1165
10443W        W26060   3.486   7.973   4.298  0.1459 -0.0705  0.1092
10444W        W26061   6.154   4.178   2.258  0.3482  0.0209 -0.2397
10445W        W26062   9.707  12.287   2.981  0.0183 -0.2628  0.3244
10446W        W26063  11.208   0.383   2.481  0.2129 -0.1211 -0.0309
10447W        W26064   8.572  11.700   1.686 -0.0668 -0.0224 -0.1890
10448W        W26065   5.564   5.319   2.191  0.3793  0.1857 -0.3818
10449W        W26066  17.997   4.221   2.399 -0.1561  0.0990  0.1810
10450W        W26067  15.929  16.167  11.506  0.0126 -0.3336  0.2164
10451W        W26068  13.691   6.164  12.029  0.0103  0.1642 -0.1265
10452W        W26069  14.989   0.687  14.766 -0.0684  0.1263  0.1963
10453W        W26070  16.057  14.631  13.011  0.0611 -0.1748  0.1979
10454W        W26071   4.887  16.671  11.524 -0.0596  0.1149  0.0884
10455W        W26072   4.227   2.663   5.798  0.1100  0.2495  0.2023
10456W        W26073   6.982   5.230   5.436 -0.1757 -0.1831  0.3299
10457W        W26074   4.608  17.551  11.097 -0.1547 -0.2116 -0.1377
10458W        W26075   4.743   0.291  12.446  0.1808 -0.1998 -0.0702
10459W        W26076   1.737   4.968  13.727  0.1670 -0.0339 -0.0859
10460W        W26077  18.540  10.679  10.043  0.0551  0.1696  0.2136
10461W        W26078   4.817  12.447  14.118 -0.0440 -0.1048  0.0594
10462W        W26079   0.049   1.605   4.855  0.1974  0.1796 -0.1455
10463W        W26080  14.404   1.035   3.293 -0.0613 -0.1972 -0.2923
10464W        W26081  17.969   7.937  14.314 -0.4657  0.0712 -0.2400
10465W        W26082   0.464   8.318  14.080  0.0581  0.0801  0.1621
10466W        W26083   3.092  11.451  13.783  0.0906  0.0205 -0.1686
10467W        W26084  11.140  15.052  11.309 -0.0386  0.2598 -0.2585
10468W        W26085  14.283   1.228   0.103 -0.0546  0.0822  0.1569
10469W        W26086   8.936  10.037   3.401 -0.2593 -0.0834  0.1786
10470W        W26087  10.369  12.393  12.581 -0.1394 -0.2466  0.0922
10471W        W26088   6.693   6.406   0.478  0.0222 -0.3606  0.0128
10472W        W26089   8.685  15.677  10.832  0.4016  0.3297 -0.0662
10473W        W26090   4.079   4.592  12.039 -0.2433  0.0686  0.1335
10474W        W26091   7.928  15.120   4.925  0.1628  0.1699  0.4606
10475W        W26092   7.944   8.883  11.064  0.2726  0.1646  0.2610
10476W        W26093  15.732  10.276  11.436 -0.0512  0.0575 -0.2947
10477W        W26094  12.238   1.027   4.441 -0.0440  0.2735  0.0514
10478W        W26095  17.526  11.810   1.070 -0.0692 -0.0716 -0.4376
10479W        W26096  17.371  10.047   4.924  0.3972 -0.3892 -0.0724
10480W        W26097  16.123  12.084   5.191  0.0298 -0.3227 -0.3303
10481W        W26098  13.538  16.593  11.944  0.2018  0.2722  0.1651
10482W        W26099   6.310  17.771  10.772 -0.2683 -0.3602 -0.0093
10483W        W26100   6.343  13.911  13.224 -0.0306  0.1975  0.0688
10484W        W26101   9.671   6.745   3.162 -0.0152 -0.3065 -0.1600
10485W        W26102   1.108   1.591   6.104 -0.2653 -0.3393  0.4124
10486W        W26103  17.639  16.747   2.401  0.1793  0.2748 -0.3014
10487W        W26104   5.352   3.432   3.725 -0.4417 -0.1452 -0.0462
10488W        W26105  16.810   9.539   3.776 -0.0487 -0.2220  0.1214
10489W        W26106   7.039  13.475   5.325  0.3552 -0.0766 -0.1026
10490W        W26107   6.895  13.750  14.708 -0.3237  0.0690 -0.1256
10491W        W26108   1.338   7.191   4.566 -0.3529  0.1198 -0.0488
10492W        W26109   3.902   0.909  11.551 -0.0719 -0.0819 -0.0242
10493W        W26110   1.630   2.699  12.383 -0.0569 -0.1504  0.1848
10494W        W26111   8.015  13.287  12.919 -0.1237  0.1589 -0.2324
10495W        W26112   1.984   9.963   4.361  0.2084  0.1321  0.1857
10496W        W26113   2.662   2.373  14.611 -0.1959  0.4485 -0.1858
10497W        W26114  15.271  10.044   2.632  0.1143  0.2120  0.1642
10498W        W26115   5.775  10.792  15.502  0.0245  0.0259  0.0793
10499W        W26116  16.244  15.821   2.774 -0.1481 -0.0751  0.0358
10500W        W26117   9.038   3.374  13.103  0.0348 -0.2407 -0.0006
10501W        W26118  17.225   6.609   3.433 -0.0477 -0.1733  0.4395
10502W        W26119   3.362  14.690  12.811  0.2866 -0.0274  0.2546
10503W        W26120   3.824   8.054   0.684 -0.3426 -0.1729  0.0126
10504W        W26121  13.094   0.127   5.108  0.0059  0.1209 -0.2618
10505W        W26122  17.248   8.927   0.522  0.0697 -0.4186  0.4513
10506W        W26123   2.706  12.233  12.496 -0.0547 -0.3183  0.0937
10507W        W26124   0.450  16.221  12.559 -0.1386  0.1860 -0.0609
10508W        W26125   9.607   8.257  14.184  0.3217  0.0092  0.0019
10509W        W26126   0.475   3.003  12.037  0.1295 -0.2257 -0.1463
10510W        W26127   2.717  10.626  12.185  0.0422  0.1054 -0.2429
10511W        W26128  13.682  14.598   2.106 -0.0387  0.0775  0.2071
10512W        W26129  16.393  14.694   2.329  0.4444 -0.3615  0.1612
10513W        W26130  15.699   6.739   2.503  0.0444  0.1738  0.3728
10514W        W26131  18.312   7.237  10.608 -0.0388  0.1125  0.1614
10515W        W26132  15.781  15.197  13.849 -0.0836 -0.2834 -0.0909
10516W        W26133   5.457  11.050   0.617 -0.2896  0.0424  0.1240
10517W        W26134   8.325  17.993   4.156  0.0149  0.1040  0.2107
10518W        W26135   7.268   0.979   1.526 -0.3383 -0.0242 -0.1639
10519W        W26136   0.757   1.692  12.328 -0.0822  0.0558 -0.1985
10520W        W26137   3.597  17.172  15.539  0.1264 -0.1250 -0.1325
10521W        W26138   7.687  18.455   4.658  0.0179 -0.3164 -0.3030
10522W        W26139  13.113  12.441   3.690  0.2773  0.2117 -0.5543
10523W        W26140   9.253   9.956  15.709 -0.1050 -0.1971  0.2642
10524W        W26141  17.236   5.389   1.142 -0.2905 -0.0868 -0.0220
10525W        W26142   4.974  14.903  13.128  0.2481  0.1337  0.1584
10526W        W26143  16.806   0.283   0.501  0.1124  0.0556  0.0879
10527W        W26144   4.699   9.113   1.980 -0.0196 -0.2184 -0.1458
10528W        W26145  17.542  14.462   2.102  0.2107 -0.2452 -0.1472
10529W        W26146  18.245   1.888  12.623 -0.1933 -0.0224  0.1779
10530W        W26147   2.184   3.843   3.954  0.0779 -0.0593  0.0083
10531W        W26148   7.981   6.105   3.842  0.1836 -0.1327 -0.1847
10532W        W26149  11.718   9.221   3.948 -0.3174 -0.0823  0.0989
10533W        W26150   4.510  10.101   0.381 -0.0614 -0.0720  0.0025
10534W        W26151  12.151   0.134   0.914  0.1131 -0.1507  0.0596
10535W        W26152   7.400  16.512  15.579  0.0245 -0.0387 -0.1702
10536W        W26153  16.944   0.278   4.111 -0.0311  0.1183  0.2598
10537W        W26154  16.395   2.919   5.350 -0.0178 -0.0062  0.0365
10538W        W26155  12.271   8.503  11.992  0.0623  0.3358  0.3076
10539W        W26156   8.408   1.848   4.448 -0.2244  0.0023  0.1442
10540W        W26157  12.584  16.788   1.460 -0.1204 -0.1290 -0.1564
10541W        W26158  13.031   5.260  13.997 -0.1848 -0.2670  0.0006
10542W        W26159  14.539   6.196   5.252 -0.0817 -0.0060 -0.1218
10543W        W26160  13.174  12.121   1.323  0.1040 -0.0212  0.0659
10544W        W26161   5.989   3.146  12.234  0.1458  0.0172 -0.0278
10545W        W26162   9.162  16.160   4.893  0.2970  0.2032 -0.3577
10546W        W26163   6.904  11.307   3.402  0.2349 -0.1385 -0.0349
10547W        W26164   5.074  10.197  13.042  0.0139  0.1060 -0.0213
10548W        W26165  14.752   9.008   3.947  0.0656  0.2157 -0.0160
10549W        W26166  18.381   0.507  13.968  0.1430 -0.1020  0.2273
10550W        W26167   6.068   5.606  13.092 -0.1858 -0.3087 -0.0269
10551W        W26168  18.424   4.089  14.097  0.0022  0.0064 -0.2304
10552W        W26169  12.482  15.764   5.207 -0.2250 -0.1740 -0.0772
10553W        W26170  16.775  16.001  12.018  0.1035 -0.1521 -0.3713
10554W        W26171  15.366  13.834  14.805  0.1517  0.0550 -0.4001
10555W        W26172  14.085   2.228   3.119 -0.3861 -0.1417  0.0674
10556W        W26173  15.440  10.663   0.285  0.0619 -0.0241 -0.1966
10557W        W26174   9.152   0.630  12.685 -0.0132 -0.0669 -0.1150
10558W        W26175  16.805   8.839  13.124 -0.1149  0.0951  0.1198
10559W        W26176  13.563   4.045   4.787  0.1324 -0.0922 -0.2235
10560W        W26177   5.183   2.160   5.601 -0.0533  0.2852  0.0339
10561W        W26178  11.438   3.820   3.260 -0.0088 -0.3483 -0.0933
10562W        W26179   6.510  17.165  12.600  0.0708  0.3032 -0.0243
10563W        W26180  11.933  13.616   3.064  0.1751  0.0454 -0.2332
10564W        W26181  13.981   2.113  14.797 -0.0509 -0.0951  0.4582
10565W        W26182   6.090   1.358   2.194  0.1472 -0.3070 -0.0366
10566W        W26183  12.380   2.721  15.285 -0.1580 -0.0402 -0.2253
10567W        W26184   6.114  10.391  14.664  0.1364  0.0035 -0.1620
10568W        W26185   7.269   8.618   0.237  0.1961 -0.0240  0.0228
10569W        W26186   3.047  17.598   4.992  0.1256 -0.0885  0.0213
10570W        W26187   2.142   7.299  14.143  0.2605 -0.1522 -0.1687
10571W        W26188  15.069   1.412  14.112 -0.1469  0.1948 -0.0010
10572W        W26189   1.291  13.098   4.416 -0.1415  0.0345 -0.1938
10573W        W26190  11.050   5.362   1.058 -0.1073 -0.2459 -0.1143
10574W        W26191  12.960  12.316   4.734 -0.4172 -0.0647  0.1369
10575W        W26192   6.390  17.519   2.737  0.3692  0.0164  0.3740
10576W        W26193   7.682   4.390   1.543 -0.1326 -0.1525  0.0028
10577W        W26194  17.895   7.794   1.677  0.1685 -0.0593 -0.3231
10578W        W26195  18.159  18.186  15.477 -0.3610 -0.1308  0.2633
10579W        W26196   2.888  15.058  14.719  0.0379  0.1812  0.0746
10580W        W26197   9.213  13.268  13.275 -0.2797  0.1423  0.0545
10581W        W26198  17.811   7.967   4.885 -0.3495  0.3545  0.3118
10582W        W26199  12.814   0.387   0.389 -0.0017  0.1223  0.2299
10583W        W26200   5.528   8.465   3.891  0.1287 -0.0891 -0.1493
10584W        W26201  10.351  15.212  11.002  0.1124  0.0319  0.4501
10585W        W26202   6.225   0.510  11.736  0.0891 -0.1955  0.0196
10586W        W26203   8.575  12.930  11.684  0.0537 -0.2007 -0.1490
10587W        W26204  15.855   6.647   3.309  0.3937  0.0660  0.0159
10588W        W26205  16.104   2.451  11.646  0.3287  0.1250 -0.0597
10589W        W26206   7.343   2.654  12.398  0.1008  0.0599  0.2073
10590W        W26207   7.678   1.187  13.183  0.3023  0.0356 -0.0082
10591W        W26208  17.513   2.945   3.389 -0.1491  0.1316  0.1066
10592W        W26209   9.279  17.909   0.230 -0.0714  0.0508 -0.1050
10593W        W26210  10.069   1.170   4.619  0.4693  0.2679 -0.1413
10594W        W26211  15.542   1.363  14.222 -0.1018  0.2264 -0.1494
10595W        W26212  11.970   0.602   4.467 -0.1913  0.0987  0.0553
10596W        W26213   7.102  11.215   0.270  0.2561  0.0644 -0.1418
10597W        W26214   5.440  12.229  12.183 -0.0324 -0.2179 -0.0522
10598W        W26215   5.158  10.186   2.742  0.2508 -0.2073 -0.1456
10599W        W26216   7.632   7.646   1.948  0.1454 -0.0072 -0.0310
10600W        W26217  16.977   7.481  12.498  0.3360  0.0258  0.1093
10601W        W26218   0.356   9.886  13.019 -0.0482 -0.0558  0.0903
10602W        W26219  12.239  10.429  14.449 -0.0181  0.2119 -0.0422
10603W        W26220   2.921   5.711   5.221 -0.1524 -0.0436  0.2498
10604W        W26221   1.134  14.940  10.797 -0.1343 -0.0086  0.3704
10605W        W26222   4.396   2.526   0.854  0.0773 -0.0979  0.1919
10606W        W26223  15.995   1.994   6.088 -0.1735  0.0498 -0.1226
10607W        W26224   6.690   3.910  11.512  0.1207  0.0840 -0.1959
10608W        W26225  16.797   5.916  14.311  0.1804  0.1740  0.1681
10609W        W26226  13.815   9.691  12.768 -0.1049  0.1378 -0.0492
10610W        W26227  11.210   2.440   5.655  0.0854  0.1839 -0.2904
10611W        W26228  18.269   0.618   4.080  0.2826  0.0138  0.0608
10612W        W26229   4.313   6.641   2.117  0.0478  0.0086  0.3746
10613W        W26230  13.035   4.095  14.069  0.2907 -0.2644  0.0546
10614W        W26231  11.890   9.741   3.667  0.1684  0.0321 -0.2645
10615W        W26232  13.504  10.830   4.074  0.2962 -0.3622  0.1007
10616W        W26233   9.043  15.194  14.630 -0.0980 -0.3407  0.2428
10617W        W26234   2.092  15.784  11.604  0.0762  0.0377 -0.3202
10618W        W26235  14.298   5.382   0.912  0.0336  0.0811  0.0521
10619W        W26236  12.305   7.197   1.951 -0.1737  0.2113  0.0020
10620W        W26237   0.056   8.075   2.859 -0.1207  0.1236 -0.0339
10621W        W26238   4.997  14.591  12.433  0.2168  0.2601 -0.0922
10622W        W26239   2.599   4.860  14.153  0.0942 -0.1092  0.0750
10623W        W26240  13.890  18.111   1.154  0.1797 -0.2666 -0.1470
10624W        W26241   7.374   1.298  15.564  0.1423  0.1862 -0.1752
10625W        W26242  12.581   9.314  10.938 -0.4051 -0.1399  0.2763
10626W        W26243  12.946   1.021  12.428 -0.4334 -0.0979  0.1754
10627W        W26244   8.848   9.200   4.919  0.1945  0.3901  0.0263
10628W        W26245  14.613   3.673   2.494 -0.0307 -0.0787 -0.0313
10629W        W26246  13.122  11.459  11.476 -0.3144  0.2441 -0.0976
10630W        W26247  16.799   4.197  13.790  0.0428  0.1226 -0.0290
10631W        W26248   7.396   6.799  14.447 -0.1742 -0.1797 -0.0743
10632W        W26249  10.559   3.595   3.862 -0.2147 -0.2748 -0.0129
10633W        W26250   4.221  15.131  11.189 -0.3986  0.1217  0.1041
10634W        W26251   5.362  16.237   3.085  0.0663 -0.1673 -0.1208
10635W        W26252  10.692  14.879  13.967  0.2854  0.2700  0.0070
10636W        W26253   6.427  11.731   1.095 -0.0219 -0.1050  0.2287
10637W        W26254   1.425   5.250   4.936  0.0804  0.0856  0.0329
10638W        W26255  11.968   8.114  12.553  0.1340 -0.0266  0.1017
10639W        W26256  13.805  15.032  14.172  0.1077 -0.1135 -0.1143
10640W        W26257   0.972   2.709   2.069  0.0240  0.1851  0.3325
10641W        W26258  12.432   2.149  10.448  0.0255  0.1635 -0.0252
10642W        W26259  18.384   2.780   1.961  0.2163 -0.0753 -0.1876
10643W        W26260  18.419   9.763  12.851 -0.0449 -0.1811 -0.3152
10644W        W26261  11.021   0.276   1.746  0.2622  0.2015  0.0388
10645W        W26262  12.889  15.063   3.667  0.0988 -0.2734 -0.0344
10646W        W26263  11.466  18.085  14.199  0.0993 -0.2027  0.0285
10647W        W26264   9.413   8.031  15.658  0.2732  0.0971  0.2990
10648W        W26265  18.571   1.982   0.953 -0.1494 -0.1424 -0.2158
10649W        W26266   3.437   7.889  12.349  0.0487 -0.2086 -0.2278
10650W        W26267  18.489   7.936  10.981 -0.0553  0.1113 -0.0577
10651W        W26268   9.837   8.308  11.672 -0.1451  0.0795  0.0023
10652W        W26269  12.555  10.953  14.353 -0.0252 -0.2182 -0.2319
10653W        W26270   0.872  10.505  13.925 -0.0146 -0.0088  0.0868
10654W        W26271  10.384   6.305   0.757  0.0415  0.1328  0.2559
10655W        W26272   6.502  17.831  11.728  0.0194  0.0351 -0.4572
10656W        W26273   0.663   7.815  14.718 -0.3541 -0.0812 -0.0565
10657W        W26274  11.042  11.022   3.632  0.2268 -0.0686  0.2203
10658W        W26275  15.812   5.701  14.502  0.1093  0.0870  0.0166
10659W        W26276  11.163   7.418  14.064 -0.5420 -0.0619  0.0605
10660W        W26277   9.193  14.249  14.485  0.2375 -0.2649  0.1898
10661W        W26278  14.408  14.262  14.029 -0.0236  0.2303  0.1838
10662W        W26279  12.139   1.563  12.169 -0.2062  0.0588 -0.2792
10663W        W26280  18.332   2.096   4.892 -0.1464 -0.1030  0.0184
10664W        W26281   7.624  15.168   4.512 -0.0072  0.4251  0.2664
10665W        W26282  16.363  15.341  11.784  0.3144  0.0167  0.1249
10666W        W26283   3.086   5.990   1.130  0.0996  0.0857 -0.0783
10667W        W26284  12.130  15.322   1.118 -0.0459 -0.0793 -0.0144
10668W        W26285  15.746  11.335   1.841  0.0451  0.0132  0.1074
10669W        W26286  16.127  11.838  11.478 -0.0766 -0.0299  0.0146
10670W        W26287   8.290   0.958  10.616  0.0441 -0.0286 -0.3504
10671W        W26288   8.835   0.547  11.803 -0.0301  0.1036  0.0041
10672W        W26289   7.878   4.856   0.229  0.1236  0.3882 -0.1815
10673W        W26290  10.150   9.859   3.446 -0.2810  0.3972  0.1787
10674W        W26291   2.754  11.285  15.355 -0.1055 -0.0597  0.0484
10675W        W26292  16.678   3.419   5.353 -0.0186  0.1947  0.0069
10676W        W26293  13.620   4.831   1.612  0.1140 -0.0138  0.2668
10677W        W26294   2.489  13.564   1.031 -0.1023  0.0412  0.0076
10678W        W26295   5.673  12.573  12.506  0.0082 -0.2572  0.0087
10679W        W26296   2.779  18.189   1.938 -0.0073  0.0904 -0.1086
10680W        W26297   0.769   0.126   5.745  0.0060  0.3036  0.1943
10681W        W26298  10.584  13.746  12.741 -0.2352 -0.0425  0.0749
10682W        W26299   5.020   6.504  12.185 -0.3233 -0.0668  0.1375
10683W        W26300  15.446  15.980   3.436  0.1865 -0.0882  0.0663
10684W        W26301  13.610   6.891   2.552  0.1506  0.1540 -0.0859
10685W        W26302  17.820   8.995  14.313 -0.1522 -0.1881 -0.1285
10686W        W26303  15.263  16.403  13.489 -0.1237  0.2024  0.1882
10687W        W26304  10.231   0.059   2.927  0.1923 -0.0392  0.2705
10688W        W26305  10.905   3.883   0.021 -0.2161 -0.0781 -0.0198
10689W        W26306  17.020  11.790   1.052  0.0282  0.0751 -0.1613
10690W        W26307  14.948  13.390  15.332  0.1760  0.1613 -0.0238
10691W        W26308  15.237  13.021  12.932 -0.3163 -0.2046  0.0568
10692W        W26309   9.237  17.821  14.774  0.1208  0.0265  0.0350
10693W        W26310   8.690   3.122   0.266 -0.1768  0.0114  0.0918
10694W        W26311   0.984   7.895  11.238  0.1315 -0.0313 -0.0850
10695W        W26312  12.457  10.528   4.738  0.4066  0.1131 -0.0495
10696W        W26313   3.266  15.786  10.949  0.2047  0.0714 -0.0579
10697W        W26314  11.986   6.672   3.550  0.1016  0.0101  0.2973
10698W        W26315   9.024   9.536   5.991  0.1442 -0.0166  0.1257
10699W        W26316   2.687  16.502   1.367 -0.4013 -0.1391 -0.0635
10700W        W26317   8.856  10.523   2.609 -0.2384  0.1459 -0.0286
10701W        W26318   3.629  18.020   4.480  0.1610 -0.2899  0.0024
10702W        W26319   0.143   8.452   3.178 -0.0288  0.6443 -0.3117
10703W        W26320   1.883   0.290   1.992 -0.0728 -0.3615  0.1394
10704W        W26321  13.033   3.103   1.324 -0.0024  0.2358  0.3266
10705W        W26322   3.966   9.400   4.122  0.1168 -0.2512  0.0210
10706W        W26323   1.176  10.699   4.489 -0.1237  0.0998  0.0567
10707W        W26324   4.930   8.115   2.066  0.1870  0.0162 -0.4510
10708W        W26325   8.449   8.764  10.988 -0.1685  0.0880 -0.1441
10709W        W26326  13.770  17.646  12.887  0.2647 -0.0207  0.0666
10710W        W26327   8.469   3.708   4.329 -0.3108 -0.0166 -0.0398
10711W        W26328   5.046  15.889   3.087  0.0357  0.1284  0.0778
10712W        W26329   8.535  16.827  12.048  0.0969  0.0700 -0.2452
10713W        W26330  15.389  17.000  14.938  0.1169  0.0118 -0.0322
10714W        W26331  13.863  16.544   1.338 -0.1472 -0.0112  0.0181
10715W        W26332   8.718  14.538   2.886  0.3251 -0.0060 -0.2522
10716W        W26333   4.470  18.032  10.938 -0.0932  0.0870  0.1802
10717W        W26334   1.740  14.776   0.657  0.0937 -0.0736  0.0737
10718W        W26335   5.272   5.404   2.621 -0.1499 -0.1344  0.1114
10719W        W26336  13.217   9.424  15.536  0.0574  0.3064 -0.4320
10720W        W26337   3.311  17.719   3.304 -0.1193 -0.0211  0.1127
10721W        W26338   0.829   4.491   1.513  0.1851  0.2475 -0.0228
10722W        W26339   8.587   5.334   4.672 -0.1212  0.1999 -0.0723
10723W        W26340  11.070   4.768  14.939 -0.0447  0.3547 -0.2615
10724W        W26341  10.204  12.493  11.241  0.1003 -0.1299  0.3235
10725W        W26342   8.802   9.824  12.922 -0.0247 -0.4449  0.1012
10726W        W26343   7.171  13.347   1.872  0.2289 -0.1414 -0.0474
10727W        W26344   3.054  10.484   3.844  0.1134 -0.3396 -0.4497
10728W        W26345   6.151   5.798  11.648 -0.0091  0.1590  0.0423
10729W        W26346  14.061  15.291   2.788  0.3530  0.0555 -0.1363
10730W        W26347   5.944  12.929  15.269  0.2551  0.2716  0.0450
10731W        W26348   9.930   0.444  13.031  0.0391 -0.3505 -0.2809
10732W        W26349  16.456  11.173   5.358  0.2758 -0.0387 -0.0086
10733W        W26350  16.912  15.460   2.418 -0.0681 -0.1405 -0.0274
10734W        W26351   8.596   0.178  12.626 -0.3864  0.0726  0.0985
10735W        W26352  12.797   7.336   1.817 -0.1919 -0.0668  0.0183
10736W        W26353   8.089  13.357   3.115  0.2409  0.0226  0.1362
10737W        W26354  14.179  14.447  11.121  0.2951  0.1857 -0.0522
10738W        W26355  15.186  14.953  11.781  0.0870  0.0455  0.2597
10739W        W26356  14.283   5.462  15.006  0.0724  0.3097  0.0685
10740W        W26357  16.224   5.863  13.571  0.3749  0.0759  0.0237
10741W        W26358   0.560   3.727   3.236 -0.1408  0.0658 -0.1309
10742W        W26359   3.826   2.474   3.126 -0.2038 -0.4003 -0.2173
10743W        W26360   0.373   2.163  13.734  0.1930  0.2544 -0.0142
10744W        W26361  10.017  11.226  10.746  0.3400  0.5119  0.2541
10745W        W26362  17.748  12.365  13.069  0.0165  0.0146 -0.0797
10746W        W26363  13.437  13.370  13.812  0.2343  0.1593  0.0408
10747W        W26364  10.288  12.713   0.377  0.1114 -0.1205 -0.0657
10748W        W26365  11.116  14.762   3.663  0.0327 -0.1336 -0.1055
10749W        W26366   8.873   1.815  10.545  0.1247  0.1982 -0.1483
10750W        W26367   6.440  15.747   2.234  0.2911 -0.1599  0.2448
10751W        W26368   9.202  16.685  14.598  0.2708  0.4061  0.3763
10752W        W26369   9.680  13.356  14.630 -0.1726 -0.1587  0.2144
10753W        W26370  10.215  14.745  13.785 -0.1223  0.2872 -0.1687
10754W        W26371  14.461   0.653  14.794  0.1233 -0.2952  0.1026
10755W        W26372   0.798  13.143   5.092  0.0610 -0.0153 -0.1892
10756W        W26373  17.406   3.056  15.062  0.1104  0.1006 -0.2494
10757W        W26374   0.534   6.663  14.462  0.0007 -0.1493  0.0723
10758W        W26375   8.016  18.322  11.392  0.0950  0.0290  0.3069
10759W        W26376  13.653   5.203  15.532 -0.0157  0.0819  0.1059
10760W        W26377   6.648   6.785   5.640  0.3283  0.0626  0.1652
10761W        W26378   0.802   2.449  15.063 -0.3040  0.0094  0.0256
10762W        W26379  14.496   2.528   3.267 -0.0836  0.2289 -0.2625
10763W        W26380  17.190   3.687   1.258 -0.0262 -0.1712 -0.0576
10764W        W26381   9.368  17.026   4.765  0.2387  0.1068  0.0320
10765W        W26382   3.086   3.214  12.064  0.2174  0.2478  0.0492
10766W        W26383   9.756   6.479  14.516 -0.1302  0.0787  0.0778
10767W        W26384  12.858  15.975   3.883 -0.0519 -0.1682  0.0117
10768W        W26385   3.783   2.918   2.873 -0.1289 -0.1607  0.2685
10769W        W26386  10.749  16.957   3.067 -0.1243 -0.1700  0.0461
10770W        W26387   0.100   6.186  13.234 -0.3866  0.0599 -0.2052
10771W        W26388   4.290  17.924   4.911 -0.4682 -0.2288  0.1641
10772W        W26389   9.891   0.462  13.581 -0.0155  0.0640  0.0967
10773W        W26390   9.325  17.282  12.475 -0.1606  0.0909  0.1471
10774W        W26391   1.359   4.527   1.451  0.1783 -0.4602 -0.1655
10775W        W26392   5.770   9.535   4.657  0.1464 -0.2140  0.0634
10776W        W26393   6.567  12.685   4.119  0.0738  0.2660  0.1623
10777W        W26394   1.625  17.028  11.522 -0.1700  0.0855 -0.2053
10778W        W26395   5.689   3.451   2.819  0.0440  0.6387 -0.1474
10779W        W26396  14.655  11.395  11.308 -0.0362  0.1543 -0.0386
10780W        W26397  16.350  11.413  13.591  0.1810 -0.0856 -0.1795
10781W        W26398  15.120  13.445  11.570 -0.2220 -0.1273  0.1032
10782W        W26399   7.756   5.921   3.054  0.2898 -0.0040 -0.3117
10783W        W26400   6.282  17.406   4.482  0.0946 -0.3005  0.1016
10784W        W26401   1.593   1.975  11.748 -0.1465 -0.2532  0.0001
10785W        W26402   6.645   7.817   0.473  0.1135 -0.2021  0.1434
10786W        W26403   0.388   3.337  13.205  0.2603 -0.0317 -0.0017
10787W        W26404   6.614  16.171  10.746  0.2277 -0.1028  0.0467
10788W        W26405   7.374   6.885   4.785  0.1146 -0.0438 -0.1639
10789W        W26406   6.240   6.539  11.570 -0.1989  0.2022  0.0936
10790W        W26407  14.152   5.969  12.963  0.2961 -0.5176 -0.0720
10791W        W26408   9.336   2.987   5.347 -0.1179  0.3681  0.0473
10792W        W26409   0.343   1.428   0.503  0.0418  0.0171  0.0081
10793W        W26410   5.011  15.303  11.472  0.0094  0.3721  0.0424
10794W        W26411  15.861   9.968   2.416  0.0998  0.0988  0.2097
10795W        W26412   1.406   6.023   5.370 -0.1988  0.0374 -0.1570
10796W        W26413  18.481   8.350   4.451 -0.1482  0.1636  0.0846
10797W        W26414   5.675   1.520  12.774 -0.2478  0.1499  0.2827
10798W        W26415  11.977   8.205   1.011  0.1203 -0.3996  0.0357
10799W        W26416   2.165   2.982   4.519 -0.3418  0.2065 -0.0687
10800W        W26417   5.972   6.233   3.846 -0.2266  0.1784  0.1785
10801W        W26418   3.204  13.609   2.423 -0.0189 -0.0332  0.1627
10802W        W26419   7.473   0.646   0.566  0.1432 -0.0729  0.0529
10803W        W26420   0.440  13.538   4.423  0.2447  0.2308  0.0300
10804W        W26421  13.543   2.394  14.562  0.2090 -0.1287  0.2599
10805W        W26422   9.389   3.100  11.062  0.1991  0.2570 -0.1413
10806W        W26423   5.119   4.493   2.232 -0.1630  0.0106  0.0870
10807W        W26424  12.967   9.933   5.501  0.0549 -0.2179 -0.4263
10808W        W26425   3.811   8.896   0.314 -0.0488  0.1973  0.2384
10809W        W26426   9.630  15.974   0.362  0.0814  0.3703 -0.0695
10810W        W26427   6.098   9.856   4.788  0.3060 -0.0864  0.1397
10811W        W26428   4.553  10.752   4.566 -0.0250 -0.0752  0.1485
10812W        W26429   5.313  13.318  12.511 -0.1377 -0.0208 -0.1819
10813W        W26430  11.525   2.960   1.507  0.0732 -0.0952 -0.1672
10814W        W26431  10.192  15.285   4.004  0.1035  0.1894  0.1378
10815W        W26432  16.470  16.343   1.582 -0.2730  0.2978 -0.4924
10816W        W26433  16.253   7.565  13.727 -0.1267  0.1794  0.1365
10817W        W26434  15.229  16.354   4.466  0.2310  0.2214 -0.1704
10818W        W26435   6.894   3.176   0.359 -0.0195  0.4748 -0.3332
10819W        W26436  11.129   5.137   5.166 -0.2702  0.2512 -0.3178
10820W        W26437   0.846   7.337   1.745 -0.1912  0.0766  0.0007
10821W        W26438  17.742  14.984  14.274 -0.2522 -0.3306  0.0407
10822W        W26439   9.836  12.727  11.721 -0.1601 -0.0719  0.0313
10823W        W26440  14.841   6.237  10.105  0.0854  0.0117 -0.0732
10824W        W26441   0.852  14.445   3.296 -0.0983  0.1470 -0.0604
10825W        W26442  10.374  11.855   1.599 -0.2215 -0.0300  0.2091
10826W        W26443  17.412   9.860   0.724 -0.0366 -0.1547  0.0483
10827W        W26444   6.283   6.990  11.931 -0.1917 -0.1827  0.0402
10828W        W26445   6.669   1.642   5.007  0.2427  0.0384  0.1977
10829W        W26446   0.746  12.047   0.045 -0.2115  0.0484 -0.2175
10830W        W26447   6.491   5.716  14.407  0.2318  0.2774  0.0578
10831W        W26448  12.129   0.027  10.557  0.0217 -0.2211  0.1723
10832W        W26449   4.088   6.517   3.067 -0.1488 -0.1265 -0.1518
10833W        W26450  11.556   9.713   4.020 -0.0234  0.0029 -0.1406
10834W        W26451  12.357   8.333  15.652 -0.3471  0.2787  0.0316
10835W        W26452  13.679  10.845   1.191 -0.3871  0.0821 -0.2527
10836W        W26453   5.786   6.318  15.734  0.0472 -0.0602 -0.0746
10837W        W26454   8.257  14.809  14.173  0.6005 -0.1913  0.3524
10838W        W26455  17.765  13.142  14.085  0.1020 -0.1227  0.3979
10839W        W26456   9.301   7.511   2.369 -0.4052 -0.4096 -0.4130
10840W        W26457  16.306   8.133   3.354  0.2906 -0.1135 -0.0179
10841W        W26458   2.934  17.096  11.373  0.0289  0.0115 -0.2784
10842W        W26459   1.789   0.149  15.691  0.0556 -0.0226  0.0338
10843W        W26460   8.679  10.409   5.186  0.1003 -0.0266  0.1346
10844W        W26461   4.108   4.862   4.387  0.1712 -0.0319  0.2078
10845W        W26462   9.515  15.864   1.093  0.1370  0.0010  0.2343
10846W        W26463   1.023  10.027  14.232  0.1304 -0.2797  0.0124
10847W        W26464  15.075  17.564   2.599 -0.0584 -0.0662  0.1527
10848W        W26465  17.971   0.319  14.131 -0.0283  0.0121  0.0738
10849W        W26466   6.392  12.282  14.745  0.2148  0.0948  0.1489
10850W        W26467   2.532   0.581   2.482  0.0965  0.1802  0.1695
10851W        W26468   2.855   7.479  11.176  0.0836  0.1027 -0.2146
10852W        W26469   5.758   1.762  11.211 -0.4332 -0.3283 -0.1285
10853W        W26470  16.874   3.947  12.368  0.0396 -0.0170 -0.1870
10854W        W26471   7.427   8.874   2.607 -0.0712  0.1410  0.2415
10855W        W26472  16.374  11.574  10.676 -0.2714  0.1119  0.2249
10856W        W26473   0.764  14.292   4.393  0.0791  0.0374 -0.2894
10857W        W26474  11.450   2.208   4.382  0.1961 -0.2028  0.2195
10858W        W26475  11.099   6.730  11.490 -0.3869  0.1059  0.1448
10859W        W26476   3.208  10.262   2.302  0.1156  0.1833  0.1021
10860W        W26477   2.240   7.925  13.360 -0.2153 -0.1951 -0.2477
10861W        W26478  17.748  17.386   3.561 -0.1441 -0.0118 -0.2284
10862W        W26479   4.895  10.831  15.054 -0.3038 -0.1279  0.0800
10863W        W26480   5.280  14.188  14.525 -0.0967  0.1758  0.1137
10864W        W26481   4.628   8.019  14.872 -0.0940  0.2238 -0.0818
10865W        W26482  16.628   9.251  13.406 -0.0191 -0.1831  0.0841
10866W        W26483   7.876   6.996  13.169  0.0604  0.0197  0.0605
10867W        W26484  13.435  16.981  15.526 -0.2619  0.1117  0.1761
10868W        W26485   8.552   0.011   3.980  0.0748  0.0899 -0.1221
10869W        W26486   8.654  12.921  14.633  0.2339 -0.0569 -0.0278
10870W        W26487   2.343   5.700   2.220  0.1444  0.0421  0.1935
10871W        W26488   0.776  18.641  12.766 -0.1554  0.0586 -0.0214
10872W        W26489  13.150   2.156  11.166  0.1892  0.3736  0.0897
10873W        W26490   1.577   8.877  10.640 -0.1433  0.0369  0.0425
10874W        W26491  17.722  11.539  11.387 -0.1223  0.3743 -0.2900
10875W        W26492  11.454  16.797   1.087  0.0717 -0.1154  0.3319
10876W        W26493   5.690   0.099  14.376  0.3832 -0.1456  0.0926
10877W        W26494   3.814   3.174  14.072  0.0797  0.1887  0.1050
10878W        W26495   3.164   8.444   1.967 -0.0371  0.2299 -0.1252
10879W        W26496   3.887   6.741  13.668 -0.0376 -0.0408 -0.1548
10880W        W26497  12.347   0.477  11.813 -0.2390  0.2803 -0.3264
10881W        W26498  15.817  14.132  15.622 -0.1619  0.0778  0.2950
10882W        W26499  16.169   6.208   4.686 -0.4147 -0.1680 -0.2079
10883W        W26500   7.944   8.742   4.810 -0.2268 -0.0509 -0.0380
10884W        W26501  13.112   2.271   2.102 -0.0416  0.2595 -0.0195
10885W        W26502  15.548  14.601  15.096  0.0763 -0.0326  0.1715
10886W        W26503   1.570  15.186  10.643  0.0855 -0.0372 -0.0325
10887W        W26504   2.017  18.210  13.239  0.1276 -0.0900 -0.2124
10888W        W26505   4.799   4.237  14.899  0.0076  0.0871 -0.0229
10889W        W26506   0.855  11.069   4.753 -0.3044 -0.0655  0.2265
10890W        W26507  10.200  16.112   3.361  0.1543  0.1430 -0.3088
10891W        W26508   4.788  15.166   3.737 -0.5560 -0.1051 -0.1716
10892W        W26509  13.141  17.666   0.706  0.0910 -0.1852  0.0110
10893W        W26510   7.768   1.964   0.451 -0.2049 -0.0448  0.0534
10894W        W26511  17.263   2.948  14.097  0.1323 -0.0082 -0.0455
10895W        W26512   2.966   8.939   0.187  0.2098  0.2247 -0.0216
10896W        W26513   5.252  17.556   1.896 -0.1735  0.0454 -0.0680
10897W        W26514  11.671   6.852  12.187  0.3880 -0.2858  0.0095
10898W        W26515   9.147  16.875  12.267  0.0991  0.1462  0.1049
10899W        W26516   2.113   4.523   4.081  0.3637  0.1223  0.0877
10900W        W26517  12.879   4.669   5.330 -0.1210 -0.1447 -0.0443
10901W        W26518  17.482   0.529   3.009 -0.0421  0.0809 -0.2901
10902W        W26519  12.588   6.435  11.346 -0.0457  0.3884 -0.4237
10903W        W26520   5.676  17.979   2.442 -0.2842  0.4078  0.0886
10904W        W26521   4.813  15.404   4.292  0.1524 -0.0747 -0.1039
10905W        W26522  15.887   7.928  10.356 -0.4224 -0.0253 -0.0636
10906W        W26523   9.417   4.379   3.035 -0.1147  0.1693 -0.0975
10907W        W26524   7.701   1.597  12.916 -0.1368 -0.2980 -0.0469
10908W        W26525  15.298   4.162  15.170  0.3052 -0.1454  0.0787
10909W        W26526   3.643   0.668   4.686 -0.2530 -0.0982  0.1876
10910W        W26527   1.117   2.495  12.317 -0.2395 -0.0132 -0.1004
10911W        W26528   3.359   0.487   1.318 -0.1754  0.3228  0.4018
10912W        W26529   4.422  18.084   3.500 -0.2660  0.0348 -0.0111
10913W        W26530   3.151   2.614  10.213 -0.2279 -0.1981 -0.0325
10914W        W26531  17.522   3.569   2.760  0.3321 -0.0601 -0.4007
10915W        W26532   2.355  16.289  12.901  0.1848 -0.1691 -0.2458
10916W        W26533   7.992  18.605   2.215 -0.1591  0.0646  0.1706
10917W        W26534   1.423  18.394  14.541  0.1200 -0.1142  0.1988
10918W        W26535   6.822   0.301  12.442 -0.1436  0.2669  0.1072
10919W        W26536  11.569   1.752  12.833 -0.0995  0.0600  0.1764
10920W        W26537  12.231  13.544   3.461 -0.3980  0.0268 -0.0005
10921W        W26538  13.018  14.571  11.350  0.3936  0.3011  0.0958
10922W        W26539  15.333  10.343   1.796 -0.0099 -0.0589  0.2131
10923W        W26540   8.248  15.966  15.435  0.0995  0.5306 -0.0603
10924W        W26541  17.750  18.326   3.251  0.2392 -0.3212  0.1056
10925W        W26542  18.336  10.402   1.696  0.0605  0.4735 -0.1346
10926W        W26543  16.564   3.560  11.281  0.1233 -0.2073  0.1191
10927W        W26544   0.392  11.097   4.875 -0.4686 -0.1538  0.1139
10928W        W26545  13.933   9.660   4.014  0.0850  0.3812 -0.0366
10929W        W26546   4.725  14.514  12.899 -0.0673 -0.2979 -0.0145
10930W        W26547   6.981   1.961   2.621  0.2004  0.0624 -0.2597
10931W        W26548  15.865   9.475  12.370  0.0040 -0.0347  0.0343
10932W        W26549   3.975   0.661   3.886 -0.3004  0.2988  0.0633
10933W        W26550  10.474   1.869   3.646  0.2639 -0.2119  0.1663
10934W        W26551   6.536   0.786  14.762 -0.0484  0.0795 -0.0644
10935W        W26552  10.579  17.664   4.175  0.0167  0.0148  0.3852
10936W        W26553   4.949  10.228  10.588 -0.0839 -0.1752  0.1967
10937W        W26554  18.343   3.472   0.564 -0.3641  0.0439  0.0936
10938W        W26555   6.133   1.705   5.139 -0.0268  0.1674  0.1793
10939W        W26556  15.277  18.595   3.885 -0.1216  0.1687 -0.0126
10940W        W26557   4.394   7.497   3.853  0.0468  0.0125 -0.1104
10941W        W26558   8.770   4.530  13.895  0.2013 -0.0095  0.1288
10942W        W26559  11.839  16.070   1.533  0.1131  0.1947 -0.1038
10943W        W26560  13.075   7.130   1.368  0.0620  0.4157 -0.2622
10944W        W26561   0.193   7.667  11.331  0.3481  0.3646  0.2123
10945W        W26562   1.300  10.944  13.856  0.3376 -0.0966  0.0872
10946W        W26563   1.260   0.873   3.069  0.0496  0.3235  0.0422
10947W        W26564   4.656  15.734   2.361  0.0148  0.0809 -0.0298
10948W        W26565   2.034  17.286   1.816 -0.0686 -0.1628 -0.4197
10949W        W26566   2.742   4.403  12.436  0.3301  0.0408 -0.5576
10950W        W26567  15.141  13.254   0.344  0.0037  0.0694  0.2258
10951W        W26568   0.186  17.382   3.771  0.2790  0.1498 -0.2001
10952W        W26569  18.367  13.541   1.810 -0.1748 -0.0122  0.4781
10953W        W26570   6.134  15.598   2.587 -0.1189  0.1145  0.0309
10954W        W26571  18.641  12.885   0.845  0.1480 -0.1253  0.1373
10955W        W26572  17.376  13.670  13.769  0.1069  0.0932 -0.0087
10956W        W26573   1.662   4.926  14.247  0.1764 -0.2489 -0.0966
10957W        W26574  16.817   3.392   0.481  0.0235 -0.1974  0.1953
10958W        W26575  12.251   3.075   0.221 -0.2327  0.3073  0.0349
10959W        W26576   1.449  14.810   4.544  0.2590 -0.1070  0.2158
10960W        W26577  15.797  17.009   0.457 -0.3998 -0.0048 -0.2901
10961W        W26578   7.628  18.565  14.304 -0.1528  0.0800 -0.2175
10962W        W26579   3.976  13.680   3.935 -0.1609  0.0761 -0.3028
10963W        W26580   2.315   8.292  14.695  0.0942 -0.0003 -0.0188
10964W        W26581  16.807   9.849  12.780  0.3016 -0.2394  0.0083
10965W        W26582  13.392   3.795  12.346 -0.1897  0.2021  0.2173
10966W        W26583   1.743   4.120  12.149 -0.1124 -0.0517  0.1000
10967W        W26584   1.047  18.582   4.546  0.0855 -0.1521 -0.0834
10968W        W26585  15.649  17.843   3.755 -0.2122 -0.2659  0.0107
10969W        W26586   9.516   2.515  14.918 -0.3853 -0.1109  0.0375
10970W        W26587   6.685   4.142   2.310 -0.0768  0.1415 -0.1104
10971W        W26588  17.565  10.690   1.876  0.1909  0.2301  0.1615
10972W        W26589   2.783   3.520  13.692  0.1084  0.0364 -0.1990
10973W        W26590  12.613  12.036  12.963  0.4646 -0.0246 -0.2591
10974W        W26591   0.834  15.325   2.605  0.0479 -0.0672 -0.1040
10975W        W26592  14.862   9.678   5.162 -0.0368 -0.2228 -0.0419
10976W        W26593   6.687  16.450  12.353 -0.2427 -0.0686 -0.0482
10977W        W26594  14.526  14.533   3.898  0.1661  0.0551 -0.2054
10978W        W26595   1.630   2.827  13.842 -0.0259 -0.0690  0.0529
10979W        W26596  10.160  15.438  11.586 -0.1571 -0.0893 -0.1182
10980W        W26597  13.943  18.133  15.572 -0.1656  0.0629 -0.1072
10981W        W26598  17.064   2.919   0.649 -0.1901  0.1120  0.2463
10982W        W26599  12.138   7.457   2.350 -0.1209  0.1813 -0.3549
10983W        W26600   4.990  18.033   1.575  0.2182  0.1069  0.2256
10984W        W26601  13.723  12.898  10.546  0.0185  0.0841 -0.1195
10985W        W26602   3.498  17.686   0.575  0.0708 -0.2108 -0.0317
10986W        W26603   2.240  14.952   0.650  0.1817  0.1333  0.0462
10987W        W26604   9.918   6.208  11.435  0.0450  0.1591 -0.0953
10988W        W26605   2.944  16.507   2.266  0.2518 -0.0718  0.1877
10989W        W26606   3.169   9.679   0.091  0.2627  0.1683 -0.1936
10990W        W26607   4.996   3.742   3.744 -0.1290  0.0120 -0.1657
10991W        W26608  10.473  14.552   1.666  0.0475 -0.1215  0.1032
10992W        W26609  11.153  13.626   2.882 -0.3403  0.1682  0.3557
10993W        W26610  11.764   0.616   3.435  0.1813 -0.6241  0.2995
10994W        W26611  17.165  17.090  10.204  0.0039 -0.0121  0.1213
10995W        W26612  18.442   7.796   5.189  0.0906 -0.1595 -0.0179
10996W        W26613   5.942  15.257  13.345 -0.0841 -0.0644  0.2492
10997W        W26614   3.097   2.834   1.207  0.2187 -0.0042  0.1848
10998W        W26615  15.710  12.595  11.396 -0.2226 -0.1210  0.0128
10999W        W26616   6.080   8.844   2.475  0.2111  0.0802  0.4847
11000W        W26617  15.102  13.446   1.884  0.2465  0.0150 -0.0209
11001W        W26618  17.033   8.409   9.583 -0.1244 -0.2112 -0.0250
11002W        W26619  14.140  14.970  14.532  0.2912  0.1184 -0.0331
11003W        W26620   5.260   6.106  12.372  0.0596  0.1012 -0.0920
11004W        W26621   9.060  11.562   3.507 -0.0906  0.2026 -0.1753
11005W        W26622  18.123   9.268   2.742  0.2854  0.0071  0.3021
11006W        W26623   5.367   3.407   1.035  0.0358 -0.2093 -0.0045
11007W        W26624   4.192   5.021  11.613 -0.0485  0.2665 -0.0617
11008W        W26625   4.078  12.902   1.458  0.0591  0.0456 -0.0867
11009W        W26626  14.358  11.414   2.741 -0.0543 -0.1225  0.0504
11010W        W26627   0.166  12.965  11.793  0.0362 -0.0929  0.3919
11011W        W26628  14.944  15.020   5.277 -0.0745 -0.1028 -0.0674
11012W        W26629  13.389  12.860   3.598 -0.0210 -0.1151  0.0760
11013W        W26630   4.273  16.262   4.148 -0.0266 -0.0618 -0.2961
11014W        W26631  15.574   8.090   2.673 -0.0757  0.0661  0.0045
11015W        W26632   7.556  14.470   1.518 -0.2353 -0.0896  0.1717
11016W        W26633  16.116  15.068   2.022  0.0451 -0.2265 -0.3125
11017W        W26634   8.243  17.042   4.200  0.4122  0.2367 -0.0895
11018W        W26635  15.595  11.738   5.021  0.2688  0.0822  0.1096
11019W        W26636   7.396   9.772  12.314  0.1447  0.2550  0.0046
11020W        W26637  18.355   5.355  14.688  0.0226 -0.0096  0.3190
11021W        W26638  10.798   5.313   4.123 -0.0712 -0.4199 -0.0467
11022W        W26639  17.039  11.547  12.082 -0.1350  0.4619 -0.0302
11023W        W26640   8.635  17.223  15.174  0.3019 -0.0082 -0.0984
11024W        W26641  12.559   2.228  13.617 -0.0318  0.0649  0.1031
11025W        W26642  16.022   8.360   0.224 -0.0633 -0.0426  0.0972
11026W        W26643   2.243  16.708  14.008  0.1046  0.0196  0.2649
11027W        W26644  14.263   4.826   0.845  0.2137  0.0834  0.0763
11028W        W26645  17.664   2.895   4.395  0.2010 -0.2386 -0.1434
11029W        W26646   1.588   0.841  12.789 -0.2616  0.0007 -0.0192
11030W        W26647  17.984  14.040   5.430 -0.0452  0.4086 -0.3593
11031W        W26648   4.283  13.934  11.823  0.0546 -0.0555  0.0319
11032W        W26649  12.176  16.215  14.914 -0.2543 -0.3710 -0.1566
11033W        W26650  15.558  17.847   4.429 -0.0595 -0.2275 -0.0287
11034W        W26651   0.630  14.115   0.765 -0.1928  0.1857 -0.0250
11035W        W26652  17.274  14.383   2.671  0.1818  0.0745  0.3275
11036W        W26653   8.153   1.794   3.511 -0.4131 -0.0312 -0.0936
11037W        W26654  11.469   3.720  11.961 -0.0385 -0.0328  0.1485
11038W        W26655  10.834   7.323   4.260  0.2120 -0.0842 -0.1607
11039W        W26656   3.932  14.702  12.550 -0.0057  0.2666 -0.2311
11040W        W26657   9.805  13.623   3.707 -0.0189 -0.0500 -0.0814
11041W        W26658   1.701   2.335  14.083 -0.0679  0.1466 -0.3333
11042W        W26659   6.969  12.055   4.448 -0.3458 -0.0289 -0.0319
11043W        W26660  13.855   5.633   2.129 -0.3196  0.2474 -0.1493
11044W        W26661   4.712  12.123  15.421 -0.1669  0.1170  0.1125
11045W        W26662  14.730  10.647  13.447 -0.1539  0.2865 -0.0168
11046W        W26663   0.775  16.063   2.134 -0.0132  0.1979 -0.0165
11047W        W26664  11.504  16.611   4.270 -0.0289  0.2302  0.2280
11048W        W26665  11.982   3.718  13.159  0.0775  0.0840  0.0664
11049W        W26666   7.120  17.731   4.715  0.0125  0.1137  0.0584
11050W        W26667  16.040  12.106  12.683 -0.1327 -0.0304 -0.1578
11051W        W26668  13.952  12.332  14.417  0.2058 -0.1236 -0.1851
11052W        W26669   5.958  11.537   4.424 -0.2383  0.0682  0.0193
11053W        W26670   0.431   4.159   1.608  0.2366 -0.2471  0.3429
11054W        W26671   8.919  12.750   0.221 -0.0630 -0.3258  0.0338
11055W        W26672   5.669  15.481  10.744 -0.0439 -0.0728  0.2319
11056W        W26673  11.252  13.771   1.406 -0.0199  0.0785  0.0644
11057W        W26674   1.488   7.483   2.943  0.0511 -0.1328  0.0317
11058W        W26675   2.425   1.835  10.448 -0.1465 -0.0671 -0.0964
11059W        W26676  11.850  17.818   0.656 -0.0631  0.2577  0.1503
11060W        W26677  14.854  13.705  13.356  0.0896 -0.0099 -0.1908
11061W        W26678   0.140   7.554   3.318 -0.2963 -0.0522 -0.1360
11062W        W26679  11.928   3.804   0.637  0.1814 -0.0495  0.1608
11063W        W26680   5.507  15.219  10.329 -0.2613  0.0366  0.1861
11064W        W26681  18.504  18.218  11.338 -0.3616 -0.3568  0.1782
11065W        W26682   7.030  15.880   4.010  0.2382 -0.1569 -0.2743
11066W        W26683   6.030   0.266  14.919  0.0955 -0.1361  0.1067
11067W        W26684   0.596  16.197   2.589 -0.1850  0.1756 -0.4033
11068W        W26685  14.155   4.266  15.464 -0.0117 -0.2296 -0.0833
11069W        W26686   2.985  15.708  12.540  0.0971 -0.1556  0.0408
11070W        W26687  16.566  14.752   3.978 -0.0138 -0.1863 -0.0142
11071W        W26688   2.278   1.923   6.472  0.1783  0.1783 -0.1191
11072W        W26689  15.925   3.934   2.540  0.0449 -0.1129  0.4031
11073W        W26690   9.568  14.717   2.307  0.2029  0.2386  0.1853
11074W        W26691   9.470  13.459  15.087  0.0632 -0.2248 -0.3078
11075W        W26692   8.215   2.594  14.807  0.1699  0.0952 -0.2936
11076W        W26693   8.117   2.769   4.070 -0.1757  0.0985 -0.4025
11077W        W26694   2.952   6.759   2.087 -0.1751 -0.1607  0.0561
11078W        W26695   0.492   0.031   0.743 -0.2941 -0.3187  0.0395
11079W        W26696   4.711  11.954  14.304 -0.1279 -0.1569 -0.0376
11080W        W26697  11.311   0.267  12.213  0.2424  0.3260  0.0468
11081W        W26698   2.042   6.967   1.681  0.1915  0.1687 -0.0032
11082W        W26699   0.731  17.729   1.502 -0.1669 -0.3235 -0.0371
11083W        W26700  17.244  17.239   5.556  0.3471 -0.4301  0.1193
11084W        W26701  12.610   4.945   4.545  0.5687  0.6145 -0.3304
11085W        W26702   4.825  10.962   5.015  0.1939  0.0780 -0.0763
11086W        W26703   9.723  17.640   4.073 -0.1477 -0.2200 -0.3169
11087W        W26704   6.947   9.856   1.943 -0.2585  0.1949  0.3194
11088W        W26705   8.537   7.199  14.110 -0.2500  0.0508  0.1636
11089W        W26706   1.531  12.875   3.550  0.1786  0.2778  0.0687
11090W        W26707  13.896   6.639  12.270  0.2989 -0.0583 -0.2163
11091W        W26708   9.079  17.231   5.533  0.0868  0.0245 -0.0514
11092W        W26709   2.164  15.476  12.870 -0.0340  0.0918  0.0990
11093W        W26710  11.377  18.017  13.699  0.0930  0.0614 -0.0336
11094W        W26711  13.090  12.834   0.970  0.3549 -0.2352  0.4390
11095W        W26712  11.634   3.554  14.484 -0.0286 -0.0528  0.1030
11096W        W26713   4.871   6.322   4.057  0.0452 -0.0789 -0.0402
11097W        W26714  12.753   0.020  11.249 -0.2796  0.2460 -0.1994
11098W        W26715  10.657  10.588   2.792 -0.0888  0.2865  0.0362
11099W        W26716  10.627   9.716   3.701  0.1452  0.3350  0.0969
11100W        W26717  16.188   8.548  15.379  0.0651  0.1336 -0.2507
11101W        W26718  11.989   5.100  14.194  0.3099 -0.3387  0.1259
11102W        W26719  14.704   2.083  14.348 -0.1377  0.0277  0.1768
11103W        W26720   0.419  13.918   9.859  0.1483  0.0109  0.1748
11104W        W26721  17.611   9.604  12.294  0.2033  0.0178  0.0208
11105W        W26722   0.673  16.024   0.371  0.0457  0.0950  0.0041
11106W        W26723   3.695   8.489  14.167  0.0171  0.3185  0.1799
11107W        W26724  14.635   9.634   5.639  0.2971  0.0736 -0.1053
11108W        W26725  11.834  17.119   4.254 -0.2636 -0.0559  0.0397
11109W        W26726  18.646  14.690  14.335 -0.2614  0.0784  0.1582
11110W        W26727  10.986  15.162  12.171  0.0113  0.1763 -0.0611
11111W        W26728  18.614  17.213   2.039 -0.1134 -0.0378 -0.0042
11112W        W26729  11.037   2.076   2.687 -0.2415  0.3162 -0.0006
11113W        W26730  14.618   1.705   4.708 -0.0307 -0.0958  0.0277
11114W        W26731  11.220  12.728  10.697  0.2207  0.0536 -0.3631
11115W        W26732  13.142   1.225   5.306  0.1297 -0.0726  0.1026
11116W        W26733   1.429   2.633   1.915  0.0728  0.0887 -0.2018
11117W        W26734   2.052   7.111  13.672  0.1001  0.0506  0.2578
11118W        W26735   5.740  12.453  15.470 -0.1535  0.1699  0.1791
11119W        W26736   6.564   5.738   2.602 -0.2072 -0.2119 -0.0431
11120W        W26737   3.312  15.452   2.410  0.1684 -0.1030 -0.0727
11121W        W26738   9.179  18.078  10.977 -0.2893 -0.0214  0.0790
11122W        W26739   8.462  15.971   0.619  0.1995  0.0529 -0.2878
11123W        W26740  16.329   9.933   2.682 -0.2388 -0.1100 -0.1165
11124W        W26741  18.324   7.730   1.364  0.0631  0.2674 -0.3771
11125W        W26742  10.338   7.704  14.221 -0.0659  0.0482  0.2821
11126W        W26743  16.094  13.097   2.704 -0.0381  0.0164 -0.1409
11127W        W26744   9.332  10.718  11.555  0.0029 -0.0545 -0.1588
11128W        W26745   9.064   0.072   3.942 -0.2024 -0.0405 -0.4636
11129W        W26746  14.895   7.464   5.382 -0.3063  0.3178  0.0217
11130W        W26747   5.023  15.444   5.748  0.0082 -0.1516 -0.0496
11131W        W26748  12.519  17.665  13.704 -0.0092 -0.1623  0.1109
11132W        W26749   2.507   0.714   0.361  0.1739  0.1494 -0.1429
11133W        W26750   6.396  10.696  12.049  0.3849  0.1032 -0.2626
11134W        W26751   6.540  10.478  14.948 -0.2666 -0.3612  0.2424
11135W        W26752   7.337   0.027   4.937  0.0058  0.1413 -0.0638
11136W        W26753   1.669  10.954  14.456 -0.1209  0.1798 -0.0513
11137W        W26754  11.155   3.424   3.217  0.4221  0.1556 -0.0168
11138W        W26755  16.510   3.353  14.211 -0.1074  0.0038  0.2596
11139W        W26756   0.640  16.067  15.567  0.2214  0.0266 -0.2639
11140W        W26757  14.546  14.288  14.936  0.2773 -0.3804  0.0451
11141W        W26758   6.117   5.273   1.036  0.1021  0.1902 -0.0917
11142W        W26759  12.972  12.492  12.878  0.3143  0.1318 -0.0005
11143W        W26760   7.651   1.088  14.713  0.1783 -0.0294 -0.1607
11144W        W26761  12.820  11.681   3.274 -0.0981 -0.0521 -0.1625
11145W        W26762  15.028   9.589   2.870  0.0795  0.0753  0.0779
11146W        W26763   4.845  15.714  11.268  0.0704 -0.2286 -0.1979
11147W        W26764   7.650  10.882  13.737  0.1867 -0.0504 -0.0008
11148W        W26765   0.580  18.095   3.825  0.0726  0.2536 -0.2475
11149W        W26766   9.711  13.263  13.774 -0.2609  0.1050 -0.1929
11150W        W26767   1.585   9.703   1.106  0.0313 -0.2288  0.2704
11151W        W26768   2.609   2.437   5.104  0.2003 -0.0804 -0.0794
11152W        W26769  14.058   3.927   1.247 -0.1035  0.3148  0.3463
11153W        W26770   4.730   5.225   3.492  0.1643  0.1315 -0.4016
11154W        W26771   5.879  14.298   3.156 -0.1128  0.1134  0.2026
11155W        W26772   7.692  14.861  13.280 -0.0836  0.0981 -0.4725
11156W        W26773  15.022  13.035   2.186 -0.0001  0.1017  0.2688
11157W        W26774  12.788   8.626  11.654 -0.0792  0.1182 -0.1445
11158W        W26775  13.134  17.499  12.024 -0.2231  0.0366 -0.1194
11159W        W26776   4.363   0.679  11.753 -0.1173  0.3070 -0.0266
11160W        W26777  13.345  11.506   4.399 -0.1630 -0.1957  0.1573
11161W        W26778  10.740   0.105  15.565  0.1396 -0.4602 -0.0427
11162W        W26779  13.979   3.141  15.008  0.0246 -0.0375 -0.0413
11163W        W26780   3.938  18.412   2.693  0.0304  0.0068 -0.2376
11164W        W26781  16.680   9.210   2.279  0.3408  0.0501 -0.1616
11165W        W26782  14.269   3.686   2.863  0.0510 -0.2678  0.0548
11166W        W26783  16.845   6.454  15.299  0.2298 -0.0874  0.1120
11167W        W26784  14.793   9.600  12.224 -0.1011 -0.2288  0.0515
11168W        W26785  15.321  13.972  13.256  0.1793  0.1126 -0.0320
11169W        W26786  17.364  11.929  11.262  0.3804  0.0427 -0.1621
11170W        W26787   4.994   8.525  11.242 -0.0127  0.0314  0.0514
11171W        W26788   1.016   9.332  15.620 -0.1233  0.2324 -0.1173
11172W        W26789   8.188  15.206   1.934 -0.1335 -0.2228  0.3037
11173W        W26790   8.614   6.909   2.760  0.1298 -0.2746  0.0587
11174W        W26791  15.003  12.206   0.203  0.3283  0.2101  0.0214
11175W        W26792  15.395  12.599  14.706 -0.1497  0.2278 -0.0600
11176W        W26793  17.749   8.090  10.180 -0.1586 -0.0265 -0.1401
11177W        W26794  16.913  12.692   0.329  0.1950 -0.0278 -0.2150
11178W        W26795  12.602  18.192   4.899  0.4165  0.0522  0.0904
11179W        W26796   2.380   7.439  13.672  0.1401 -0.0920 -0.0362
11180W        W26797   1.088  10.625  13.401  0.0236 -0.0884 -0.3136
11181W        W26798   8.603   7.932   2.754  0.1489  0.0806 -0.0218
11182W        W26799   9.393   0.880   5.917 -0.1473 -0.1857  0.3623
11183W        W26800   9.156   9.988  14.589 -0.3219 -0.0754  0.1747
11184W        W26801  16.000   7.789  13.367  0.1164 -0.2828 -0.0414
11185W        W26802  14.446  12.708  11.606  0.1136  0.0458  0.2022
11186W        W26803  14.020  12.551  11.852  0.1104 -0.1121 -0.0798
11187W        W26804   8.644   8.020  12.487 -0.0806  0.1805  0.1613
11188W        W26805   0.429   8.697  14.829 -0.1580  0.0786  0.1116
11189W        W26806   9.306   5.522  12.531 -0.0820  0.1092  0.0785
11190W        W26807   9.947   0.013   2.524  0.1600  0.2967 -0.0302
11191W        W26808   3.059  17.988  11.380  0.0129 -0.0348 -0.0470
11192W        W26809   4.054   2.087  14.766 -0.0945 -0.0923 -0.0222
11193W        W26810   1.989  14.522   2.012  0.0028  0.4717  0.0876
11194W        W26811   2.364   7.679  14.413  0.2443 -0.3571  0.3905
11195W        W26812   4.646  11.612  10.977  0.2055 -0.3053 -0.1584
11196W        W26813  15.462  11.956  13.608 -0.1774 -0.5842 -0.2812
11197W        W26814  11.235  16.575  10.346 -0.0759  0.0659  0.3534
11198W        W26815  16.259  12.256  15.110  0.1660 -0.2804 -0.2375
11199W        W26816  15.225  11.349   4.563 -0.6460 -0.1842  0.1546
11200W        W26817  17.616  13.216   2.865  0.0962 -0.0675 -0.2140
11201W        W26818  12.940   5.387   0.225  0.1038  0.2222 -0.0401
11202W        W26819  12.249   2.964   3.445  0.0102 -0.0579  0.1375
11203W        W26820   2.748   1.688  15.388 -0.1923  0.4979  0.1870
11204W        W26821   4.610  16.720   4.256 -0.4032  0.1122 -0.3898
11205W        W26822  10.312  14.030  15.675 -0.2328  0.1568 -0.1033
11206W        W26823   3.274  16.290  13.110  0.1898  0.1590 -0.0339
11207W        W26824  13.114   3.175   4.800  0.2725 -0.1148  0.0188
11208W        W26825   5.760   8.897   3.930 -0.0271  0.1318 -0.1223
11209W        W26826  17.645  11.035  12.434 -0.1989 -0.0159  0.0566
11210W        W26827  17.804  15.410  14.850  0.0590 -0.1510 -0.0831
11211W        W26828   0.644   9.585  15.417 -0.1832 -0.2712 -0.0545
11212W        W26829  15.177   4.281   5.685  0.1709  0.1013 -0.1765
11213W        W26830   2.856   2.857  11.595  0.0861 -0.1226 -0.1028
11214W        W26831   0.227   4.505  10.989 -0.0858 -0.0830 -0.0623
11215W        W26832   2.001  18.427   3.404  0.2231 -0.1072 -0.1767
11216W        W26833   0.116   9.810   4.928  0.0864  0.2331 -0.0340
11217W        W26834   9.500   9.511  12.389  0.3613 -0.2075  0.2720
11218W        W26835  18.189   1.255   3.092 -0.2064 -0.0460  0.0146
11219W        W26836  18.627   2.303   5.687 -0.0515 -0.3022  0.0683
11220W        W26837   1.530   6.929   1.460 -0.1695  0.2642 -0.0351
11221W        W26838   8.439  14.221   2.633 -0.3555  0.2630 -0.0953
11222W        W26839   1.380  17.799   4.936 -0.2448  0.3574  0.2058
11223W        W26840  17.560  14.918   5.720  0.2086  0.2752  0.1811
11224W        W26841  18.503   8.911   2.770  0.1817  0.0689  0.1154
11225W        W26842  15.395   5.041   0.052 -0.0278 -0.1424  0.0366
11226W        W26843  10.924   1.336   0.648 -0.0395  0.1283  0.2716
11227W        W26844   1.693  16.943   2.043 -0.5012 -0.1579 -0.7981
11228W        W26845  17.749   9.921   2.684 -0.0918 -0.1742 -0.0119
11229W        W26846   1.967   4.374  13.073  0.3245  0.0931 -0.1482
11230W        W26847  12.438   6.433   0.802 -0.0456 -0.1674 -0.0089
11231W        W26848  14.407  17.574  11.516  0.0798  0.0717 -0.0388
11232W        W26849  10.837  18.134   2.760  0.1409  0.5041  0.0816
11233W        W26850  18.523  13.835  13.420 -0.0281  0.1707 -0.0308
11234W        W26851   1.882  13.478  11.768 -0.1276 -0.0224  0.1117
11235W        W26852  16.778  14.743   1.482 -0.0768 -0.1905 -0.2996
11236W        W26853   0.688   1.377  15.317  0.1584 -0.0785  0.0372
11237W        W26854  10.129  12.317  13.491 -0.3257  0.1104  0.1543
11238W        W26855  17.932  18.654   1.923 -0.2643  0.2333  0.1227
11239W        W26856  11.725   4.270  13.161 -0.1350 -0.1717  0.1495
11240W        W26857   2.707   0.495   2.005  0.2362 -0.0778 -0.0452
11241W        W26858  15.367   0.401   0.271 -0.0360 -0.1926  0.2197
11242W        W26859   1.358  11.926   4.326 -0.0324  0.1764  0.1578
11243W        W26860   8.653   3.240   2.336 -0.0515 -0.0458  0.2262
11244W        W26861  14.378   3.916  12.755  0.0825  0.0629  0.1529
11245W        W26862   8.952  12.564  14.568 -0.0346 -0.1551  0.2069
11246W        W26863  10.366   8.282   2.317 -0.2435 -0.1285 -0.0418
11247W        W26864   2.885  12.952  13.544  0.2306  0.1918 -0.1184
11248W        W26865  15.737   8.310  15.528  0.1351 -0.0845  0.0109
11249W        W26866   8.844  18.015   2.204 -0.1124  0.0267 -0.0594
11250W        W26867   9.112  14.686  13.671 -0.0937 -0.1156  0.1098
11251W        W26868   4.810  10.034  14.603 -0.0944 -0.0439 -0.2891
11252W        W26869  12.993  11.389  15.575  0.0324 -0.0012  0.0224
11253W        W26870   6.560  10.211   3.512 -0.2797 -0.0227 -0.3267
11254W        W26871  17.120   8.884  15.314 -0.0866  0.4836  0.1756
11255W        W26872   4.111  10.949  14.958  0.0821  0.1864  0.4028
11256W        W26873   2.474   4.107   1.926 -0.3496  0.2618 -0.2273
11257W        W26874   9.819  16.676   4.490 -0.0727 -0.1653  0.0025
11258W        W26875   6.138   7.630  12.049  0.0492 -0.0219 -0.0626
11259W        W26876  10.104   2.298   5.231 -0.0800  0.0607 -0.2100
11260W        W26877  18.538   5.889   2.875  0.2732 -0.2955 -0.0343
11261W        W26878  13.354  11.927  10.424 -0.1782 -0.0774  0.1189
11262W        W26879  13.046  13.276   5.479 -0.0020  0.3584 -0.2378
11263W        W26880   8.096  13.289   0.128 -0.1331  0.0013 -0.0256
11264W        W26881   4.795   6.850   4.025  0.1294  0.3067 -0.1919
11265W        W26882   4.263  15.838   3.193  0.1394  0.1595  0.3052
11266W        W26883  13.481   4.137  11.417 -0.1712 -0.1067  0.0157
11267W        W26884   8.178   0.356   2.016 -0.2565 -0.0465  0.1882
11268W        W26885  12.587   2.592  13.922 -0.1062 -0.0767  0.2145
11269W        W26886  10.718  17.957   2.343 -0.0019  0.0198 -0.1069
11270W        W26887  15.668   5.267   2.808 -0.3003  0.0177 -0.0366
11271W        W26888   1.642   8.196  12.410 -0.0780  0.3228 -0.0870
11272W        W26889  17.422  13.179  14.529 -0.2765  0.0616 -0.0419
11273W        W26890   9.855   9.431   3.605 -0.0429 -0.3229  0.2425
11274W        W26891  11.141   9.205   0.462 -0.0235  0.3060 -0.0740
11275W        W26892   6.138   2.260  11.235 -0.2433 -0.0903  0.1079
11276W        W26893  14.048  15.747   4.321 -0.1749 -0.2590  0.0640
11277W        W26894   3.906   4.927  12.975 -0.2094 -0.1345 -0.5046
11278W        W26895   2.347  18.229  15.761  0.0977 -0.1941  0.2515
11279W        W26896   2.197  10.357  14.752 -0.1862 -0.2527 -0.1781
11280W        W26897  12.725   1.664  13.776  0.2573 -0.0585 -0.1475
11281W        W26898  13.174   2.217   5.437 -0.2432  0.0791 -0.2923
11282W        W26899  12.184  15.649  11.576 -0.2853  0.0345 -0.0772
11283W        W26900  15.923  13.904  14.772  0.1641  0.2677 -0.0737
11284W        W26901  15.857   0.261   0.559 -0.1246  0.1266 -0.1187
11285W        W26902   3.183  10.345   2.954  0.2578  0.1580  0.1219
11286W        W26903  17.201   1.935   4.029  0.2601  0.2883  0.1674
11287W        W26904  12.945   0.044   3.453 -0.0019 -0.0049 -0.0199
11288W        W26905   0.200   3.218  13.647  0.2333  0.0932  0.1449
11289W        W26906   3.931   8.017   4.467  0.0910 -0.0222 -0.0272
11290W        W26907  12.007   8.511   3.097  0.0573  0.0787 -0.0072
11291W        W26908   9.208   1.866  13.636  0.1557  0.4810 -0.1392
11292W        W26909  16.495  11.161   2.134 -0.2714  0.0691 -0.1194
11293W        W26910  10.266   5.812  13.900  0.0564  0.1064 -0.0212
11294W        W26911  12.717   0.181   5.501 -0.0559  0.0374  0.0708
11295W        W26912   6.611   1.362   2.607  0.0722  0.3349 -0.1318
11296W        W26913   0.982   4.035   1.360  0.2137 -0.1839 -0.0297
11297W        W26914   7.348   1.671  12.514  0.0642 -0.1002 -0.2635
11298W        W26915   2.162  16.591  15.290 -0.0469  0.0202  0.4300
11299W        W26916   5.138  15.045   0.139 -0.0547 -0.1150 -0.1162
11300W        W26917   4.370   8.543  12.038  0.3116  0.1535 -0.0570
11301W        W26918  18.069   1.876  12.155 -0.0290  0.2168  0.0409
11302W        W26919  18.044  16.924   4.578  0.1033 -0.3967  0.1554
11303W        W26920   6.511  10.065  14.078  0.1582  0.4219  0.1854
11304W        W26921  18.614  11.637  14.590 -0.2614  0.0915  0.0551
11305W        W26922   4.366  13.988  10.436 -0.0446 -0.2150  0.0067
11306W        W26923  10.736   1.542   3.940  0.0497 -0.1562 -0.0941
11307W        W26924  12.727  15.565  12.565  0.2252  0.2240 -0.2017
11308W        W26925  15.883  11.258  13.171  0.1780 -0.2420 -0.1215
11309W        W26926  14.020   9.377   2.411  0.3148 -0.0228  0.1834
11310W        W26927  10.943   2.906   4.832 -0.1785 -0.0044 -0.1280
11311W        W26928   1.067   5.941  13.165 -0.3650  0.0529  0.0096
11312W        W26929   4.678   4.379  11.259  0.1941 -0.0327  0.1279
11313W        W26930   5.982   6.572   2.462  0.2287 -0.0480  0.6744
11314W        W26931  17.554  10.277  10.319  0.0707 -0.1277 -0.0414
11315W        W26932   1.361   3.889   5.307  0.1046 -0.2669  0.1035
11316W        W26933   3.314   5.156  15.656  0.0340 -0.3417 -0.0693
11317W        W26934   3.781   3.879  14.302  0.0457 -0.2981 -0.0540
11318W        W26935  17.844   5.395   4.224  0.4313  0.1269 -0.0643
11319W        W26936  12.493   3.791  11.895  0.2766  0.1111 -0.4512
11320W        W26937  17.971  18.022   2.116  0.1991 -0.0821  0.2607
11321W        W26938  17.245  15.490  15.697  0.0316 -0.0340  0.1955
11322W        W26939   2.215   8.229   0.241  0.1791  0.0034  0.0157
11323W        W26940  11.982   1.817  14.488 -0.3213  0.3654 -0.1892
11324W        W26941   9.348  17.711   2.059  0.2254  0.2090  0.1593
11325W        W26942   5.608   3.217   1.471 -0.0891  0.0601  0.0671
11326W        W26943   8.507   6.283  14.899  0.4324  0.0558 -0.0434
11327W        W26944   7.536   4.915  11.932  0.1256 -0.1858  0.1914
11328W        W26945   8.015   8.831   5.303 -0.1881  0.0226  0.1083
11329W        W26946   4.358   4.538  14.921  0.1601 -0.1313  0.0239
11330W        W26947   7.316   2.473   0.225  0.3360 -0.1563  0.4639
11331W        W26948  16.755   6.814   1.678 -0.0384  0.1115  0.1354
11332W        W26949   6.667   0.677   2.405  0.2474 -0.0993  0.1520
11333W        W26950  17.274  14.530   4.492  0.0432  0.3108 -0.1040
11334W        W26951   1.873   7.489   1.554 -0.0752 -0.0692 -0.0088
11335W        W26952  12.709   4.897   4.083 -0.2534  0.0183 -0.1451
11336W        W26953   3.735   2.316   4.040 -0.0256  0.1303 -0.1680
11337W        W26954  16.106   5.219   4.960  0.0747 -0.2144  0.2187
11338W        W26955   0.845   9.959   2.888  0.2432 -0.1538  0.0989
11339W        W26956  17.785  16.407  15.301  0.1530 -0.0497 -0.0993
11340W        W26957   3.800  11.327  12.387 -0.4199 -0.0335  0.2615
11341W        W26958   5.495  17.296  15.523  0.1128  0.1171 -0.0736
11342W        W26959  14.541  11.784  14.825  0.0706  0.0270 -0.3142
11343W        W26960  18.298  13.995   0.604  0.1505  0.0058 -0.1266
11344W        W26961  18.549  17.725  11.495  0.1864  0.1443 -0.2416
11345W        W26962   3.123   5.172   1.149  0.1714 -0.3470 -0.1406
11346W        W26963  10.918  17.074   5.799 -0.0003  0.1823 -0.0461
11347W        W26964   6.560  15.522  12.045  0.1289 -0.1031 -0.1505
11348W        W26965   1.131   8.956  14.422 -0.1479  0.1198 -0.1167
11349W        W26966  12.119  12.906  15.388 -0.0412 -0.0341 -0.0004
11350W        W26967  17.467  18.112   2.070  0.2405 -0.1413  0.0184
11351W        W26968  13.790   1.333  15.639 -0.5832 -0.2306 -0.2124
11352W        W26969   1.266   6.911   5.294  0.1757  0.0883  0.0297
11353W        W26970  10.064  14.676   2.564 -0.1578 -0.0925 -0.0399
11354W        W26971   3.562   3.838  11.696  0.0176 -0.1321 -0.1777
11355W        W26972  18.041   7.834   0.453 -0.2549  0.1110  0.0174
11356W        W26973   5.578   7.666   1.431 -0.0831  0.0259  0.2859
11357W        W26974  11.065   8.177  12.935 -0.2654  0.2710 -0.1704
11358W        W26975   7.676   1.261  13.685 -0.0623  0.2731 -0.0553
11359W        W26976   6.692  17.495  10.273  0.0624  0.2107  0.0493
11360W        W26977   9.985   1.908   0.462 -0.0864  0.0066  0.0916
11361W        W26978  14.144  11.688   2.333  0.3748 -0.1582  0.0094
11362W        W26979   6.615  10.476   2.688 -0.0066 -0.1970  0.1532
11363W        W26980   0.632   1.873   4.432  0.2070 -0.1550 -0.3869
11364W        W26981   2.863  15.538   1.911 -0.1624  0.2723  0.0816
11365W        W26982  17.878   9.572   3.785 -0.0081  0.1832  0.0117
11366W        W26983   2.052   3.392   1.476  0.1711 -0.0969 -0.2062
11367W        W26984  18.600  12.607   1.232  0.1546  0.1783  0.0150
11368W        W26985   3.874  10.291  11.414  0.1460 -0.0373  0.1009
11369W        W26986  11.883  14.627  13.331 -0.2353  0.0102 -0.2216
11370W        W26987   3.227   5.188  11.837 -0.2533  0.1832  0.1853
11371W        W26988  10.378   4.576  15.302  0.3421 -0.2055 -0.0546
11372W        W26989   6.862   1.889   4.633 -0.1406 -0.2024  0.1055
11373W        W26990  14.533   8.773   0.529  0.2786 -0.3347 -0.1303
11374W        W26991   7.886  10.257  12.684  0.1247 -0.0726  0.3057
11375W        W26992   2.084  11.998  11.292 -0.1315  0.1408 -0.2441
11376W        W26993  15.417  11.149   3.366  0.1571  0.0699 -0.0789
11377W        W26994  12.169   4.973  14.769 -0.1262 -0.1205 -0.0362
11378W        W26995  13.905   8.873  15.089 -0.0285  0.0605 -0.0462
11379W        W26996   2.670   8.407   4.751 -0.4815  0.1365 -0.0278
11380W        W26997   6.638  13.967   4.851  0.2468  0.1899  0.1149
11381W        W26998   8.428   6.453   2.473 -0.3491  0.1835  0.0079
11382W        W26999   8.820  14.337   0.105  0.0289  0.1123 -0.1823
11383W        W27000   7.087  17.296   0.361 -0.3665  0.0937  0.0986
11384W        W27001   9.467  15.318   1.018  0.0411  0.4684  0.1082
11385W        W27002  18.026   7.409   1.948  0.1268  0.2338 -0.1038
11386W        W27003  11.490   7.589   4.986 -0.0794 -0.0182  0.0316
11387W        W27004  12.710  10.629   5.670 -0.2481 -0.0807  0.3368
11388W        W27005   5.722  10.004  15.023  0.1159 -0.1183 -0.1913
11389W        W27006   0.058  18.573   3.015 -0.2083 -0.2878 -0.0058
11390W        W27007  15.303  10.454  11.197  0.1049 -0.3341  0.5357
11391W        W27008   3.562  10.726   2.108  0.1012 -0.2180  0.0743
11392W        W27009   2.691   1.405   1.626  0.0549  0.3721  0.1793
11393W        W27010   5.674  17.439  10.653 -0.1138 -0.1879  0.2223
11394W        W27011   1.722  11.495  10.693  0.0038 -0.0760  0.0869
11395W        W27012  13.387   3.301   0.917  0.0023 -0.3960 -0.1193
11396W        W27013  17.085   1.470   0.294  0.0915 -0.3054 -0.1315
11397W        W27014   7.743  10.487   1.440 -0.1416  0.0924 -0.1571
11398W        W27015  12.084  11.998  11.796  0.2075 -0.1652  0.0189
11399W        W27016  18.357  16.849   4.948  0.0921  0.1441  0.0831
11400W        W27017   5.161  13.315   1.269 -0.0102 -0.0201  0.1483
11401W        W27018   6.818   4.431  13.157  0.0907  0.0819  0.1809
11402W        W27019   6.345   8.028  15.790  0.2350  0.2272 -0.2181
11403W        W27020   2.474  10.947   3.395 -0.0994 -0.1382  0.1743
11404W        W27021  14.459  17.860   4.929 -0.0784 -0.1838 -0.4777
11405W        W27022   4.740   1.870  13.011 -0.2177 -0.2039  0.0432
11406W        W27023   6.475  17.252  14.673 -0.0100  0.0416  0.0548
11407W        W27024  16.504  11.956  12.837 -0.1179 -0.3137  0.0294
11408W        W27025   6.571   3.365   3.075 -0.1345 -0.0357 -0.3059
11409W        W27026   8.371  16.103   0.157  0.1894  0.4279 -0.2102
11410W        W27027   9.348  10.580   3.741 -0.0941  0.1106 -0.2917
11411W        W27028   2.317  10.459   3.218 -0.2625  0.3988 -0.1320
11412W        W27029  12.747   9.389   4.809  0.1156 -0.1117  0.1169
11413W        W27030  12.263   5.031  12.926 -0.4230  0.2106 -0.1669
11414W        W27031   1.593   1.552  15.589 -0.0310  0.2204 -0.0887
11415W        W27032   4.349   9.588   1.040 -0.2878  0.2245 -0.0642
11416W        W27033   6.369  12.145  13.761 -0.0163  0.1619  0.1470
11417W        W27034  13.254   4.347  15.510 -0.0610 -0.1014 -0.0796
11418W        W27035  13.335   3.569   0.522 -0.1222  0.1001  0.1642
11419W        W27036  17.203  16.178  11.096  0.1188 -0.0224  0.0531
11420W        W27037   8.615  18.470  13.168 -0.1233 -0.1699 -0.1826
11421W        W27038   3.961  11.062  13.559 -0.0015 -0.3153 -0.0801
11422W        W27039  12.511  17.223  13.501  0.0465  0.2082  0.3608
11423W        W27040   5.720   3.643   1.302 -0.0547 -0.0758  0.1224
11424W        W27041  13.414   7.931  10.845 -0.0684  0.0039  0.0966
11425W        W27042  17.926  11.901  12.366  0.0864 -0.0392  0.2054
11426W        W27043  16.339  13.412   3.871 -0.0004 -0.3231  0.2033
11427W        W27044  14.121  10.434   3.377  0.3976  0.1429 -0.1164
11428W        W27045  14.528  10.110   0.705  0.0256  0.1764  0.1619
11429W        W27046   3.548   3.190  15.379 -0.4516 -0.0434 -0.0448
11430W        W27047  17.131  11.839   3.306  0.1190  0.0293  0.3994
11431W        W27048   8.657   9.474   3.605  0.1568 -0.0472  0.0977
11432W        W27049  12.206  12.985  10.380 -0.0337 -0.0428  0.2241
11433W        W27050  15.797   0.252   2.498 -0.1786 -0.1599 -0.3911
11434W        W27051   0.360   3.110   1.184 -0.0529  0.0747 -0.2209
11435W        W27052  16.396   4.826  15.799 -0.4619 -0.0030  0.3150
11436W        W27053   8.120   0.287   3.896 -0.1744  0.0145 -0.0557
11437W        W27054  13.708  10.977   5.146 -0.0787 -0.2466 -0.2047
11438W        W27055   1.932   6.119   3.221  0.2162 -0.1463 -0.1537
11439W        W27056  16.927  17.583   0.120 -0.0217 -0.1143  0.0077
11440W        W27057   0.745   3.007  14.959  0.0538  0.1276 -0.0920
11441W        W27058   6.650   8.796  12.405  0.4242 -0.1061  0.3356
11442W        W27059  10.802   0.777  15.665  0.1187  0.0337 -0.1276
11443W        W27060   6.556   9.039   0.698 -0.2001 -0.1017  0.1337
11444W        W27061  15.243   7.026  11.281  0.1921  0.1391 -0.0780
11445W        W27062   8.532   5.096  11.440  0.0191  0.1053  0.0445
11446W        W27063  12.415   6.404   6.160 -0.1749 -0.3058  0.1908
11447W        W27064  15.566   3.580   1.701 -0.0172 -0.0315  0.3110
11448W        W27065  11.032   9.979   3.469  0.2695  0.2112  0.1203
11449W        W27066   8.078   9.212   1.310  0.3918  0.1833  0.2894
11450W        W27067   8.899   6.312  11.894 -0.3292 -0.0051  0.0994
11451W        W27068  11.635   5.281   2.616  0.0342 -0.0498 -0.0496
11452W        W27069   6.933  17.375   0.925 -0.2144  0.1238 -0.2397
11453W        W27070   3.853  12.041  11.083  0.1502  0.2783 -0.2681
11454W        W27071   4.493   9.370   3.975 -0.0261 -0.2351  0.0496
11455W        W27072  10.831  14.505   4.497  0.2850  0.0709  0.0120
11456W        W27073  17.901   0.101   4.817  0.0113  0.1730 -0.0239
11457W        W27074   8.282  17.239   4.735  0.2293  0.1058 -0.4528
11458W        W27075   5.229  13.518  10.920  0.0923 -0.0608  0.2447
11459W        W27076   3.436   8.751  13.290 -0.0227  0.1648  0.2016
11460W        W27077  17.612   0.175   3.297  0.0063 -0.2335 -0.1631
11461W        W27078   1.372   1.210   1.874 -0.3052 -0.0699  0.0927
11462W        W27079   6.817   5.907   0.259  0.1564 -0.1058  0.1643
11463W        W27080   8.857  12.161  13.216 -0.0160 -0.0246 -0.1555
11464W        W27081  17.696   4.830  12.954 -0.1185  0.1295  0.1246
11465W        W27082  15.792   6.170  11.859 -0.0674 -0.0131  0.1061
11466W        W27083  16.324  18.587  12.450  0.0554 -0.1206  0.4165
11467W        W27084   9.651  18.292   4.722 -0.0284 -0.2286 -0.1815
11468W        W27085   4.537  11.367  11.429  0.3410 -0.0907 -0.5801
11469W        W27086   4.427   3.072   0.779 -0.2942 -0.0971 -0.3416
11470W        W27087   6.062  15.649   0.444  0.0509  0.1785  0.0583
11471W        W27088  18.436  10.705  15.485  0.0429  0.1608 -0.1057
11472W        W27089  11.547   9.425  12.747 -0.1008  0.1203  0.0736
11473W        W27090   1.846  13.827   0.924 -0.0361 -0.0903 -0.2075
11474W        W27091  16.573  15.080   1.052  0.1098  0.1577 -0.0897
11475W        W27092   8.590  16.754   3.864  0.0592 -0.0595  0.1155
11476W        W27093  10.479  15.633  13.273 -0.2164  0.2262 -0.2578
11477W        W27094   3.681   5.840  13.091  0.0447  0.1926 -0.3945
11478W        W27095  17.283   2.340  15.536  0.1686  0.0670  0.0767
11479W        W27096   7.819  15.033  12.426 -0.0631 -0.0090 -0.2131
11480W        W27097   2.366   5.061  11.787 -0.0106 -0.3399  0.0953
11481W        W27098   2.490   8.408   9.986  0.0251 -0.1480 -0.0092
11482W        W27099   3.981   9.277   1.167  0.1468 -0.0903  0.1597
11483W        W27100   5.748   8.382   1.737 -0.3082  0.2850  0.0533
11484W        W27101  13.693  17.627   1.242 -0.0784 -0.1432 -0.0023
11485W        W27102   2.329   5.209   4.654  0.1071  0.0201  0.3717
11486W        W27103  16.975  10.038  13.796  0.0376 -0.0108  0.1631
11487W        W27104   3.712   9.095  10.951 -0.1701  0.1286 -0.1247
11488W        W27105  10.321  16.764  14.723  0.1381 -0.0207  0.0029
11489W        W27106  13.244   0.877  15.018 -0.2627  0.1243  0.0450
11490W        W27107  14.154  12.391   3.551 -0.2623 -0.2458  0.0693
11491W        W27108   0.260  15.523  13.777 -0.2459 -0.0273 -0.1162
11492W        W27109   5.480   7.090  15.308  0.1149 -0.0498 -0.4385
11493W        W27110   5.685   6.611  10.228  0.0311 -0.0066 -0.3342
11494W        W27111   1.190   7.848  14.381 -0.1072 -0.0547  0.0673
11495W        W27112   7.137  10.929   4.702  0.1742 -0.1162 -0.0982
11496W        W27113  13.521   0.948  12.799 -0.1122 -0.0328 -0.1294
11497W        W27114  13.939   1.763  12.136 -0.0029 -0.0271  0.0318
11498W        W27115   0.965  14.042  15.288 -0.0852 -0.0835  0.0552
11499W        W27116   7.359  15.658   0.305  0.4010 -0.2293 -0.0972
11500W        W27117  16.438  17.447  14.102 -0.3011  0.1891  0.0334
11501W        W27118  11.471  18.321  15.209  0.0508  0.1832 -0.0815
11502W        W27119   8.356  17.679   6.069  0.3588 -0.0112  0.1506
11503W        W27120  15.864   2.704   5.334 -0.0341  0.1752  0.0921
11504W        W27121  16.737  16.289   2.096  0.0765  0.2420  0.1976
11505W        W27122  17.949   9.340  11.901 -0.1909 -0.3618  0.1254
11506W        W27123   5.835   5.935  12.137  0.2728  0.0101  0.4257
11507W        W27124   4.018  11.977  15.280  0.1493 -0.2399  0.0796
11508W        W27125  16.773  11.911   9.490  0.1280 -0.2433 -0.1621
11509W        W27126   7.899   6.261   9.921  0.1450 -0.0008 -0.2502
11510W        W27127  15.920  16.687  11.512  0.2677 -0.0598 -0.2231
11511W        W27128   8.431   6.752   0.284  0.2108  0.2331 -0.0846
11512W        W27129  12.922  16.062  11.705  0.2166  0.0591  0.0147
11513W        W27130   6.488   5.162   2.528  0.3560  0.1601 -0.0069
11514W        W27131   6.134   6.906   3.223  0.0140 -0.1541  0.1590
11515W        W27132   4.230  16.775   3.953  0.1217 -0.0571 -0.1663
11516W        W27133  17.811  11.378  14.439  0.0780 -0.0179 -0.0185
11517W        W27134  13.842   3.860   0.323 -0.1021  0.1940  0.1815
11518W        W27135  16.746  10.537   4.243 -0.0726  0.0619 -0.0643
11519W        W27136   3.766   3.305  13.618 -0.1930  0.0366  0.0132
11520W        W27137   1.747  10.949  10.759  0.2813  0.0478  0.0886
11521W        W27138   4.847   1.636   4.952  0.1585  0.1172 -0.3038
11522W        W27139  16.984  11.191   0.935  0.0004 -0.0597 -0.2297
11523W        W27140  13.718   6.132  12.633  0.2860  0.0424  0.0735
11524W        W27141   7.057   6.624  14.975  0.0553  0.0172  0.3032
11525W        W27142  11.791  16.816   0.720  0.1571 -0.4544 -0.1787
11526W        W27143  17.534  13.568  14.803  0.1378 -0.4018 -0.0026
11527W        W27144  16.758   1.678  11.733 -0.2513 -0.3599  0.1061
11528W        W27145   2.780   5.349   5.586 -0.1077 -0.1089 -0.0002
11529W        W27146   9.740  18.101   1.314  0.0887 -0.1817  0.1125
11530W        W27147   9.671   8.934  14.649  0.0199 -0.1790  0.1525
11531W        W27148   6.745   5.854   3.703  0.2031 -0.4011 -0.2038
11532W        W27149   5.154  11.165   3.942 -0.2581 -0.4921  0.0770
11533W        W27150  10.404  15.579   1.082 -0.1865  0.3909 -0.1823
11534W        W27151  17.245   3.124  12.707  0.1982 -0.0517  0.0454
11535W        W27152   0.682  18.010  14.380 -0.2459 -0.0414 -0.3591
11536W        W27153   5.362  16.873  12.302  0.0527  0.2386 -0.3137
11537W        W27154   9.084  18.028   1.363 -0.4440  0.1690 -0.2057
11538W        W27155  13.396   9.758   1.004 -0.0394 -0.0138  0.2352
11539W        W27156  13.957   1.871  13.869  0.0336 -0.1145  0.0010
11540W        W27157   4.628  11.439  14.397 -0.1459  0.2523  0.0485
11541W        W27158   2.486  15.317  13.450 -0.1131 -0.0865 -0.0772
11542W        W27159  11.199   6.941  12.312 -0.3012 -0.0802 -0.0901
11543W        W27160  11.816   8.055   1.477 -0.0740 -0.0280 -0.2392
11544W        W27161  11.088   1.394  15.036  0.0542 -0.0701  0.1710
11545W        W27162  17.523   9.901  14.546 -0.3771  0.0119 -0.1887
11546W        W27163  14.338   4.824   3.346 -0.0020  0.1149 -0.1390
11547W        W27164   4.740  13.806   5.565 -0.1929  0.1413 -0.0834
11548W        W27165   5.871  15.177  11.596  0.0742 -0.2309  0.3033
11549W        W27166  12.196  17.084   1.731 -0.0061 -0.3294 -0.2573
11550W        W27167  14.037   5.837   2.580  0.0911  0.0374 -0.2611
11551W        W27168  10.938  10.548  12.347  0.0116  0.1895  0.3281
11552W        W27169   7.929  15.995  13.023 -0.0958 -0.0998  0.1548
11553W        W27170  13.525   9.116   3.010 -0.0719 -0.0009  0.1068
11554W        W27171  16.094   3.869  15.088 -0.1602  0.0084 -0.0134
11555W        W27172  18.104   8.698   9.631 -0.2220  0.0852 -0.1385
11556W        W27173   7.960   8.548   0.867 -0.2006 -0.2678 -0.4252
11557W        W27174   6.675  17.778  11.106 -0.2605  0.0387  0.0855
11558W        W27175  12.943  11.205  14.512  0.3694 -0.0658 -0.1964
11559W        W27176   7.684   9.597   1.838  0.3587 -0.0865  0.1245
11560W        W27177  17.563  17.442   0.794 -0.1353  0.1868 -0.1928
11561W        W27178   7.012   6.499   4.599  0.0907 -0.1431  0.2127
11562W        W27179  15.326   0.865   5.812  0.1330 -0.0051  0.1037
11563W        W27180  17.266  15.035  13.795 -0.1079  0.0252 -0.3163
11564W        W27181   1.755   2.995   3.607 -0.0579 -0.0417 -0.1150
11565W        W27182  13.509   1.388   4.850 -0.0422  0.1183  0.2049
11566W        W27183  14.500  16.635   4.930  0.1593 -0.0485  0.1272
11567W        W27184   6.219   4.256  11.361 -0.1992  0.1273  0.2854
11568W        W27185   9.584  16.701   2.354  0.0519 -0.2327 -0.2940
11569W        W27186   5.436  11.548  12.983  0.1036  0.4229 -0.4325
11570W        W27187   8.455  11.102  14.805 -0.1855  0.5380  0.1808
11571W        W27188   7.366  13.784   2.066  0.1237  0.0401  0.1682
11572W        W27189  17.184   3.851  13.672  0.2710 -0.1743  0.1953
11573W        W27190  10.401  16.697  13.677  0.0515 -0.3630  0.2289
11574W        W27191   3.561   5.344  13.016 -0.1313 -0.2451 -0.4832
11575W        W27192   6.290  17.658  13.077  0.1871 -0.1858  0.0418
11576W        W27193  14.439  15.931  11.204 -0.1252 -0.3905 -0.0187
11577W        W27194   3.335   5.207   0.719 -0.1894 -0.2790 -0.0190
11578W        W27195   5.437  17.273   2.939  0.1258 -0.0855 -0.0165
11579W        W27196  13.821   9.747  14.643 -0.1798  0.0901 -0.0583
11580W        W27197  17.052  16.951   4.724 -0.0949  0.3055  0.0870
11581W        W27198  17.559   4.735  11.215  0.0230 -0.1074  0.2053
11582W        W27199  18.301  10.342  12.386 -0.1375  0.2798 -0.1483
11583W        W27200  13.120  13.074  12.106  0.2704  0.2737 -0.0097
11584W        W27201   3.271   5.939  10.497  0.2829  0.0975 -0.1441
11585W        W27202  15.832   2.337   1.111  0.2123 -0.1241 -0.0280
11586W        W27203   4.041   6.958   2.768  0.1554 -0.2713  0.1338
11587W        W27204   5.569   5.312   3.059  0.4359 -0.0188 -0.1864
11588W        W27205  11.123  11.472   4.996  0.2638  0.0063 -0.0610
11589W        W27206   4.377   1.944   0.487  0.1915  0.0319 -0.0579
11590W        W27207  14.703  16.092   1.924 -0.1427 -0.0901  0.2237
11591W        W27208  10.080  16.669  12.795 -0.1829 -0.4025  0.1017
11592W        W27209   5.726  13.292  13.415  0.2915 -0.0512  0.1388
11593W        W27210   0.183  14.347  14.693 -0.1194 -0.0291  0.1966
11594W        W27211   6.632   0.179  15.348  0.2481  0.2749 -0.0877
11595W        W27212  10.032   2.052  14.020  0.1288 -0.0393 -0.0244
11596W        W27213  16.787  14.882  14.688  0.1769 -0.0982  0.0484
11597W        W27214   9.344   7.847   1.281  0.1963  0.0116 -0.1543
11598W        W27215   5.475   9.315  11.430 -0.1772 -0.1936  0.2361
11599W        W27216  14.157   8.387  11.899  0.1922  0.1140  0.1875
11600W        W27217  17.674  11.519  14.889 -0.5229  0.0691  0.3351
11601W        W27218  18.160  14.646  11.199  0.0212  0.0178 -0.0815
11602W        W27219   4.102  17.243   3.606 -0.1420 -0.1915 -0.1695
11603W        W27220   2.540  14.237  10.613  0.0192 -0.0542  0.2685
11604W        W27221   3.078  12.091  14.944  0.0425 -0.0731  0.1717
11605W        W27222  15.729   1.290  10.428 -0.1634  0.2106  0.0565
11606W        W27223   5.758   3.780   3.292 -0.0301 -0.1016 -0.0189
11607W        W27224   6.008  10.364   4.675  0.2227  0.1544 -0.2844
11608W        W27225   8.357   0.960  11.867  0.0732 -0.0337 -0.2450
11609W        W27226   0.634   8.827   4.900  0.3416  0.1598 -0.1046
11610W        W27227  13.611   1.499  10.827  0.2395 -0.3418 -0.1806
11611W        W27228   6.214   7.863   5.653  0.1725 -0.0086  0.1115
11612W        W27229   2.996   3.113  14.752  0.2090 -0.1282 -0.3252
11613W        W27230   3.229   5.065   5.860 -0.1547  0.3110  0.0107
11614W        W27231   6.240   7.625  15.449 -0.0441  0.1282  0.0801
11615W        W27232   1.000  10.992   3.004 -0.1276  0.1703  0.0864
11616W        W27233   5.798  12.631  10.923  0.1947 -0.1892 -0.0320
11617W        W27234   1.801   1.513  12.792 -0.1497  0.2111 -0.0667
11618W        W27235  18.030  13.466   3.304  0.0804  0.1569 -0.2236
11619W        W27236  14.532   3.444  12.971  0.3495  0.0173  0.0664
11620W        W27237   5.146   7.513   2.803  0.3876  0.1195  0.1860
11621W        W27238   1.066   9.522  15.138 -0.1862  0.0459 -0.1141
11622W        W27239   1.907   2.865   2.555  0.0837  0.0952  0.0846
11623W        W27240   5.228   7.968  12.372  0.2428  0.1042  0.2243
11624W        W27241   7.063  11.563  13.248  0.3946  0.2782 -0.0280
11625W        W27242   5.966  13.982   2.207 -0.1453 -0.0865  0.2164
11626W        W27243  15.378   0.967  13.907  0.0052  0.0526  0.0786
11627W        W27244  16.085   7.794   4.429 -0.2982  0.1086 -0.1393
11628W        W27245  16.482  12.871  14.376  0.1010 -0.1790  0.0625
11629W        W27246   0.547   7.800  14.232  0.2249 -0.2303 -0.2015
11630W        W27247  17.476   9.329   1.898  0.1994  0.2265 -0.3686
11631W        W27248  11.544  10.760  13.503 -0.0691 -0.1455 -0.0901
11632W        W27249  18.503  10.183   3.688  0.0794 -0.1210 -0.3935
11633W        W27250  15.670   5.723  13.342  0.0622  0.2564 -0.3746
11634W        W27251  12.682   6.746  13.114  0.1813 -0.4399 -0.2571
11635W        W27252  13.009  15.846  13.729 -0.3091  0.2403  0.0211
11636W        W27253  17.497   4.055   2.506 -0.3009 -0.0297 -0.2785
11637W        W27254  16.270   7.242   0.972 -0.0619  0.1843  0.0773
11638W        W27255  10.574  17.789   5.105  0.1967  0.0569 -0.2867
11639W        W27256  15.711   9.753  11.457 -0.1123  0.1763  0.0002
11640W        W27257  14.599  10.322   0.213 -0.0200  0.0839  0.0887
11641W        W27258  12.392  17.118   2.715  0.1711  0.1572  0.0570
11642W        W27259   6.563  17.176  10.674 -0.1437 -0.0918 -0.1315
11643W        W27260  11.193  12.881  12.791  0.1323  0.0928 -0.0388
11644W        W27261   2.261   3.806  12.018  0.1124 -0.1503  0.1835
11645W        W27262   2.470  10.304  11.826  0.0922  0.1572  0.1048
11646W        W27263  16.803   3.957  12.894  0.0286  0.6447  0.2554
11647W        W27264  17.727   1.219  14.420 -0.0922  0.0313 -0.0642
11648W        W27265   6.998   2.243   4.341 -0.1722  0.0108  0.4310
11649W        W27266   4.863  16.203  11.099  0.0428 -0.1575 -0.2946
11650W        W27267   0.314   2.546  11.234  0.1071 -0.2575  0.3182
11651W        W27268   8.215  13.438  13.666  0.0539  0.0188 -0.1011
11652W        W27269   6.554   1.384  14.004  0.1189 -0.3419 -0.0576
11653W        W27270   7.210  18.556  11.254  0.2448 -0.0079 -0.0263
11654W        W27271   7.816  12.594   2.777 -0.2755  0.1674 -0.0431
11655W        W27272   8.687   7.204  13.618 -0.2268 -0.0382  0.0927
11656W        W27273  12.999  15.812  12.162 -0.0305  0.4544 -0.0448
11657W        W27274   2.984  13.120   4.384  0.3589 -0.0379 -0.0458
11658W        W27275   3.394   5.335   3.571 -0.1629  0.1637 -0.1010
11659W        W27276   3.185   6.776   0.849  0.0722  0.2476  0.1096
11660W        W27277   0.027   3.130   4.384  0.1473 -0.1864 -0.0221
11661W        W27278   8.950   3.504   1.978 -0.2512 -0.1852 -0.0833
11662W        W27279   6.852  17.411  12.289 -0.0464 -0.2161 -0.0783
11663W        W27280  16.519   6.185  15.602 -0.2544  0.1001 -0.2835
11664W        W27281  10.633   9.067   2.373 -0.0616 -0.2057 -0.3684
11665W        W27282   6.111  17.088  12.321 -0.2490 -0.3014 -0.2941
11666W        W27283   1.252   9.316  10.565  0.1764 -0.0741 -0.1110
11667W        W27284  16.981   9.403  11.996  0.0314  0.1955  0.2012
11668W        W27285  13.324  12.676  15.742  0.0721  0.1678 -0.0688
11669W        W27286   4.568   3.943  15.295 -0.2083  0.1488  0.2736
11670W        W27287  14.258  14.598  11.704 -0.2480 -0.1534  0.0604
11671W        W27288   5.192   0.930   2.479 -0.1731  0.1231  0.1523
11672W        W27289  15.607   4.510   5.628  0.3410  0.0527  0.1761
11673W        W27290   4.024   9.172  13.325  0.2237 -0.0876  0.0231
11674W        W27291  11.472   8.481   0.358  0.1934  0.0016  0.0081
11675W        W27292  17.955   0.459   1.438 -0.0803 -0.0212 -0.0899
11676W        W27293  17.940   3.160  13.265  0.1633 -0.0661 -0.1132
11677W        W27294  15.005  14.723  13.093 -0.2995 -0.2454 -0.0250
11678W        W27295  17.703   2.390   1.359 -0.0753  0.2346  0.1786
11679W        W27296  16.098  11.681   4.946  0.0200 -0.0676 -0.2647
11680W        W27297  12.224   2.090  11.938 -0.1745  0.0411 -0.2208
11681W        W27298   5.773  11.549   2.767 -0.1626  0.0557  0.3169
11682W        W27299   3.116   2.541  12.734 -0.0608 -0.4698  0.1164
11683W        W27300   9.412  14.530  12.273  0.1421  0.0444  0.0405
11684W        W27301   2.104   6.698   4.405  0.0918  0.2637  0.0079
11685W        W27302   7.264  14.869  12.551 -0.2031  0.0784 -0.0285
11686W        W27303   6.019  17.965  14.491 -0.2729  0.4474 -0.0857
11687W        W27304   4.627   6.750   4.486  0.0546 -0.0746 -0.2319
11688W        W27305   4.665  14.241   4.636  0.1446  0.0824  0.1286
11689W        W27306   2.840   7.506   3.416 -0.2521 -0.1230  0.2964
11690W        W27307   9.841   4.364  12.678 -0.4010 -0.3918  0.1937
11691W        W27308  14.114   0.328   2.946 -0.0645 -0.1111 -0.0577
11692W        W27309   9.970   1.228  10.535  0.0160  0.4280 -0.1691
11693W        W27310  16.843  17.272   0.553 -0.0067  0.1042  0.1252
11694W        W27311  13.454   8.883  10.690 -0.3787  0.0001  0.1085
11695W        W27312   3.670  14.937  13.608 -0.2642 -0.1063  0.3202
11696W        W27313   7.824   1.398  14.223  0.1491  0.0499  0.0270
11697W        W27314  16.344   1.821  14.626 -0.2017 -0.1551 -0.2099
11698W        W27315  18.544   7.930   9.786 -0.0011 -0.0502 -0.2016
11699W        W27316  18.039   5.007   4.516  0.1320  0.0752 -0.0981
11700W        W27317   4.317   6.880  11.187  0.2457 -0.4112 -0.1834
11701W        W27318   0.684  12.924  14.791 -0.0556 -0.0687  0.1095
11702W        W27319   6.005  15.515   1.110 -0.0356  0.1950  0.2453
11703W        W27320  13.529  10.214   0.227  0.0460 -0.0203 -0.0123
11704W        W27321  17.621   4.352   2.078 -0.0004 -0.0610 -0.0550
11705W        W27322   2.519  14.156  14.838 -0.1029  0.0358 -0.0466
11706W        W27323  12.955   0.894  11.274  0.0288  0.1590  0.0706
11707W        W27324   3.199   3.974   4.293 -0.0610  0.0698  0.0482
11708W        W27325   7.729  10.012  14.993 -0.3655  0.1269  0.0244
11709W        W27326  12.598  10.595   4.260  0.0586  0.1503  0.1121
11710W        W27327   1.348  12.480   0.749  0.0848 -0.0702  0.2843
11711W        W27328  18.405   1.353  15.520  0.2886 -0.1973 -0.1187
11712W        W27329  11.557   9.468   4.631 -0.4840 -0.3648 -0.0881
11713W        W27330   0.211  18.294   0.823 -0.0286 -0.2111 -0.1069
11714W        W27331  10.222   9.247   2.618  0.1573  0.1879 -0.1635
11715W        W27332  16.350   3.043   0.792 -0.3332 -0.2499  0.0186
11716W        W27333   4.804  14.035   1.768  0.2204  0.1017 -0.0760
11717W        W27334  11.276   5.679  14.163 -0.1632  0.3528 -0.1251
11718W        W27335  12.592   5.796  12.670 -0.1863 -0.0592 -0.0460
11719W        W27336   4.984  17.054   3.415 -0.1124  0.3040 -0.0025
11720W        W27337   0.957   6.824   0.641  0.2081 -0.1502  0.0517
11721W        W27338  12.880   3.680   1.777  0.1837  0.0553 -0.1540
11722W        W27339   8.462   9.069   5.396  0.2241  0.1682 -0.0673
11723W        W27340  10.845   8.377   2.434  0.0360 -0.0839 -0.2120
11724W        W27341   5.366  12.595   1.668  0.0513 -0.1958  0.2041
11725W        W27342  14.678   1.998  14.874  0.1166 -0.0628  0.5119
11726W        W27343  10.338   9.832  13.537  0.0803  0.2349 -0.1002
11727W        W27344  16.938   4.676   0.152 -0.2027  0.0638  0.0731
11728W        W27345   8.441   4.032   0.230 -0.0259  0.4000  0.1825
11729W        W27346  16.667   4.362  14.673  0.2161  0.1398 -0.0456
11730W        W27347  14.501  11.881  13.292 -0.2664  0.1249  0.0641
11731W        W27348  15.103   3.072  15.607  0.2252  0.0175  0.3620
11732W        W27349   1.150   3.661   5.743  0.1469 -0.0240  0.0260
11733W        W27350  17.753   0.903   2.834 -0.1956  0.0283 -0.0235
11734W        W27351   1.548   8.534  13.719  0.0254 -0.0941 -0.1315
11735W        W27352  12.608  12.858  11.654 -0.2829  0.1618 -0.1962
11736W        W27353   9.694   6.697   6.145 -0.0943  0.3219 -0.1613
11737W        W27354  11.987   6.762   4.511 -0.3757 -0.0059  0.0160
11738W        W27355  11.527  12.466  12.576  0.0840 -0.0313  0.1882
11739W        W27356  14.200   9.863   3.244 -0.1968  0.3881 -0.0143
11740W        W27357  18.487  12.158   4.952 -0.0990 -0.2172  0.0588
11741W        W27358   5.101  13.884   4.033  0.0226 -0.1370 -0.1405
11742W        W27359   2.901  17.653   0.842  0.0840  0.0044 -0.0097
11743W        W27360   4.403  14.423  12.506  0.0976  0.0313 -0.1146
11744W        W27361  14.160   0.318   2.294  0.0732  0.1300 -0.2378
11745W        W27362  15.555   3.360  15.546 -0.0650  0.1274  0.1706
11746W        W27363  10.953   0.216   3.005 -0.0577  0.3473 -0.1672
11747W        W27364  14.973   0.209   4.199  0.1006  0.0662  0.1161
11748W        W27365  15.609   2.725  11.795  0.0204 -0.1661 -0.0866
11749W        W27366   5.316  10.894  14.781  0.0341  0.1285  0.0448
11750W        W27367  16.641  16.495   4.770 -0.1011 -0.0997  0.2037
11751W        W27368  15.877   7.960   3.052  0.2478 -0.2386  0.0232
11752W        W27369   2.493   0.872  13.496  0.0962 -0.1274 -0.1108
11753W        W27370   5.888  12.399  11.877 -0.1917  0.2608  0.0735
11754W        W27371  18.003  15.632   2.264  0.1501 -0.0853  0.0038
11755W        W27372  10.081   9.517   0.408  0.0820 -0.2522  0.1437
11756W        W27373   6.405   2.820  13.934  0.3464 -0.0209 -0.0848
11757W        W27374  15.256   4.762   2.689  0.0106  0.0400 -0.1583
11758W        W27375   6.257  17.186   0.903  0.1278  0.1224  0.0869
11759W        W27376   3.898   7.490   3.590 -0.2366  0.0397  0.1387
11760W        W27377  15.890   0.395   1.638 -0.2984 -0.0128  0.1912
11761W        W27378   1.056   8.826   2.162  0.1016  0.2119 -0.1369
11762W        W27379   1.983  12.274  13.915  0.0906 -0.4011 -0.1862
11763W        W27380   1.776   1.604   5.563  0.2812 -0.0432  0.0046
11764W        W27381   5.055   2.682   2.854 -0.5040 -0.3108 -0.2938
11765W        W27382  11.811   5.544   5.584  0.0825  0.2374 -0.0200
11766W        W27383  14.793  16.338  11.196  0.1833  0.0515 -0.1644
11767W        W27384   3.248   0.750   0.868 -0.1225 -0.0147  0.1337
11768W        W27385  16.305  17.010   3.347  0.3327  0.1169  0.2304
11769W        W27386  18.197   0.866  15.295 -0.1023 -0.2284  0.1423
11770W        W27387   1.340   5.561  12.905  0.2736  0.2816 -0.0197
11771W        W27388   2.254  14.013   1.065 -0.1640  0.0244  0.0763
11772W        W27389   1.322  17.012   1.153  0.0520 -0.0148 -0.0029
11773W        W27390   7.766   7.190   5.810 -0.0098 -0.2205  0.3910
11774W        W27391   0.893   1.730   2.299 -0.0000  0.0937  0.1634
11775W        W27392  14.464  18.050   2.939 -0.0476 -0.1763 -0.1110
11776W        W27393  14.916   2.458   3.025 -0.0593  0.3314  0.1342
11777W        W27394   1.169  17.173   4.526 -0.0350  0.0887 -0.1546
11778W        W27395   5.765  17.651   0.040  0.0613 -0.1432 -0.3144
11779W        W27396   1.777   6.603   1.146 -0.0174  0.2526 -0.3851
11780W        W27397   1.845  16.987  14.410  0.1563 -0.0480  0.1808
11781W        W27398   3.546   5.225  15.247 -0.0090 -0.2196 -0.0101
11782W        W27399  10.360   9.954  11.768  0.0978  0.0218  0.1952
11783W        W27400  13.069   8.032  11.500  0.1069  0.2208  0.0425
11784W        W27401   4.488  11.679  15.328  0.1138 -0.0175  0.0820
11785W        W27402  12.705   2.142  12.886 -0.1507  0.1973  0.2255
11786W        W27403  17.142  14.316   1.261  0.0866  0.3945 -0.2356
11787W        W27404  16.825   8.679   5.246 -0.2163  0.0560  0.1445
11788W        W27405   6.231  15.643  11.517  0.0872  0.2625  0.2214
11789W        W27406   6.292   5.503   3.664 -0.1191 -0.1192  0.0438
11790W        W27407  13.510   5.989   4.038 -0.0445  0.1189 -0.0083
11791W        W27408  12.720   4.152   2.679 -0.0276 -0.2020  0.2434
11792W        W27409  16.865   6.861  14.180  0.0696  0.1652 -0.1892
11793W        W27410   6.411   2.376  11.848  0.0569 -0.1100 -0.1794
11794W        W27411   2.618  17.069  14.018  0.1462  0.1701  0.0264
11795W        W27412   5.180   1.316   4.806 -0.0895  0.1844 -0.0117
11796W        W27413  11.067  14.023  12.893 -0.3258  0.0695  0.1133
11797W        W27414   2.980   6.671  15.097 -0.3185 -0.1769  0.1775
11798W        W27415  10.430   1.690  14.415 -0.1343 -0.1602  0.0235
11799W        W27416  12.054  11.665   4.335 -0.0554  0.0054  0.0197
11800W        W27417  13.987   4.039  14.808  0.2344  0.1942 -0.1468
11801W        W27418   9.680   7.014  14.691 -0.3149 -0.0765 -0.0111
11802W        W27419   9.892   6.774   3.602 -0.2935  0.2127 -0.1565
11803W        W27420   7.589   4.588  14.715 -0.0238 -0.2082 -0.0040
11804W        W27421   6.540  13.699  12.487  0.0063  0.1664 -0.0903
11805W        W27422   7.257  16.042   4.411  0.0780 -0.1712  0.0801
11806W        W27423   0.357   2.789   5.271 -0.0285  0.0601 -0.3139
11807W        W27424  11.420   9.397  13.200  0.0301 -0.1317 -0.4697
11808W        W27425   6.126   5.444   2.752 -0.2287  0.0533 -0.5089
11809W        W27426  15.977   9.783  11.061 -0.0861 -0.0434  0.0432
11810W        W27427  12.006  14.217  12.919 -0.0932  0.0213 -0.4121
11811W        W27428  15.703   4.502  12.091  0.2215 -0.0174  0.3349
11812W        W27429   7.320   1.974  11.663 -0.2195  0.1339 -0.0555
11813W        W27430   5.208   3.657   3.295 -0.2967  0.1399 -0.1135
11814W        W27431   9.979  17.437  11.850 -0.2968 -0.0738  0.0889
11815W        W27432   9.306   0.070  15.717 -0.2962  0.4540 -0.1369
11816W        W27433  15.700  16.893   1.125  0.1464 -0.0283 -0.1464
11817W        W27434  16.785  15.197  15.409 -0.2614 -0.1158  0.2583
11818W        W27435  18.048  15.477  15.304  0.1310  0.1380  0.0686
11819W        W27436  14.889  18.013   1.053  0.0162  0.2690  0.2401
11820W        W27437  18.433  14.742  15.797  0.0133 -0.3196 -0.1494
11821W        W27438   9.631  18.115   4.278 -0.3378 -0.3937  0.0429
11822W        W27439   3.800  16.134  12.593  0.0560  0.1049 -0.1322
11823W        W27440   9.370   2.661  12.091  0.4115  0.0442  0.0239
11824W        W27441   6.994  10.255   3.007  0.1440  0.1932  0.1858
11825W        W27442   4.355   6.573   5.846  0.1043 -0.0478 -0.0102
11826W        W27443   2.286   1.001  10.272  0.0570  0.0913  0.0462
11827W        W27444   7.032  11.231  14.519 -0.0995  0.0396 -0.2605
11828W        W27445   0.633  10.203  14.548  0.1817  0.1521  0.0789
11829W        W27446   6.012  16.303   0.361 -0.2476 -0.0176  0.0939
11830W        W27447  16.111   5.529   1.753  0.0806  0.0850 -0.1000
11831W        W27448   7.740  14.578  14.212  0.1215 -0.0996  0.3179
11832W        W27449   4.372  15.335   2.376  0.0518 -0.1044  0.1856
11833W        W27450   2.348   1.439   0.925 -0.0556 -0.1591  0.2124
11834W        W27451   7.219   9.377  11.326 -0.0199  0.0308 -0.2016
11835W        W27452   3.233  11.113   0.361  0.0350 -0.0858  0.2078
11836W        W27453   2.934  15.141   2.660 -0.2424 -0.0704 -0.2019
11837W        W27454   8.030   3.596  14.441  0.1514  0.1626  0.1370
11838W        W27455  11.084  15.167   0.913 -0.1130  0.1329  0.0210
11839W        W27456   8.260   9.759   5.558  0.2028  0.0145 -0.0029
11840W        W27457   3.153  12.534  15.273 -0.0146  0.0965 -0.3263
11841W        W27458   7.771   9.304  13.435 -0.0416  0.0278  0.0735
11842W        W27459  12.108   6.436  12.295 -0.0476 -0.0310  0.1249
11843W        W27460  15.695  16.005  12.603 -0.0426 -0.2938  0.0272
11844W        W27461   4.384  18.226   2.435  0.2101 -0.2215 -0.0168
11845W        W27462   7.600   4.150  13.130 -0.1536  0.2837  0.1952
11846W        W27463   5.787   6.151  14.573 -0.1527 -0.1193 -0.0987
11847W        W27464  15.354   5.889  11.971  0.1640  0.2045  0.1805
11848W        W27465   0.939  13.835   2.323 -0.0548 -0.2714 -0.0255
11849W        W27466   0.513   7.878   0.928  0.1743  0.0265 -0.0332
11850W        W27467  16.091   4.646  15.308  0.6030 -0.3323 -0.2810
11851W        W27468  12.754   2.977   0.932 -0.3024  0.0339  0.1646
11852W        W27469  18.250   0.380  15.046 -0.1012  0.1624  0.1707
11853W        W27470   7.941   8.842  14.205 -0.1813  0.0721  0.0173
11854W        W27471   9.460  10.398   4.964 -0.0127 -0.0151  0.3251
11855W        W27472  16.891   1.083  12.900  0.1403  0.0883  0.1844
11856W        W27473  16.910   4.070  14.309  0.2111  0.0525 -0.2524
11857W        W27474   4.462  12.547   1.595  0.2905 -0.0442 -0.0732
11858W        W27475  14.701  10.931   2.788 -0.0537 -0.1574  0.1769
11859W        W27476  15.292   4.006   3.958  0.1781 -0.3055  0.1758
11860W        W27477   9.796   3.044   4.490  0.2281 -0.2377 -0.1690
11861W        W27478   9.135  12.532  15.577 -0.0401  0.0665  0.2391
11862W        W27479  13.096  14.358  12.573 -0.0792 -0.0503  0.0691
11863W        W27480   8.644  14.731  14.475  0.0231  0.2355 -0.2182
11864W        W27481   8.452   5.877  12.638 -0.0380 -0.2291  0.4047
11865W        W27482  17.294   9.074  12.178  0.1768  0.0998 -0.2092
11866W        W27483  16.339   7.308  12.207 -0.0688 -0.0992  0.2705
11867W        W27484   5.920  15.820   2.146 -0.3420  0.3383  0.1792
11868W        W27485  13.317   5.423  13.135  0.0915 -0.0696 -0.4604
11869W        W27486   5.707  17.564   1.609  0.0891  0.1106  0.2858
11870W        W27487  12.610  16.672   5.105  0.0728  0.2176 -0.0915
11871W        W27488  14.027  15.045   0.992 -0.1880 -0.1445 -0.1387
11872W        W27489   9.244  15.998  13.677  0.2303  0.1320 -0.1586
11873W        W27490  10.610   1.695   5.858 -0.2949  0.2141 -0.0233
11874W        W27491  18.620   9.684   5.773  0.3269  0.2458 -0.3051
11875W        W27492  15.397  15.670  14.506 -0.0847  0.0244  0.2473
11876W        W27493   3.075  16.778  14.163 -0.0444  0.0386 -0.0573
11877W        W27494  14.015   7.947   4.426  0.3040  0.4659  0.0958
11878W        W27495   9.157   4.889   4.355 -0.0988  0.4887  0.0433
11879W        W27496  10.214   4.990  13.836  0.3005  0.1412 -0.0296
11880W        W27497  11.018  11.163  12.659  0.0023  0.0101  0.0939
11881W        W27498   8.520   0.943   4.378  0.0528 -0.2241 -0.2520
11882W        W27499   5.565  16.533   5.004  0.1255 -0.2856  0.0131
11883W        W27500   6.425  13.226  11.613 -0.0198  0.2377  0.2245
11884W        W27501   1.336   1.321  14.235  0.0851  0.2413  0.1388
11885W        W27502   7.908   9.950   4.018  0.2225 -0.1449 -0.0175
11886W        W27503   3.104   9.851   5.281 -0.0070  0.1304  0.2001
11887W        W27504   4.089   8.223   2.564 -0.2331  0.0205 -0.1086
11888W        W27505   5.342  13.399   0.842 -0.2229  0.1287  0.1461
11889W        W27506   8.639  10.216  14.485 -0.3004  0.0564 -0.0492
11890W        W27507   1.404   5.038   5.426  0.1438 -0.2933  0.3062
11891W        W27508   3.807   0.174   4.919 -0.1877  0.1237 -0.3686
11892W        W27509   7.843  13.177   0.539 -0.2782  0.3072 -0.0265
11893W        W27510   1.668  10.679   0.953 -0.3326 -0.2593 -0.1795
11894W        W27511  14.963  14.125  10.611  0.3198 -0.1271  0.3459
11895W        W27512   7.058  13.580   1.024 -0.0207 -0.1740  0.0785
11896W        W27513  18.019  14.323   4.416  0.0686  0.1984 -0.1165
11897W        W27514   1.056   8.997   4.684  0.0877 -0.1379 -0.1149
11898W        W27515   3.325  16.411   0.689 -0.3217  0.1079 -0.1442
11899W        W27516  10.132   1.923  15.770  0.1366  0.2043 -0.1143
11900W        W27517   5.701  17.882  14.888  0.0377 -0.2040 -0.1441
11901W        W27518  18.454   3.412  13.088  0.0830 -0.0083 -0.0017
11902W        W27519  16.796  17.439  15.143 -0.0070 -0.0899  0.1841
11903W        W27520  13.077   1.237   0.508 -0.0234  0.3534 -0.0645
11904W        W27521  12.102  10.790  14.117  0.0016  0.2751  0.2379
11905W        W27522   6.106   9.791   2.894 -0.1472  0.0608 -0.1974
11906W        W27523  10.678   7.640   5.643 -0.3531  0.1012 -0.2145
11907W        W27524  16.923   5.068   4.568 -0.1574  0.0316 -0.1540
11908W        W27525   0.387  10.810   3.323  0.0385 -0.0774  0.0332
11909W        W27526   1.383  12.233  12.448 -0.0628 -0.0949  0.3370
11910W        W27527  14.565  11.541  12.215  0.0180 -0.0719  0.1394
11911W        W27528   7.723   5.248   5.496 -0.1057 -0.2330 -0.0382
11912W        W27529  16.020  18.102  13.563  0.0502  0.3500  0.2669
11913W        W27530  11.575  12.427  14.423  0.0342 -0.3318  0.0666
11914W        W27531  10.247   9.733   0.015  0.2678 -0.1698 -0.0515
11915W        W27532   5.093   5.793   1.331  0.1239 -0.1464  0.2967
11916W        W27533  16.933   8.520  11.845  0.3026 -0.1382  0.0263
11917W        W27534   9.135   0.322   2.480 -0.2698 -0.0265 -0.0931
11918W        W27535   4.304   9.884  12.615  0.0564 -0.2512  0.0455
11919W        W27536  15.765  11.534   2.297  0.1579 -0.4552  0.2019
11920W        W27537  13.474   2.007   4.274 -0.5227 -0.0241  0.3075
11921W        W27538  14.791   4.070   4.745 -0.0416  0.1302  0.0760
11922W        W27539  14.558  13.631   4.442 -0.1141 -0.1332  0.0010
11923W        W27540  14.803  13.904   2.533 -0.0381  0.0963 -0.2935
11924W        W27541   1.666   0.299   0.999 -0.1777  0.1276 -0.0392
11925W        W27542   6.976   5.853   1.678 -0.0010  0.1334  0.0973
11926W        W27543  10.341  11.996  11.389  0.0148 -0.1681  0.2379
11927W        W27544   2.492  12.337  11.461  0.1346  0.2099 -0.0956
11928W        W27545   7.392  11.822   3.780  0.1634  0.0204  0.1224
11929W        W27546   1.963  15.976  12.959  0.3897 -0.0148 -0.0127
11930W        W27547   9.465  15.203   2.388  0.1182  0.3235  0.1059
11931W        W27548  14.900  14.020  12.258  0.0056  0.3281 -0.2284
11932W        W27549  12.652   8.404   3.315  0.0530 -0.2702 -0.3405
11933W        W27550  12.515   7.774   4.983  0.0171  0.2054 -0.1119
11934W        W27551   3.772   3.921   4.619 -0.0138  0.0220  0.0098
11935W        W27552   5.549  11.994   1.563  0.1161  0.0754  0.0079
11936W        W27553  15.314  15.929  11.595 -0.1772  0.0812 -0.1433
11937W        W27554  14.734   0.757   4.316  0.1291 -0.1642  0.1550
11938W        W27555   9.582  16.809   1.443  0.0130  0.2262 -0.0298
11939W        W27556  16.259   0.222   0.186  0.2228  0.0890 -0.5654
11940W        W27557   2.247   1.184   3.037 -0.1202 -0.0913 -0.0276
11941W        W27558   2.307   5.834   2.690 -0.0298  0.2432  0.3632
11942W        W27559  14.542  17.812   3.402 -0.0711  0.2786 -0.1933
11943W        W27560   2.974  17.416   4.496 -0.0935 -0.2610 -0.0850
11944W        W27561   5.291  10.547  15.596  0.1286 -0.3416 -0.2188
11945W        W27562   3.771  10.708   4.191  0.2122 -0.0262  0.0268
11946W        W27563   1.636  14.782  13.638 -0.0442  0.0520 -0.0022
11947W        W27564   2.519  11.636  12.692  0.1300  0.0162 -0.2076
11948W        W27565  13.948  17.208  12.295 -0.3161 -0.2276  0.1164
11949W        W27566  16.766   4.410   5.316  0.1890  0.0596  0.1826
11950W        W27567   1.268   0.845   2.239  0.1505  0.1353  0.1145
11951W        W27568  10.900   7.245  15.169 -0.1010  0.0211  0.0041
11952W        W27569  16.412   5.153  13.383 -0.4788 -0.3504  0.0566
11953W        W27570   5.864  13.749  13.050  0.1591  0.0814 -0.1474
11954W        W27571   8.908  12.926   4.488 -0.1836 -0.1132 -0.0159
11955W        W27572  15.999  16.592   1.537 -0.2102 -0.2366 -0.0884
11956W        W27573   2.598  14.268   2.112  0.2112 -0.0986 -0.1806
11957W        W27574  16.533   4.245   1.300  0.1105  0.0489  0.0774
11958W        W27575   5.997   7.632   0.141  0.2425 -0.0682  0.0488
11959W        W27576   2.825   7.941  15.477 -0.0929 -0.1294 -0.0217
11960W        W27577   7.029   6.078  13.647  0.1934 -0.2659  0.0938
11961W        W27578   1.230   8.410  15.484 -0.0242  0.2645  0.1271
11962W        W27579   6.953  10.813   2.917  0.1683  0.2968  0.1194
11963W        W27580   9.398  12.866   4.196 -0.1619 -0.0051  0.1524
11964W        W27581  13.773  17.068  11.822 -0.1408  0.3774 -0.1073
11965W        W27582  10.604  12.006   2.588  0.0406 -0.1803  0.2380
11966W        W27583   6.159  13.201   2.726  0.1006  0.0051 -0.1613
11967W        W27584   3.557   4.564   3.160 -0.0841 -0.1355 -0.1390
11968W        W27585  15.504  15.722   1.865 -0.1432 -0.1680 -0.0804
11969W        W27586   1.830   5.474  15.668 -0.2417 -0.1065  0.1371
11970W        W27587   1.588  18.288   3.241  0.0741 -0.1118  0.0090
11971W        W27588   1.886  14.162  15.255  0.1835  0.2112  0.1009
11972W        W27589   2.887   2.127  11.339 -0.2304 -0.0337  0.2529
11973W        W27590  17.703   0.728  11.432  0.2480  0.0245 -0.2160
11974W        W27591   1.800   8.752   3.118 -0.0328 -0.1238  0.0345
11975W        W27592  11.703   2.717   4.206 -0.1305  0.0547 -0.2250
11976W        W27593   9.699   7.708   3.131 -0.0766 -0.1549  0.0134
11977W        W27594   8.230  11.061  15.266 -0.2917 -0.0073  0.2401
11978W        W27595  11.938   2.966   3.043  0.0689 -0.6054 -0.0230
11979W        W27596  12.570  12.103   2.921 -0.1833 -0.0029  0.1784
11980W        W27597  16.411   6.615   2.382 -0.0657 -0.1217  0.0427
11981W        W27598  17.102  10.515   3.701 -0.2736 -0.0596 -0.0341
11982W        W27599  12.994   4.870  13.691 -0.1949  0.0452  0.0268
11983W        W27600  16.386  18.173  14.269 -0.3139  0.2045 -0.0611
11984W        W27601  11.721   7.724  14.021 -0.1103 -0.1281 -0.0949
11985W        W27602  17.176   8.511  13.389  0.4754  0.2980  0.1886
11986W        W27603  10.327  14.706   4.274  0.1703  0.1053 -0.0064
11987W        W27604   0.388   9.321   5.714 -0.0864  0.2083  0.0449
11988W        W27605   4.850   7.595   0.797 -0.1827  0.0684  0.0760
11989W        W27606  11.405   8.575  12.793 -0.3370 -0.2294 -0.2434
11990W        W27607   0.326  13.151   4.948 -0.0958 -0.1708  0.1351
11991W        W27608   7.606  12.854  14.772 -0.0180  0.2653 -0.2227
11992W        W27609  13.801  18.210  11.541  0.2191  0.0827 -0.1079
11993W        W27610   4.399  16.600   0.587 -0.1984 -0.0930  0.0697
11994W        W27611  17.779  16.463   2.838  0.0023 -0.3978 -0.3073
11995W        W27612   1.175   6.411   5.028 -0.0615  0.0621  0.2340
11996W        W27613   6.679   4.659  15.353  0.0894 -0.0529 -0.2176
11997W        W27614   3.556   1.020   4.361 -0.0190 -0.0644  0.0707
11998W        W27615   3.388  11.573   3.092  0.1036 -0.0733 -0.2311
11999W        W27616   5.440  13.987   2.369 -0.1086  0.2626  0.0617
12000W        W27617  10.856   4.492  13.634 -0.2764  0.0026 -0.1215
12001W        W27618   3.569   8.832  12.824 -0.1321  0.0167  0.1386
12002W        W27619  12.502   5.090  12.112  0.2248  0.1471  0.0406
12003W        W27620   0.400  11.424   5.869 -0.0327  0.1378 -0.4040
12004W        W27621  18.077  12.464  14.714  0.0342 -0.0007  0.0802
12005W        W27622   4.685   7.871   4.075  0.1031 -0.0260  0.0674
12006W        W27623  13.851   5.824   5.488  0.2385  0.0769 -0.0699
12007W        W27624   7.710   9.244   3.572  0.0537 -0.1523 -0.0786
12008W        W27625  15.500   0.576   3.445 -0.3438  0.2054 -0.1105
12009W        W27626   5.603  17.657   1.128  0.2948  0.2674  0.4102
12010W        W27627   3.570  15.751   1.525  0.1712  0.1617 -0.0813
12011W        W27628   9.461   9.992   2.684  0.3186  0.1410  0.2129
12012W        W27629  12.267   1.497   0.214 -0.1473 -0.0839 -0.0498
12013W        W27630  16.533   1.895   3.981 -0.2877  0.1246 -0.0259
12014W        W27631   2.955  10.174  12.337 -0.2117 -0.1946 -0.3232
12015W        W27632   6.153  14.388  10.546 -0.1208  0.0650  0.3615
12016W        W27633  11.090   9.444   1.542 -0.0145 -0.0021  0.1963
12017W        W27634   9.666   0.717   5.031  0.2575 -0.0702  0.0559
12018W        W27635  11.038  18.039   4.996  0.0030 -0.1422 -0.3630
12019W        W27636   4.814   6.035  15.020  0.3242  0.0919 -0.0425
12020W        W27637   0.817  14.790   3.636 -0.1969  0.0804  0.1042
12021W        W27638   2.120  11.223   3.717  0.1888  0.0840  0.0047
12022W        W27639   1.113  12.715   1.078 -0.3220 -0.0763  0.0164
12023W        W27640   3.941   2.410   1.171  0.0573 -0.1379  0.2341
12024W        W27641   5.479   5.532  10.519  0.1836  0.1756 -0.3128
12025W        W27642   6.190  13.638   1.925 -0.2131  0.0697 -0.0376
12026W        W27643   5.439   4.333  12.325  0.1392  0.1259  0.0131
12027W        W27644   3.820  14.628  13.976  0.0479 -0.0018  0.1584
12028W        W27645  11.878   3.948   3.056  0.4229  0.1070 -0.1215
12029W        W27646  13.102   2.960  11.925  0.2572 -0.2020  0.0572
12030W        W27647  18.411   8.336  13.134  0.1507  0.0207  0.0425
12031W        W27648  15.418   5.878  14.199 -0.0446  0.4000 -0.1910
12032W        W27649   4.253   1.187  13.216 -0.3566  0.4414  0.1918
12033W        W27650  14.161  11.740  13.681  0.0118 -0.1529 -0.0456
12034W        W27651   9.564  11.408   3.840  0.0045  0.1884  0.1195
12035W        W27652  16.760  11.461  15.264  0.2908 -0.2625  0.2251
12036W        W27653   0.475   6.688   3.260 -0.1885  0.4294  0.4689
12037W        W27654   3.940  15.578   3.655 -0.1080 -0.0431  0.1583
12038W        W27655   9.223  13.096  15.294  0.2390  0.1747  0.0577
12039W        W27656   5.658   9.423   3.695  0.2270  0.0505 -0.2506
12040W        W27657  12.776  17.245   0.580 -0.1674 -0.2868 -0.2101
12041W        W27658  10.421   8.307   2.904 -0.1762 -0.0122 -0.0077
12042W        W27659   6.233  11.352   3.083  0.2283  0.3106  0.0368
12043W        W27660  14.750   5.954   4.421  0.0209 -0.2473  0.0776
12044W        W27661   9.283   6.087   0.074 -0.1472 -0.3369 -0.0666
12045W        W27662  18.035  18.301   1.232 -0.0838 -0.3141 -0.2235
12046W        W27663   2.171  15.988   0.261  0.1729 -0.2133 -0.1434
12047W        W27664  14.291   6.423   4.344 -0.2174 -0.0805  0.0753
12048W        W27665   0.933  17.865   4.128  0.2624  0.0183  0.0300
12049W        W27666   8.958   4.759  12.395 -0.2551 -0.2356 -0.2180
12050W        W27667   4.605   5.704   0.798  0.0110 -0.0378 -0.0942
12051W        W27668  17.108  12.388  14.884 -0.1192  0.0113 -0.1962
12052W        W27669  13.435  11.409  10.123 -0.1451 -0.0440  0.1849
12053W        W27670  18.496  11.331  12.155 -0.0762 -0.1567  0.0093
12054W        W27671   1.382  12.977   5.019  0.3374  0.1366 -0.1216
12055W        W27672  11.610   4.465   4.870 -0.3107  0.0974  0.1344
12056W        W27673   9.870   8.613  13.914  0.0899  0.3322  0.1629
12057W        W27674  16.398  12.483   0.323 -0.2263 -0.3999  0.3858
12058W        W27675  13.098  15.180  11.166 -0.0287  0.0320  0.1444
12059W        W27676  17.426   0.077  12.471  0.0530  0.1273 -0.0625
12060W        W27677   2.571  11.612   0.836  0.1412 -0.1843 -0.2748
12061W        W27678  11.458  10.623  13.040 -0.1676 -0.3053  0.0975
12062W        W27679   6.221  17.229  13.389 -0.3281 -0.2217 -0.1530
12063W        W27680  10.653   9.456   0.352  0.0809 -0.0718 -0.0790
12064W        W27681   0.352   1.254  10.739 -0.0166  0.0100 -0.1527
12065W        W27682  16.594  10.223  10.676 -0.3675  0.0322  0.0278
12066W        W27683  15.565   3.434  12.758  0.2269  0.1636  0.0728
12067W        W27684  18.651   6.704   0.437  0.1940  0.1338  0.0991
12068W        W27685  17.075   3.080   2.688 -0.2467  0.2950  0.4648
12069W        W27686  15.697   5.778  10.048  0.0330  0.2190 -0.1902
12070W        W27687   1.296  11.904  13.917 -0.1838  0.0203  0.2017
12071W        W27688  16.377   2.365  14.089 -0.1794 -0.1615  0.2264
12072W        W27689  11.802  18.244  12.316  0.2607 -0.1379  0.2160
12073W        W27690  12.480  13.403  10.768 -0.1176 -0.3607 -0.1067
12074W        W27691   3.712   0.385   9.841  0.0192  0.1200 -0.2116
12075W        W27692  18.611  12.520  11.627 -0.2621  0.1314  0.2711
12076W        W27693   8.195  12.737  14.379 -0.5383  0.2080  0.2363
12077W        W27694   1.307  18.271   2.417 -0.0182 -0.0691  0.2517
12078W        W27695   0.623  10.749  13.100  0.0748  0.0450  0.0549
12079W        W27696  12.825  17.431   4.455 -0.0835  0.3074 -0.1446
12080W        W27697  18.189   6.630   1.463  0.1189  0.0558  0.1408
12081W        W27698   0.998   2.037   0.714  0.0510  0.1610 -0.3035
12082W        W27699   8.813  17.549   0.420 -0.1510 -0.0669 -0.2273
12083W        W27700  12.877   7.885   1.291  0.1396 -0.0645  0.0532
12084W        W27701   1.321  11.150  13.331  0.0176 -0.0152  0.2300
12085W        W27702   4.374   5.166  12.902  0.0273 -0.0926 -0.0994
12086W        W27703   3.385  14.215   3.526  0.4695 -0.4966  0.2008
12087W        W27704   8.279   5.737   4.669  0.0226  0.4027  0.3511
12088W        W27705   6.129   8.862  15.234 -0.0122  0.1286  0.1082
12089W        W27706  17.918  14.877  12.660  0.0240 -0.0821  0.1012
12090W        W27707   4.115   6.647   4.222 -0.0343 -0.0371  0.0732
12091W        W27708  13.501  18.436  15.666 -0.1358  0.2071  0.1648
12092W        W27709   0.475   6.868  11.963 -0.2947 -0.2217 -0.2531
12093W        W27710  14.293  10.786  12.825  0.2989  0.3299 -0.1482
12094W        W27711  14.856   5.175  13.016 -0.1516  0.0364 -0.2603
12095W        W27712  17.325  16.982   0.787  0.2661  0.0605  0.0894
12096W        W27713   6.416   0.647   1.934  0.0706 -0.0183  0.0654
12097W        W27714  13.953  18.189   3.206 -0.0706 -0.1247 -0.0025
12098W        W27715  17.060   8.497  14.362  0.0379  0.3833 -0.3127
12099W        W27716  11.492  15.407  12.704 -0.2148  0.0237  0.1855
12100W        W27717   6.919  18.568  12.883 -0.1132 -0.0685 -0.2448
12101W        W27718   7.967   1.307   2.638  0.2255  0.0590  0.0892
12102W        W27719  10.806  18.514  13.155  0.2753  0.0756 -0.1900
12103W        W27720   0.416   1.599   2.150  0.0327  0.1540  0.0802
12104W        W27721  16.696   3.077  11.406  0.2600 -0.2874 -0.1285
12105W        W27722   3.189  15.615   0.462  0.0073  0.1001  0.3316
12106W        W27723   3.479  12.805   1.434  0.0545 -0.0781 -0.0265
12107W        W27724   9.165  13.537  12.031 -0.1669 -0.0427  0.1749
12108W        W27725   4.991  17.206  12.468  0.0861 -0.1850  0.0318
12109W        W27726   5.117  13.097   2.733  0.1364 -0.0862 -0.0296
12110W        W27727  11.990  18.470  12.792  0.0355  0.0095 -0.0509
12111W        W27728  15.486  13.405   1.357 -0.2030  0.1952  0.1354
12112W        W27729  11.791  14.353   0.573 -0.2736  0.2677  0.0223
12113W        W27730   8.550   9.585   2.201 -0.1070  0.1384  0.4027
12114W        W27731   0.781   4.811  12.848  0.0068  0.1333 -0.0776
12115W        W27732   0.372   3.754   5.294  0.0554 -0.0130 -0.4051
12116W        W27733   9.925  10.217  12.553 -0.0929  0.0929 -0.0678
12117W        W27734   3.283   5.882   4.691  0.1617  0.1587  0.1542
12118W        W27735   9.785   1.054   3.408  0.1815 -0.2391  0.0723
12119W        W27736   7.803  17.014  11.969 -0.0239  0.0138 -0.0701
12120W        W27737  12.517  11.306  12.316 -0.4161 -0.1807  0.0617
12121W        W27738   2.605  14.852  13.735 -0.3156  0.0448 -0.3966
12122W        W27739  16.615  13.032   0.574  0.2745  0.0508 -0.1341
12123W        W27740   6.739  17.537   1.596 -0.1963  0.1965  0.0399
12124W        W27741  13.682  14.877   5.855  0.1847  0.2741 -0.1186
12125W        W27742   6.624   5.382   0.461  0.2699 -0.1723  0.2993
12126W        W27743  10.688  16.880   3.534  0.1183  0.1162 -0.2922
12127W        W27744   0.322  16.883  12.933  0.2768  0.0374  0.0165
12128W        W27745   3.317  17.124  11.784 -0.3623  0.0029 -0.1485
12129W        W27746   1.348  10.891   0.547 -0.1174  0.0798  0.0396
12130W        W27747  12.507   7.460   2.930 -0.4174  0.1921 -0.3424
12131W        W27748  18.545  12.744  15.317  0.3121 -0.0046  0.1085
12132W        W27749  17.801  12.388   3.731  0.1031  0.0563  0.0307
12133W        W27750  13.197  16.720   0.963  0.1307 -0.0777  0.0333
12134W        W27751  16.490  10.116   4.363  0.0840  0.1230 -0.1519
12135W        W27752  17.001  18.179  14.440  0.0470 -0.0378  0.0566
12136W        W27753  14.792   5.341  10.277 -0.0405 -0.1261 -0.4931
12137W        W27754   7.267   0.169  10.259  0.1166 -0.1202 -0.1348
12138W        W27755   8.579   7.585  14.520  0.2663  0.2605 -0.2207
12139W        W27756  15.475  10.250   1.177 -0.0944 -0.0742 -0.2405
12140W        W27757   9.612   0.336  15.264  0.3993  0.3230  0.1705
12141W        W27758  15.673   9.656  10.575 -0.1039  0.0833 -0.2010
12142W        W27759   4.598   6.710   1.677 -0.3179 -0.1079 -0.0544
12143W        W27760   7.781  14.902   1.254  0.4147 -0.0834  0.0882
12144W        W27761   5.801  14.566   1.055  0.0037 -0.0804  0.1929
12145W        W27762  17.025   4.280   2.582  0.1146 -0.0595 -0.1798
12146W        W27763   4.808   0.632  14.333 -0.2998  0.1175 -0.2107
12147W        W27764   7.117  10.788  14.292  0.1282  0.2644  0.1804
12148W        W27765   8.306  16.601  10.235  0.0511  0.0529 -0.1525
12149W        W27766  17.883   0.733   4.419  0.2833 -0.2466 -0.2901
12150W        W27767  10.149   0.747   4.893  0.0023 -0.0823 -0.3005
12151W        W27768  11.058  16.588  15.737  0.0112  0.2734  0.0520
12152W        W27769   0.224  11.349  13.314  0.1031  0.0903  0.1733
12153W        W27770   1.763   0.384  12.712  0.2705  0.0258  0.1781
12154W        W27771  15.172   6.665   4.671 -0.3516  0.0333 -0.0787
12155W        W27772  11.913  15.758  15.160 -0.0672  0.3290  0.0944
12156W        W27773   5.368   5.364   1.251 -0.3165  0.1659 -0.0234
12157W        W27774  18.063   8.768   2.554 -0.0006  0.0856  0.1024
12158W        W27775   5.517  15.471  14.996 -0.0273 -0.0906  0.2057
12159W        W27776  12.438  10.722   5.234  0.2435  0.1771  0.5597
12160W        W27777   5.406   8.001  10.501 -0.1282  0.1853 -0.2036
12161W        W27778   0.842  10.455  14.958  0.2440 -0.1677 -0.0827
12162W        W27779   0.169   6.723   2.810  0.1899  0.0382 -0.3238
12163W        W27780   5.303   4.644  14.118  0.0762  0.3537 -0.2406
12164W        W27781  16.813  18.446  15.471  0.0182 -0.0189  0.2954
12165W        W27782  16.117  17.167  11.751  0.0381  0.1650  0.1938
12166W        W27783   4.820  10.380   0.756 -0.2182  0.1110 -0.2890
12167W        W27784   9.057  15.497   0.322  0.2724  0.0705  0.3398
12168W        W27785  14.930  12.969  13.799 -0.3944 -0.1067 -0.1915
12169W        W27786  14.883  17.520   1.343 -0.2837 -0.0530 -0.0543
12170W        W27787   5.799   6.633   3.596 -0.0027 -0.0800 -0.1351
12171W        W27788  13.590   7.059  12.256  0.1069 -0.0792 -0.0055
12172W        W27789   8.813  13.209  15.081  0.1114  0.0471  0.1436
12173W        W27790   9.638  15.730  13.829 -0.2776  0.0133 -0.1035
12174W        W27791   5.484  14.029  14.108  0.1005 -0.2045 -0.1059
12175W        W27792   0.345  12.908   0.318  0.1302  0.0930  0.0081
12176W        W27793   7.746   9.478   3.141  0.2132  0.0143  0.0643
12177W        W27794  15.403   5.773  15.787 -0.1966 -0.1590  0.2722
12178W        W27795  13.177  10.002   0.542  0.0041 -0.2219  0.3276
12179W        W27796  11.170  14.778   0.006  0.0518  0.1106 -0.2544
12180W        W27797  11.914  13.345  14.571 -0.2329  0.2862 -0.1910
12181W        W27798   4.929   4.132  13.973  0.0022 -0.2478  0.0840
12182W        W27799   4.667  17.939  14.567  0.0846 -0.0963 -0.2587
12183W        W27800   2.351   8.665   1.161 -0.2893 -0.0586  0.1557
12184W        W27801  15.770  13.808  12.320  0.1894  0.1383  0.0794
12185W        W27802  13.393   9.559  12.982 -0.3344  0.0900 -0.0537
12186W        W27803  10.648  14.766  13.406  0.2372 -0.1181 -0.2381
12187W        W27804   1.292   5.865  14.274  0.1684  0.0579  0.0428
12188W        W27805   2.232   7.293  14.715  0.2874  0.2849  0.0327
12189W        W27806  16.997   1.055   2.037 -0.0514  0.1287  0.2351
12190W        W27807  10.915   0.191  14.637 -0.1137  0.0684 -0.0911
12191W        W27808   6.113   4.677   0.833  0.0316  0.2803  0.1647
12192W        W27809   9.743  12.161   9.339 -0.0537  0.1032 -0.0064
12193W        W27810   6.389  13.666  11.785 -0.3863  0.0276  0.0519
12194W        W27811   2.876  11.167   3.341 -0.3916  0.2116 -0.3560
12195W        W27812  10.131  17.126  12.666 -0.0076  0.0181  0.1220
12196W        W27813  15.318  16.846   5.787  0.0017  0.0322 -0.3608
12197W        W27814   3.076   8.222   4.527 -0.1621  0.0556  0.0249
12198W        W27815   1.447   1.546   5.080 -0.2064 -0.0729 -0.0230
12199W        W27816   0.643   5.888   0.592 -0.1911 -0.0657 -0.3206
12200W        W27817   6.789   5.257  11.492  0.4465 -0.0475 -0.4086
12201W        W27818   9.156   4.205   6.106  0.0308  0.0463 -0.2789
12202W        W27819   9.308   3.559   5.539  0.0317  0.1210  0.1091
12203W        W27820  15.794   6.533   4.870  0.0088  0.1277  0.3983
12204W        W27821   4.246  16.278  14.486  0.1277 -0.0926 -0.0315
12205W        W27822   2.306   5.564  13.212 -0.0352 -0.0142  0.0341
12206W        W27823  11.678  15.560   1.505 -0.3435  0.0383  0.1093
12207W        W27824   8.468  16.169   5.576  0.2674  0.3609  0.1121
12208W        W27825   5.862   2.707   4.119  0.1336  0.0892  0.3529
12209W        W27826  13.451  17.024   1.260 -0.0124  0.1504 -0.0734
12210W        W27827   4.006   3.699   2.100  0.2019 -0.0111 -0.0345
12211W        W27828   7.767  13.623  13.862 -0.3266 -0.0604 -0.3159
12212W        W27829   1.478   0.737  14.284 -0.2775 -0.4863 -0.0397
12213W        W27830   2.247  17.803  12.409 -0.2605 -0.0428  0.2253
12214W        W27831   4.867   9.619  13.830  0.2637 -0.0378  0.0602
12215W        W27832  10.754   2.007  12.321 -0.3773 -0.2012  0.2407
12216W        W27833   5.368   3.386  14.941 -0.0999  0.0055  0.1629
12217W        W27834  11.472  11.354   0.194  0.2759 -0.0365  0.0697
12218W        W27835   4.673  11.270   3.619  0.0391 -0.0282 -0.0959
12219W        W27836   6.216   5.837   4.035 -0.0390 -0.3777  0.1045
12220W        W27837  12.231  10.238   2.051 -0.1198 -0.1289 -0.3327
12221W        W27838  13.256  12.596  12.269  0.3984 -0.0211 -0.0309
12222W        W27839  14.247  11.054  14.652  0.0507  0.1239  0.0838
12223W        W27840   4.322  15.059   3.680 -0.1362  0.0119  0.1669
12224W        W27841   2.616  17.315   2.215  0.0944  0.0013  0.0059
12225W        W27842  14.452  10.235  11.648  0.0552 -0.0086 -0.0701
12226W        W27843  11.666  17.709   5.298 -0.0763 -0.0756 -0.0157
12227W        W27844   4.577  15.131  12.075 -0.1139  0.2298 -0.0898
12228W        W27845   9.970  12.147  13.982  0.0241 -0.0148  0.0033
12229W        W27846   0.727   6.040   2.784  0.3475  0.2127 -0.1568
12230W        W27847   5.676   1.078  12.037 -0.4647 -0.3099 -0.1359
12231W        W27848  13.041   4.011  12.718 -0.0683 -0.3957  0.0771
12232W        W27849   2.328  15.540  15.002  0.0472  0.2694 -0.2054
12233W        W27850  16.995  12.998  10.788 -0.1569 -0.0985 -0.0414
12234W        W27851  12.939  14.308   5.925  0.1572 -0.3086 -0.1262
12235W        W27852   2.312  10.138   2.846 -0.0099  0.0776 -0.2871
12236W        W27853  18.328   7.753   2.033 -0.0562  0.3709 -0.1930
12237W        W27854  10.603   3.367   4.880  0.1387  0.1778  0.0740
12238W        W27855  16.649   1.553   4.758 -0.2830  0.1126  0.0317
12239W        W27856  17.234  18.371  12.729 -0.1035  0.2097 -0.0567
12240W        W27857  14.913  16.196  15.184 -0.1360  0.0612  0.1127
12241W        W27858   0.841   5.614  14.150  0.1308 -0.1897 -0.1060
12242W        W27859   6.436   8.590   2.272 -0.0660  0.0164  0.0024
12243W        W27860  11.696   0.781  15.529 -0.0472  0.0365  0.0999
12244W        W27861   4.168   5.423   2.279 -0.1405  0.0370  0.0647
12245W        W27862   9.692   6.356  13.385  0.0603  0.1422 -0.1888
12246W        W27863  11.805   4.417   2.807  0.0306 -0.3040 -0.0493
12247W        W27864  18.097  14.336   2.835 -0.0209  0.1301 -0.1160
12248W        W27865   8.664  14.522   2.295  0.1078  0.0058 -0.0031
12249W        W27866  16.607  17.281   3.606 -0.2017  0.1268 -0.0961
12250W        W27867  13.655   6.494   4.298 -0.0228  0.0066  0.0950
12251W        W27868   2.031  16.014   2.103  0.0206  0.1541 -0.0663
12252W        W27869  10.268   1.223   1.924 -0.0421 -0.2071 -0.0774
12253W        W27870  15.885   7.107   0.615  0.1737 -0.1157 -0.0104
12254W        W27871  11.747  14.339  14.687 -0.1468 -0.1529 -0.1476
12255W        W27872  13.725   6.097   0.922  0.1006 -0.0908  0.1600
12256W        W27873  16.633   9.518  14.250  0.0888  0.2934 -0.0303
12257W        W27874   5.065  13.824  15.738  0.1565 -0.1553 -0.0859
12258W        W27875  15.158   1.437   5.471  0.1325  0.3729  0.1371
12259W        W27876   1.404   1.617   3.728  0.2603 -0.0806 -0.3060
12260W        W27877  13.222  14.025  14.615 -0.3449  0.0105 -0.2313
12261W        W27878   0.150   2.163  14.454 -0.1297 -0.0152  0.2513
12262W        W27879   9.484   2.039   3.266  0.0644 -0.1390 -0.0241
12263W        W27880   8.799  14.052  13.196  0.0009 -0.3814 -0.0365
12264W        W27881   3.665   3.304   9.785 -0.0252  0.0287 -0.0636
12265W        W27882  11.856   9.421   3.216  0.0276 -0.0696  0.1545
12266W        W27883   6.055  11.010  11.813  0.1710 -0.0002  0.1398
12267W        W27884   5.705   0.939   0.043 -0.0528 -0.0729 -0.1001
12268W        W27885  13.551   7.014   3.887  0.0152 -0.3173 -0.0085
12269W        W27886   6.398  17.900  15.301 -0.0398 -0.0829  0.0376
12270W        W27887  16.159  16.880  13.069  0.0835  0.2766  0.0134
12271W        W27888   1.541   0.380   5.290 -0.1495 -0.1116 -0.0972
12272W        W27889  17.133   0.387  14.130 -0.3481 -0.0273  0.0753
12273W        W27890  12.327   9.326  10.501 -0.0469 -0.0162  0.2858
12274W        W27891  18.556  12.866  13.804  0.3257 -0.0241 -0.1797
12275W        W27892  18.623  14.242   3.539 -0.1428  0.2650  0.0805
12276W        W27893  13.998   9.922   9.599  0.2766 -0.0494 -0.0454
12277W        W27894   1.677  12.812   4.169 -0.0010  0.1045  0.1461
12278W        W27895   1.270  10.306   1.638  0.2353 -0.0582  0.4334
12279W        W27896   3.193   9.875   3.063  0.1097  0.0105  0.0152
12280W        W27897   5.439  16.175  10.184  0.0640  0.0681  0.0545
12281W        W27898   3.336  10.256  13.470 -0.0840 -0.0699 -0.0457
12282W        W27899   1.769   1.431   3.419 -0.0984  0.2321  0.1430
12283W        W27900  14.889   5.728   4.040 -0.0584 -0.0854 -0.1742
12284W        W27901   8.990   9.163   3.908 -0.0347 -0.2734  0.1551
12285W        W27902  18.494   0.309   3.227  0.0919  0.1138 -0.3156
12286W        W27903   0.596  12.691   4.832  0.0696 -0.0887 -0.2217
12287W        W27904   9.004   0.458  14.701  0.3149  0.2381  0.2098
12288W        W27905  10.174  14.274  12.264  0.0987 -0.3864 -0.1493
12289W        W27906  12.165   8.107  14.272 -0.3959 -0.0357 -0.3153
12290W        W27907  11.776   8.936   1.553  0.0228  0.4973  0.0538
12291W        W27908  12.141   2.093   2.893 -0.0958  0.1109 -0.2274
12292W        W27909   5.310   6.719  13.516  0.0615 -0.0749 -0.0632
12293W        W27910   4.773  14.574  15.723 -0.3366  0.1611 -0.1047
12294W        W27911   0.794   5.533   2.829 -0.1580 -0.0531 -0.0338
12295W        W27912   1.639   7.579  14.991  0.0831  0.0657  0.0340
12296W        W27913   5.213  13.248   2.254 -0.0625  0.2249 -0.0957
12297W        W27914   5.169   6.930   4.299  0.1336  0.0092 -0.1063
12298W        W27915   8.147   0.412   2.553  0.1685  0.1806  0.1160
12299W        W27916  15.871   6.923   5.367 -0.1495 -0.1043  0.0957
12300W        W27917   4.612   1.841   3.146  0.0458  0.1764  0.0446
12301W        W27918   1.586   9.832   3.990 -0.0469  0.1664 -0.3694
12302W        W27919   6.329  16.786   3.289  0.1523  0.0158 -0.0022
12303W        W27920   9.714  11.201   1.184 -0.1320 -0.2881 -0.0597
12304W        W27921  10.511   1.854   4.399 -0.3155 -0.0163  0.0709
12305W        W27922   4.064   6.448   4.676  0.4755  0.0500  0.3404
12306W        W27923   0.785  13.101   3.176  0.0621  0.0807 -0.1755
12307W        W27924   7.734  13.278   3.687  0.1202  0.0134 -0.2845
12308W        W27925   4.313  14.332   3.633 -0.0706  0.1239  0.2314
12309W        W27926   9.638  12.315   1.304  0.3418 -0.2281  0.1631
12310W        W27927  10.185   8.600   0.002  0.0728 -0.0815 -0.0717
12311W        W27928  15.823   2.389   0.121  0.0618  0.1085  0.2572
12312W        W27929   3.482   0.778   2.013  0.3381  0.3017  0.3431
12313W        W27930   1.769   1.476  15.028  0.0950 -0.3439 -0.1459
12314W        W27931   8.881  16.835   4.652 -0.0839  0.0541  0.4805
12315W        W27932  17.217  13.376   2.501 -0.0218  0.0960  0.3557
12316W        W27933  13.647   2.580   0.644  0.2431  0.3573 -0.2378
12317W        W27934   3.523  18.389   4.777  0.0388 -0.1456 -0.1753
12318W        W27935  12.308   2.484   0.483  0.2574 -0.2317  0.0859
12319W        W27936   8.014   2.732   3.517 -0.1316 -0.1249 -0.1325
12320W        W27937   4.757  15.980  12.219  0.1262 -0.0557  0.4363
12321W        W27938   2.807   0.274   3.652  0.3460 -0.3189  0.4176
12322W        W27939  14.878  17.439   3.383 -0.1213  0.1744  0.0792
12323W        W27940   1.488  14.575  11.543 -0.2544  0.1321  0.4266
12324W        W27941   2.675   2.438   3.898 -0.3330 -0.2908 -0.1471
12325W        W27942  15.420  12.907  15.351  0.1865  0.3182  0.2188
12326W        W27943   5.685   0.954   3.544 -0.0019  0.3147 -0.0173
12327W        W27944   1.333   7.361   1.664 -0.2999 -0.2682 -0.1340
12328W        W27945  17.584  11.373   4.342  0.1474  0.1395 -0.0764
12329W        W27946   8.876   5.126   2.096 -0.0520  0.2790 -0.3828
12330W        W27947   4.306   9.696   0.081 -0.2733  0.1700  0.2641
12331W        W27948  11.261  15.026   0.432  0.3003  0.4937 -0.0458
12332W        W27949  13.707  12.576   5.031 -0.1325 -0.1279 -0.1478
12333W        W27950   1.804  16.190  11.621  0.0399  0.2707  0.2267
12334W        W27951   2.161  15.178   2.051  0.2285  0.2330  0.2851
12335W        W27952  17.895  14.806  15.763 -0.0664 -0.0958 -0.2234
12336W        W27953  14.443   3.644  12.360  0.1616  0.2984 -0.2750
12337W        W27954   1.923   5.964   5.308 -0.1731 -0.0715 -0.2009
12338W        W27955  12.316  18.266  11.434 -0.1737 -0.2640  0.0025
12339W        W27956   8.855   5.612  12.680  0.0369  0.1841 -0.2363
12340W        W27957  15.350   4.683   3.229  0.1543  0.3517 -0.0527
12341W        W27958   5.691   2.456   4.606 -0.1666 -0.0845 -0.1467
12342W        W27959  10.591   9.124  13.698  0.0026  0.1594  0.2366
12343W        W27960  11.816  14.833   3.536 -0.3121  0.0818 -0.3548
12344W        W27961  14.512   3.139   1.434  0.1543  0.3095  0.3427
12345W        W27962  10.372   6.905   1.925  0.2378 -0.1025 -0.1106
12346W        W27963  16.105  10.848  13.686 -0.0422  0.0586 -0.0880
12347W        W27964  10.909  17.004   4.896  0.0779  0.2590 -0.3334
12348W        W27965   5.650  11.024  12.953 -0.0583  0.0895 -0.1393
12349W        W27966  13.472   4.788  15.354 -0.1617  0.2523 -0.1965
12350W        W27967   0.337  15.853  11.960  0.1492  0.2316  0.1947
12351W        W27968   6.322   4.203   0.483 -0.0344  0.1898  0.1021
12352W        W27969  15.690  15.185  11.921  0.0176 -0.0224  0.0673
12353W        W27970   9.815   1.898   4.928 -0.0357  0.1128 -0.0904
12354W        W27971   2.587  17.227   4.146 -0.2182 -0.0357 -0.5431
12355W        W27972  16.646  18.429   3.092 -0.1559 -0.2248  0.0902
12356W        W27973  13.150  10.949  12.901  0.0620  0.1393  0.1900
12357W        W27974  14.835   4.279   0.642 -0.1719  0.4173 -0.3482
12358W        W27975  13.300  12.906   1.837 -0.2547 -0.0537  0.1959
12359W        W27976  12.266  10.032  15.325 -0.2987 -0.2925  0.1696
12360W        W27977  10.260   5.522  14.416 -0.1653 -0.0299  0.1429
12361W        W27978   1.220  11.166  14.374  0.0987 -0.1789 -0.0326
12362W        W27979   6.844  17.487   2.552 -0.0115 -0.0436  0.0124
12363W        W27980   9.745   9.072  14.143  0.0607 -0.0774  0.3297
12364W        W27981  15.119  11.871   9.476 -0.0957  0.1767  0.3182
12365W        W27982   9.423  13.413   0.767 -0.1057  0.1219  0.3308
12366W        W27983  18.172  18.330   4.432 -0.1924  0.0361 -0.0435
12367W        W27984   4.799   0.478   5.034 -0.1127  0.0743  0.0009
12368W        W27985  10.791  16.618  14.834 -0.4764  0.0630  0.0314
12369W        W27986  13.711   6.845   0.939  0.1936  0.1178 -0.1477
12370W        W27987  17.000  11.729   3.789  0.3314 -0.0297  0.3058
12371W        W27988   5.074   6.708  11.124 -0.3355 -0.1494  0.3377
12372W        W27989   3.789   9.511  11.338 -0.0234  0.0867  0.1318
12373W        W27990   8.258   8.443   4.129 -0.1806  0.1117  0.1173
12374W        W27991   8.298  17.927  12.929 -0.1565  0.1305  0.0330
12375W        W27992   2.240  17.511   2.668 -0.0703 -0.3327  0.1209
12376W        W27993   5.431  11.495   0.840 -0.0433 -0.1446  0.3098
12377W        W27994   6.651  18.256  13.947  0.2812  0.0192  0.1666
12378W        W27995  16.663   3.902   4.420 -0.2421  0.0284 -0.1593
12379W        W27996  13.168   8.105  13.337  0.1727 -0.0939 -0.2574
12380W        W27997  16.681   0.599   3.385 -0.0136  0.3506  0.1010
12381W        W27998   1.274  17.715   1.592 -0.0032  0.1218  0.2930
12382W        W27999  12.694   9.777   3.080 -0.1289 -0.0729  0.1981
12383W        W28000   0.208  10.206  14.800  0.0516 -0.0085  0.0277
12384W        W28001  17.533   6.946   1.169 -0.3404  0.0723 -0.0310
12385W        W28002   2.958  14.597   1.164 -0.0036  0.1105 -0.0096
12386W        W28003  13.882  10.695   3.762  0.0399 -0.0241 -0.0728
12387W        W28004   0.804  15.719  13.344  0.0696 -0.0573 -0.0840
12388W        W28005   6.747  16.903   2.848 -0.1396 -0.1422 -0.2119
12389W        W28006  11.787  18.381   2.128  0.2904 -0.3450 -0.1370
12390W        W28007   5.715  15.173   4.208  0.0101  0.1323  0.1543
12391W        W28008  17.246  14.522  11.787 -0.0847 -0.0718  0.0373
12392W        W28009   0.349  11.816   1.389  0.2583  0.0810 -0.2364
12393W        W28010   2.108  17.452   3.356 -0.4261 -0.1685  0.0110
12394W        W28011  12.543   6.184  12.170  0.2966 -0.3438  0.2428
12395W        W28012  18.154   4.973  12.877 -0.0917 -0.0322  0.1057
12396W        W28013  11.326   4.402   1.195  0.0132  0.1029 -0.2588
12397W        W28014   0.545   3.185   3.302 -0.3346  0.2020  0.0059
12398W        W28015   4.132  18.539  12.266  0.0770  0.1291 -0.1025
12399W        W28016  16.364   7.321   0.501 -0.2234  0.0721  0.3641
12400W        W28017  14.618  14.896   3.360 -0.2792 -0.4133  0.0703
12401W        W28018  10.357   3.819   4.747  0.1145  0.0220  0.0234
12402W        W28019   9.009   3.845  11.688 -0.3663  0.0831 -0.0125
12403W        W28020  15.722   0.923   2.324  0.0908  0.1986 -0.1222
12404W        W28021  13.583  15.945   2.059 -0.3575 -0.0878 -0.0293
12405W        W28022   8.194   5.178  15.793  0.1367  0.1182 -0.0433
12406W        W28023  16.259  10.053  14.314 -0.4452  0.2177 -0.1278
12407W        W28024  17.461  13.291  15.333 -0.1139  0.1661 -0.3474
12408W        W28025   9.180  15.189   4.169  0.0478 -0.0743 -0.2139
12409W        W28026   5.253   9.989  13.778 -0.0177 -0.0122  0.0307
12410W        W28027  11.447   1.780   3.075 -0.1196 -0.0785  0.0001
12411W        W28028   8.530  12.049  14.054 -0.2642  0.0473  0.0503
12412W        W28029  17.567   3.654   4.542  0.0846 -0.3519 -0.1590
12413W        W28030  10.812  18.640  12.105  0.0947 -0.3712 -0.0174
12414W        W28031  17.342  15.685  11.834  0.1074  0.0793  0.2804
12415W        W28032  16.434   2.760  14.431  0.1190 -0.1278  0.1424
12416W        W28033  14.214  16.489   2.597  0.1313 -0.4425 -0.1052
12417W        W28034   1.503   9.859  13.479  0.1975  0.0623  0.4242
12418W        W28035  13.038   3.184   0.561 -0.0530  0.3488  0.3314
12419W        W28036  18.395  14.599  12.868 -0.0199  0.0293  0.2450
12420W        W28037  15.101   8.556  11.112  0.1593  0.0182  0.3498
12421W        W28038   3.742  12.326  12.210 -0.2368  0.0326  0.3637
12422W        W28039  13.568  10.347  14.623 -0.0273  0.1595  0.1071
12423W        W28040   3.738   0.426  15.599 -0.2091 -0.0226  0.1161
12424W        W28041  16.640   5.195   4.180 -0.2616 -0.1046  0.5044
12425W        W28042  15.127  10.673   3.221 -0.0907  0.1072  0.1986
12426W        W28043  13.243   3.002   0.012  0.0427 -0.1295 -0.0427
12427W        W28044  13.044   7.775   4.217 -0.3483  0.0327  0.1150
12428W        W28045  13.477  13.785  14.983  0.0125  0.1570  0.0148
12429W        W28046   5.458  13.540  13.951 -0.1178  0.2935  0.1120
12430W        W28047   4.934   9.141  12.823 -0.1996 -0.1900  0.0625
12431W        W28048   9.168  12.198   1.149  0.0845  0.2962 -0.0284
12432W        W28049   2.563  11.351   3.763 -0.2541 -0.0273  0.0911
12433W        W28050   6.137  14.240  13.533  0.3183  0.2402  0.1407
12434W        W28051   5.306  14.641   0.896 -0.0228  0.1839  0.1575
12435W        W28052   2.301  15.147   4.313 -0.4315 -0.2767 -0.0283
12436W        W28053   3.131   0.010   1.408  0.1100 -0.0139 -0.1269
12437W        W28054  17.860  13.371   1.858  0.0744  0.0541 -0.0760
12438W        W28055   6.222   9.969  15.021 -0.1110 -0.1560  0.1191
12439W        W28056  16.273   5.432   3.953  0.0986 -0.2080 -0.1873
12440W        W28057  18.109  15.055   5.708  0.0386 -0.0831 -0.2907
12441W        W28058   7.205  16.139   1.002  0.1963 -0.0316  0.1207
12442W        W28059  11.563   5.809   3.269 -0.0344 -0.3580 -0.3430
12443W        W28060  11.359  13.137   0.754 -0.2739  0.2110  0.3590
12444W        W28061  15.373   7.628   3.493 -0.1104  0.0330 -0.0443
12445W        W28062  14.299  14.119   2.700  0.0893  0.0668  0.2891
12446W        W28063  16.798  13.601  14.937 -0.2319 -0.0220  0.0061
12447W        W28064  18.451   9.721  14.293  0.0805  0.3621  0.2798
12448W        W28065  16.944   3.492  14.722  0.0328 -0.0668  0.0309
12449W        W28066   5.782  14.182  12.258 -0.0737 -0.2454  0.0744
12450W        W28067   5.911  12.332  12.888 -0.2065  0.3145  0.0486
12451W        W28068  13.292   7.261   1.824 -0.0631  0.2321  0.1719
12452W        W28069   7.488   8.990  11.357  0.0189  0.3695 -0.0068
12453W        W28070   4.326   3.568   3.737 -0.2395  0.0479 -0.1956
12454W        W28071  17.353   4.960   2.697 -0.1385  0.0067 -0.0296
12455W        W28072  15.126  17.256   1.730  0.0963  0.2630 -0.1426
12456W        W28073   1.584   6.528  13.132  0.2353 -0.3648  0.3626
12457W        W28074  12.233   6.699   1.796  0.0743 -0.0887  0.1614
12458W        W28075   6.486  12.422  10.795  0.1174  0.2690  0.1032
12459W        W28076  18.188  15.273  13.312  0.0066  0.1265 -0.1255
12460W        W28077   5.006  16.661  14.546 -0.1313  0.0237  0.0019
12461W        W28078   5.870   3.257   5.004 -0.0382  0.1516  0.1855
12462W        W28079  11.367  14.995   2.306  0.3370 -0.0210 -0.1289
12463W        W28080  15.254   4.892   4.793 -0.0306  0.0989  0.0970
12464W        W28081   8.470  15.164  11.742  0.1089 -0.0141 -0.0061
12465W        W28082   0.020   8.493  14.977 -0.0021  0.0208  0.0859
12466W        W28083   2.059   4.784  13.388  0.0796  0.2407  0.1111
12467W        W28084  13.091  16.887   5.161 -0.4216 -0.2298  0.3559
12468W        W28085   4.280   9.320  14.229 -0.0419 -0.1321  0.0103
12469W        W28086   3.400  17.364  12.916  0.1614 -0.0203  0.4123
12470W        W28087  15.042   6.229   3.261 -0.0522 -0.1247 -0.2052
12471W        W28088  15.068  11.881   9.993 -0.0275  0.0050 -0.3664
12472W        W28089   8.895  12.153   1.647  0.4167  0.0928 -0.0031
12473W        W28090   7.029   5.595  14.352 -0.1097  0.0845  0.0900
12474W        W28091  16.945   0.104  12.620  0.0759  0.0068 -0.0381
12475W        W28092  17.953  16.174   0.500  0.2880 -0.1219  0.1630
12476W        W28093   0.438  13.315  15.753  0.0480 -0.1170 -0.3583
12477W        W28094   1.153   2.988   1.579 -0.0084 -0.1615 -0.0805
12478W        W28095  15.906   5.879  10.977 -0.1398  0.0496 -0.2884
12479W        W28096  18.518  10.137   4.217  0.3061  0.3093  0.0109
12480W        W28097   9.825  10.624   1.140  0.1139 -0.3104  0.1715
12481W        W28098  10.669  10.838   1.642 -0.1611 -0.0955 -0.1889
12482W        W28099  12.721  14.634   1.270  0.1483  0.1241  0.1300
12483W        W28100  10.927  16.901  15.366  0.0107 -0.2221 -0.0882
12484W        W28101   6.836  17.497   4.332  0.3311 -0.0626 -0.0442
12485W        W28102   8.737   2.674   2.291 -0.0712 -0.0148  0.0627
12486W        W28103  10.021  18.017  12.026  0.0956  0.1386 -0.0410
12487W        W28104  10.967  15.843  14.232  0.1485  0.2821  0.4798
12488W        W28105  13.313   2.852   3.500 -0.2141  0.2443 -0.1760
12489W        W28106  12.406  14.951   4.643 -0.2065 -0.0583  0.0750
12490W        W28107   4.110   4.988   1.995 -0.1317 -0.0393 -0.0006
12491W        W28108  16.634   2.719  11.758  0.0994  0.1984 -0.1146
12492W        W28109  18.012   5.854  11.842 -0.1309 -0.0796  0.0577
12493W        W28110   9.018  11.671  11.577 -0.0319  0.0931  0.1303
12494W        W28111   4.078  15.664   9.936  0.0206  0.1549  0.3583
12495W        W28112   0.466  17.905  15.455 -0.1787  0.2994  0.2367
12496W        W28113   6.226  10.250  13.681  0.2294  0.1046 -0.1958
12497W        W28114  11.226   9.432  12.315  0.0147 -0.2787  0.3543
12498W        W28115   7.222  15.324  11.733 -0.2155  0.0966  0.2047
12499W        W28116   5.692   7.186   4.345  0.4326  0.0723  0.1291
12500W        W28117  12.884   4.552  11.317 -0.3523  0.0777  0.0570
12501W        W28118  18.502   5.214   5.125  0.0339  0.0869  0.0726
12502W        W28119   9.536   2.124   6.054 -0.1785  0.2010 -0.0421
12503W        W28120  10.420  11.865  12.394 -0.3144 -0.0295  0.0688
12504W        W28121   2.045  16.226  14.873  0.1030 -0.2290  0.1453
12505W        W28122   8.193  14.572   2.204  0.2571 -0.0994 -0.0929
12506W        W28123  16.382   9.983  10.229 -0.1020 -0.0790 -0.1118
12507W        W28124   2.985   0.841  11.065 -0.0702  0.0163 -0.0672
12508W        W28125   1.855   3.012   0.711  0.1564  0.3991  0.2767
12509W        W28126  10.566  12.014  10.960  0.0528  0.1200  0.2276
12510W        W28127   9.844   0.540  15.699 -0.4256  0.0626 -0.2454
12511W        W28128   5.368   8.315  11.055  0.0174 -0.0230 -0.3461
12512W        W28129   4.416  11.159  15.573  0.1777  0.1869  0.1304
12513W        W28130   4.980   5.121  14.112 -0.3396  0.3347 -0.2329
12514W        W28131   8.998   4.019   5.708 -0.0534  0.2895 -0.0021
12515W        W28132  18.388   8.418  11.228  0.1960 -0.2058  0.1084
12516W        W28133  18.193  16.430   5.227 -0.0428  0.2469 -0.3378
12517W        W28134   3.362  12.438   3.817  0.3906 -0.1616  0.0722
12518W        W28135   2.204   4.042   5.716  0.0404  0.3165 -0.2130
12519W        W28136   6.207   6.484   0.144 -0.1234  0.0753 -0.2570
12520W        W28137   8.873  17.489   2.010 -0.1988 -0.0426 -0.2552
12521W        W28138   6.303   3.787  11.240 -0.0012  0.0010  0.0024
12522W        W28139   0.071   0.091  15.758  0.1472 -0.0196  0.0413
12523W        W28140   4.545   6.590   3.025 -0.1230  0.2443 -0.0517
12524W        W28141  17.279   2.810  14.629 -0.0310 -0.2172  0.2127
12525W        W28142   9.639  13.343  11.213  0.0258  0.0794 -0.0250
12526W        W28143  16.483  11.473   1.737  0.5227  0.0783 -0.0736
12527W        W28144   6.380   1.829   2.830 -0.1606 -0.2411  0.0215
12528W        W28145  12.344   2.412  13.073 -0.0140 -0.1098 -0.2557
12529W        W28146   4.360  10.507  12.730 -0.0354  0.0436  0.0355
12530W        W28147   3.265   8.049  14.779 -0.2046 -0.0480 -0.0718
12531W        W28148  13.482   7.390  11.221  0.2501  0.3637 -0.4359
12532W        W28149  13.197  14.215   4.480  0.2424 -0.2206 -0.2676
12533W        W28150  17.133   1.829  14.366  0.1787  0.2040  0.2557
12534W        W28151   9.390  16.612   2.833  0.0986  0.1824 -0.3333
12535W        W28152   1.946  14.076   2.333 -0.1585  0.1058 -0.0430
12536W        W28153   7.094   3.850   5.688 -0.2452 -0.0786 -0.0467
12537W        W28154  16.117   7.444  11.136 -0.4157  0.1256 -0.1092
12538W        W28155   5.443   1.085   5.230  0.3323 -0.0522 -0.0820
12539W        W28156  11.059   8.216   0.533  0.0394 -0.3570 -0.0955
12540W        W28157  18.410   7.591   0.693 -0.1180  0.0927  0.0198
12541W        W28158  15.017   0.246   1.307  0.0036  0.3591 -0.0140
12542W        W28159   4.533   3.940   0.881 -0.2405 -0.1090  0.1406
12543W        W28160  10.129  18.161  14.880  0.3493 -0.0731 -0.1726
12544W        W28161  16.346   9.833   4.937  0.1128 -0.0907 -0.0177
12545W        W28162   3.816  14.152   2.169 -0.0002  0.1040  0.0083
12546W        W28163  11.108  15.670  15.538  0.0611 -0.1163  0.0087
12547W        W28164   4.421  17.481   4.940  0.1343 -0.1565 -0.0623
12548W        W28165   4.322  15.564  13.242 -0.0001  0.1160 -0.1328
12549W        W28166  11.365   4.048   3.686 -0.1632 -0.0105 -0.1046
12550W        W28167   1.652  10.335  11.052  0.0214 -0.0654 -0.0078
12551W        W28168  10.345   3.735  12.280 -0.2491 -0.3728 -0.1029
12552W        W28169   1.379  15.898  11.667 -0.0960 -0.1329 -0.0880
12553W        W28170  13.546  11.830  12.922 -0.1617  0.1340  0.2582
12554W        W28171  13.648  11.778   0.118  0.0949 -0.0599 -0.2727
12555W        W28172   6.256  10.689   1.225 -0.5961 -0.0457 -0.2543
12556W        W28173   6.602   5.033   4.538  0.1249  0.0984  0.2952
12557W        W28174  11.141  12.784  14.226 -0.1380 -0.2142 -0.0295
12558W        W28175   6.381   8.203  11.738 -0.2310 -0.0749 -0.0299
12559W        W28176  17.908  12.799  13.298  0.0600 -0.2089 -0.1303
12560W        W28177  12.672   5.767   0.961  0.0672  0.0357 -0.3567
12561W        W28178  17.422  11.135  11.517 -0.0699  0.2134  0.1128
12562W        W28179   8.892  10.563   0.166 -0.2613  0.1818 -0.1146
12563W        W28180   4.559  15.593  15.456  0.1771 -0.2925 -0.1549
12564W        W28181   6.095   2.786  15.348 -0.1838  0.0005 -0.0925
12565W        W28182   8.483   7.740   5.882  0.2082 -0.4579 -0.1753
12566W        W28183  13.586  16.913   2.138  0.1522 -0.0667  0.0774
12567W        W28184  18.569  16.327  14.171  0.0344 -0.0743  0.0931
12568W        W28185   0.562  16.036   3.650 -0.0479 -0.2330  0.0729
12569W        W28186  14.161  18.541   1.990  0.6876  0.2797 -0.0204
12570W        W28187   6.848  16.756   3.970 -0.0697 -0.1731  0.0281
12571W        W28188  13.288  10.596   2.801 -0.4423 -0.2151  0.0197
12572W        W28189  17.640  17.970   1.222  0.2027 -0.0634  0.0657
12573W        W28190   6.569  11.939   2.538  0.0176 -0.3243  0.2631
12574W        W28191   1.758  17.943  11.476  0.0263 -0.0898  0.2267
12575W        W28192   7.124   2.681   4.490  0.2690 -0.0363 -0.1797
12576W        W28193   2.922   4.541   3.581 -0.0512  0.1521  0.0111
12577W        W28194   1.961   3.607   1.940  0.0228 -0.0799  0.2225
12578W        W28195   5.294   0.288   4.857 -0.1348  0.1529 -0.2375
12579W        W28196   8.021   3.896   3.616  0.0481  0.1446  0.0479
12580W        W28197  12.992   3.088   3.118  0.0853 -0.0374  0.0006
12581W        W28198   8.822  12.850  10.870  0.0960  0.1020 -0.1806
12582W        W28199  12.926  12.676   3.255  0.0324 -0.2505  0.0041
12583W        W28200   6.053  14.375  12.981  0.1624 -0.3066  0.0153
12584W        W28201  15.732   9.343   5.172  0.1523  0.3889  0.0560
12585W        W28202   4.379   2.558   1.879  0.0164 -0.1842  0.3431
12586W        W28203   5.808   4.489  15.327 -0.2036  0.0920  0.0804
12587W        W28204  11.974  12.200   1.642 -0.1665  0.1331  0.0301
12588W        W28205   2.632   6.859   0.213 -0.3257 -0.2422  0.4734
12589W        W28206  17.199  17.008  11.042 -0.0644  0.1272 -0.1842
12590W        W28207   8.118  10.519  10.891 -0.1034  0.0535  0.3445
12591W        W28208  13.752  15.378   2.246 -0.3223  0.1042  0.2744
12592W        W28209   4.235   2.389   3.964 -0.1758 -0.2016 -0.1509
12593W        W28210  11.822   3.766  10.627 -0.2464 -0.2200  0.0160
12594W        W28211  18.389   5.772  15.028 -0.4251  0.3153 -0.0600
12595W        W28212   6.715   0.835  12.426  0.0530 -0.1907  0.0669
12596W        W28213   7.054  17.550  13.977 -0.5149  0.2242  0.0540
12597W        W28214  14.993  16.968   0.360  0.0137 -0.1060 -0.0748
12598W        W28215   5.924   4.360  14.044 -0.0651  0.4967 -0.2976
12599W        W28216  15.606  10.519  10.521  0.1222  0.0217  0.0075
12600W        W28217   0.134  13.815   2.686  0.0535  0.0255 -0.1556
12601W        W28218   2.205   1.803   5.239 -0.0941 -0.2302 -0.0326
12602W        W28219  11.062   0.500  10.358 -0.2778 -0.1848  0.1631
12603W        W28220   7.458  14.485  11.160  0.1694  0.0716 -0.0634
12604W        W28221  14.351  11.992   3.350 -0.0286 -0.2720 -0.1422
12605W        W28222  11.644   3.983  11.558  0.0924  0.1478 -0.1670
12606W        W28223  17.349  17.414  15.078  0.3499  0.1975  0.3799
12607W        W28224   7.638   0.205  12.039  0.0923 -0.2823  0.2918
12608W        W28225  11.666  16.344   3.361 -0.4103 -0.0345  0.1139
12609W        W28226  15.107  16.059  13.174 -0.1713  0.2574  0.1086
12610W        W28227   9.998  16.992   2.189 -0.1174  0.2500  0.0035
12611W        W28228   6.268   4.146   4.020 -0.4945 -0.1749 -0.0383
12612W        W28229   9.454  11.687   2.786  0.0173  0.0292  0.1399
12613W        W28230  13.702   0.895   4.348  0.0219 -0.2880 -0.0854
12614W        W28231  13.646  11.856   2.205  0.3034 -0.0905 -0.1408
12615W        W28232   0.392  10.627   4.657 -0.3566 -0.1437 -0.2001
12616W        W28233   5.971   7.020   0.288 -0.1522  0.0034 -0.1288
12617W        W28234   6.021   4.664   2.180 -0.0832 -0.1946 -0.1538
12618W        W28235  14.199  12.637   2.556 -0.1890  0.1052 -0.1156
12619W        W28236   7.564   7.737   0.452 -0.0162  0.0841  0.2164
12620W        W28237   6.077   0.288   2.775  0.0727 -0.0845 -0.0103
12621W        W28238   9.605   4.378  13.502 -0.1525  0.3770  0.2893
12622W        W28239   6.850   2.803  13.419  0.0349 -0.0759  0.1778
12623W        W28240  12.825   0.870   4.374 -0.0310  0.2522 -0.0710
12624W        W28241   5.671  11.933  11.882  0.0174 -0.0299  0.0913
12625W        W28242   8.076  13.585   2.646 -0.0888  0.1990  0.2403
12626W        W28243  15.956  13.437   9.418  0.0704 -0.2680  0.2357
12627W        W28244   7.801   6.029  15.638 -0.0549 -0.1693  0.2248
12628W        W28245   6.937   4.391   0.036  0.0106 -0.0320  0.3071
12629W        W28246  11.243  14.155   2.997  0.2377  0.2514 -0.2317
12630W        W28247   7.232   2.909  11.561 -0.0659 -0.1170  0.0119
12631W        W28248  10.204   0.829   1.542  0.2098  0.1432  0.0553
12632W        W28249   0.350  12.796  14.434  0.2332 -0.0221  0.1261
12633W        W28250  11.386  13.453   0.383  0.0821  0.2985 -0.0613
12634W        W28251  11.722  17.314  15.671  0.1017 -0.0998  0.0136
12635W        W28252   3.949   8.895  14.265  0.0906  0.2033 -0.1300
12636W        W28253  17.534   8.851  11.150 -0.1432 -0.0656 -0.2755
12637W        W28254   7.419  16.889  12.213  0.0173 -0.3779 -0.0009
12638W        W28255  16.008   0.409  14.533  0.0488  0.3683 -0.4246
12639W        W28256   8.848  13.031  15.660  0.0226 -0.0379  0.0665
12640W        W28257   3.154   8.779  13.743 -0.0410 -0.3019 -0.4432
12641W        W28258   2.660  13.464   3.290  0.2098 -0.1087 -0.2416
12642W        W28259  17.253   0.909   0.422 -0.3444  0.1539  0.1423
12643W        W28260  12.766  11.866   2.524 -0.2910 -0.4100 -0.0048
12644W        W28261   1.936   7.900  12.687 -0.0564  0.0485 -0.1618
12645W        W28262   0.610   0.522  11.958 -0.0238  0.1219  0.1642
12646W        W28263   5.705  15.112   2.774 -0.0492  0.0247 -0.0727
12647W        W28264   7.101   4.228   5.182 -0.0589  0.1790  0.3423
12648W        W28265  11.772   9.248  11.118  0.1216  0.0526  0.3632
12649W        W28266  12.363   7.417  15.020 -0.0011  0.2607 -0.0756
12650W        W28267  15.428   6.954  12.249 -0.1141 -0.1467  0.1017
12651W        W28268   0.811   8.401   0.742  0.5007  0.0273  0.2099
12652W        W28269  13.102  13.411   3.982  0.0953 -0.1036  0.1170
12653W        W28270   3.990   5.875   1.696 -0.1268  0.2587 -0.1889
12654W        W28271   3.266  15.542   1.228 -0.0492  0.1737 -0.0962
12655W        W28272   4.900   5.409   2.067  0.2461 -0.0905  0.0578
12656W        W28273   4.638   2.993  13.902 -0.0947  0.1494 -0.1512
12657W        W28274   8.747   0.766  10.686  0.2294  0.0218 -0.1114
12658W        W28275  15.188   9.167  14.739  0.1368  0.0261  0.4033
12659W        W28276  16.118  11.397   0.484 -0.0853 -0.3310  0.3442
12660W        W28277  10.877  17.521   4.699  0.0758  0.1214 -0.0716
12661W        W28278  15.093   3.613  14.570  0.0900 -0.0184  0.0697
12662W        W28279  14.990  12.201  13.419  0.2341 -0.2373 -0.1952
12663W        W28280  12.675   2.205   5.822  0.1479 -0.1745 -0.1189
12664W        W28281   9.228   7.002  12.683  0.2746  0.1352 -0.1493
12665W        W28282  10.998   3.055  15.769 -0.0172  0.2204  0.2349
12666W        W28283   1.474   6.858  11.008  0.0391 -0.1044  0.0807
12667W        W28284   0.510   9.447  11.316  0.2670  0.3307 -0.1377
12668W        W28285   2.917   8.440   2.407 -0.0349  0.2644  0.0430
12669W        W28286   5.181  12.281   2.060  0.0421  0.0084  0.0082
12670W        W28287   5.388   0.695  11.997  0.2612  0.0677  0.2341
12671W        W28288   0.612  13.081   2.683 -0.1999  0.0136 -0.1328
12672W        W28289  11.804  12.238  11.434 -0.0248  0.0397 -0.2122
12673W        W28290   4.075   7.543  14.108  0.0254 -0.1033 -0.4395
12674W        W28291  17.518   1.716   4.898  0.0015  0.2586  0.2537
12675W        W28292   3.098  14.311  12.562 -0.0531 -0.0535 -0.2431
12676W        W28293  17.195  13.989   3.557  0.4323  0.4640  0.0094
12677W        W28294   9.538  16.319   1.354  0.1443  0.1825  0.1525
12678W        W28295   1.123   7.871   4.010 -0.4210  0.2679  0.2619
12679W        W28296   4.063  16.764   4.432  0.1270 -0.0890 -0.2066
12680W        W28297  16.950   5.197   1.504 -0.1649  0.0080 -0.2359
12681W        W28298  10.723  13.565  14.356  0.0721 -0.3068 -0.1351
12682W        W28299  15.028  18.294   5.694  0.0395 -0.1935 -0.0910
12683W        W28300  11.911   0.433  15.774 -0.2336  0.0636 -0.0380
12684W        W28301   6.261  18.469   2.941  0.1697  0.1803  0.3697
12685W        W28302   5.943   3.423  15.595 -0.0166  0.1708 -0.1590
12686W        W28303   4.057  16.313  13.472  0.0832 -0.1644  0.0707
12687W        W28304  15.542   9.221   0.850  0.3185 -0.1177  0.1947
12688W        W28305   5.066  10.840   0.904  0.2512 -0.1820  0.2555
12689W        W28306  14.340   3.815   4.710 -0.1144 -0.3551  0.1556
12690W        W28307  13.303  15.501  12.452 -0.0911  0.0827 -0.0184
12691W        W28308   7.756   9.400  13.939 -0.4053 -0.3022  0.0797
12692W        W28309  15.382   5.080   0.544  0.0401 -0.1324 -0.3236
12693W        W28310  14.275   7.277   9.992  0.0850  0.3347  0.1079
12694W        W28311   0.245  16.636  11.467  0.1633 -0.1353  0.0056
12695W        W28312   5.066   9.529   0.670  0.1309  0.1902 -0.0474
12696W        W28313  13.620  12.828   0.940  0.2389  0.0924 -0.2091
12697W        W28314  13.107   8.393  15.478  0.1479 -0.4119  0.2603
12698W        W28315   6.289  16.210   2.250  0.2582  0.1335 -0.2190
12699W        W28316   8.715  16.453  14.740  0.2113  0.1050 -0.1985
12700W        W28317  12.607  17.508  12.487 -0.2565  0.1009 -0.1104
12701W        W28318   4.535  11.110   1.797  0.1834  0.2064 -0.2561
12702W        W28319   2.559   6.912   4.738 -0.0209 -0.1214 -0.1077
12703W        W28320  17.495   3.881   0.749  0.3903  0.1539  0.2177
12704W        W28321  16.647   5.647   4.865 -0.0303 -0.1398  0.0345
12705W        W28322   0.354  15.693   3.253 -0.0133  0.2360  0.1746
12706W        W28323   9.497  11.419   0.338 -0.3915 -0.0335  0.1901
12707W        W28324  12.317   5.871  13.215  0.3308 -0.1163  0.0053
12708W        W28325  15.326   0.366  12.303 -0.1168  0.1428 -0.2791
12709W        W28326   5.691  12.795   0.866  0.0261 -0.2161  0.1419
12710W        W28327  10.701   3.371  14.966 -0.4813 -0.1150  0.0352
12711W        W28328   7.260  13.269   0.643 -0.4076 -0.0245  0.2013
12712W        W28329   6.872   9.532   5.828  0.1878  0.1642  0.3650
12713W        W28330   3.350  15.931  14.945  0.0975  0.0719 -0.0699
12714W        W28331  16.192   7.046  10.777 -0.1721 -0.1701  0.3124
12715W        W28332  16.841   7.588   2.529 -0.1675  0.0983 -0.0273
12716W        W28333  17.641   3.979   1.685 -0.1060 -0.0508  0.0145
12717W        W28334   2.174   0.666   2.117  0.0618  0.0363  0.1960
12718W        W28335   5.576   0.405   3.527  0.1208 -0.1674 -0.2514
12719W        W28336   4.813   5.872   5.499  0.0311  0.5668  0.0119
12720W        W28337   7.730   0.914  14.215  0.0886 -0.0953  0.0244
12721W        W28338  14.097  12.268   2.199 -0.2587  0.0326  0.0510
12722W        W28339   1.860  16.862  13.746  0.2671  0.2070  0.3851
12723W        W28340   4.417  18.548  14.536  0.2198  0.2190  0.3542
12724W        W28341   1.256   5.735   2.627 -0.0079 -0.2188 -0.2623
12725W        W28342   1.652  16.649  12.810  0.0067  0.2024 -0.2667
12726W        W28343   5.496   0.068  12.924 -0.0498  0.2697 -0.4731
12727W        W28344   4.766   8.405   0.611  0.1911 -0.2430 -0.0319
12728W        W28345   5.011   9.507  15.053 -0.0154  0.0589  0.1068
12729W        W28346  13.688   9.341  13.299  0.4240  0.1018  0.1569
12730W        W28347   0.485  16.906   2.818  0.2279 -0.0950  0.0029
12731W        W28348  17.014   7.571  10.696 -0.0192  0.1582  0.2012
12732W        W28349   2.029  15.047  12.031 -0.0739 -0.0459  0.2682
12733W        W28350  11.831  16.525   5.055  0.0227  0.1329  0.1350
12734W        W28351  11.819   9.688   1.117  0.3031  0.1103 -0.0491
12735W        W28352   4.534  15.475  14.521  0.1822 -0.1352 -0.0981
12736W        W28353   9.303   5.124   3.504  0.1063 -0.3539  0.1025
12737W        W28354   7.252  16.395   4.078 -0.2523  0.2548 -0.4217
12738W        W28355   1.203   2.690   5.674 -0.0269 -0.2632 -0.1270
12739W        W28356   5.504   6.685   4.624 -0.1950 -0.1475 -0.1537
12740W        W28357  12.646   3.307  15.244  0.2614 -0.1103  0.0214
12741W        W28358   8.042  16.552   3.368  0.0640  0.1152 -0.1334
12742W        W28359   3.187   6.107   4.169 -0.0286 -0.0537  0.0929
12743W        W28360  13.433   4.889   6.687  0.0473 -0.2876 -0.2301
12744W        W28361   9.188   8.113   4.111 -0.0309  0.1126 -0.2097
12745W        W28362   6.427   0.015  12.108 -0.1975  0.0169  0.2753
12746W        W28363   3.676   8.555   3.464 -0.1968  0.4209 -0.0608
12747W        W28364  14.591   1.356  14.134  0.1114  0.1768  0.0001
12748W        W28365  17.176  18.295   5.156  0.1961 -0.2345  0.1207
12749W        W28366  18.175  16.732   2.904  0.1415  0.1176  0.0813
12750W        W28367   4.566   4.507  15.389  0.0817 -0.1379  0.1498
12751W        W28368  16.364  10.129   2.178 -0.2485 -0.1789 -0.2195
12752W        W28369  11.990  17.957  14.718 -0.0099 -0.0101  0.1582
12753W        W28370   8.225   9.269  12.413  0.0798 -0.0411 -0.0749
12754W        W28371  10.863   3.597  15.416  0.3582 -0.1000 -0.0209
12755W        W28372   4.008   0.809  14.695 -0.1090  0.2559  0.3553
12756W        W28373   5.516   2.511   2.841 -0.1276 -0.2676  0.0252
12757W        W28374  18.593  14.027   9.698  0.1495  0.1602 -0.0945
12758W        W28375  16.728  11.173  10.876 -0.0287 -0.1797  0.3983
12759W        W28376   3.043   5.511  12.481 -0.2041  0.1881 -0.1513
12760W        W28377  14.212   5.773   4.408  0.1487 -0.0267  0.0864
12761W        W28378   9.328  16.320   0.068 -0.0432 -0.3122  0.2500
12762W        W28379   2.204  12.518  11.088 -0.0107 -0.0124  0.1962
12763W        W28380   9.305  12.285   2.151  0.0666  0.0014 -0.3877
12764W        W28381  11.342  14.348   3.491 -0.2663  0.1457 -0.1440
12765W        W28382  13.205   5.370   3.496 -0.4260  0.2325 -0.0971
12766W        W28383   6.945   8.663   2.280  0.1307 -0.1140  0.1522
12767W        W28384  16.217  17.665   1.154 -0.0005  0.0995 -0.0281
12768W        W28385   7.621   7.288  13.605 -0.2543  0.1915  0.1671
12769W        W28386   5.948  17.020  11.326 -0.1252 -0.1637 -0.0481
12770W        W28387  16.129   1.224   5.763  0.1608 -0.1140  0.0786
12771W        W28388   0.304   1.248  12.439  0.0870 -0.0722 -0.0517
12772W        W28389  17.198  17.998   1.455 -0.2028 -0.3974 -0.0940
12773W        W28390  17.744   2.597   0.664  0.0603  0.5058  0.2321
12774W        W28391   5.842   5.905  13.964  0.2561 -0.0609  0.0570
12775W        W28392  10.325  14.899   0.279 -0.0743 -0.0668 -0.1909
12776W        W28393   4.891   4.714  14.999  0.2552 -0.2863 -0.0972
12777W        W28394   2.888  17.324   0.025 -0.1683  0.2160 -0.0148
12778W        W28395   6.294  10.230   3.064 -0.1071  0.1423  0.2707
12779W        W28396  14.627   5.534   0.557 -0.2527 -0.3211  0.0152
12780W        W28397   1.604  16.516  14.711  0.2490 -0.0699 -0.1462
12781W        W28398   6.688  17.226  13.152 -0.0446 -0.2068 -0.0478
12782W        W28399   2.923   3.493  13.225  0.3821  0.2017 -0.2880
12783W        W28400  13.753  15.464   3.693  0.0494 -0.0688 -0.0218
12784W        W28401  17.980   4.172   1.320  0.0263 -0.0819 -0.1985
12785W        W28402   4.675   2.439   3.076 -0.0936 -0.1405 -0.0983
12786W        W28403  15.394   6.111   9.869 -0.1750  0.2695 -0.0016
12787W        W28404  18.202   5.142   1.408 -0.1363 -0.3748 -0.1457
12788W        W28405  15.406  18.245  14.695  0.1606  0.0186 -0.0412
12789W        W28406  17.051   7.133  12.866 -0.2481  0.0046  0.0584
12790W        W28407   4.996  12.884  15.420 -0.0197  0.0282 -0.1462
12791W        W28408  15.422  14.400  10.524 -0.0375 -0.2891 -0.2798
12792W        W28409   4.051   4.820   0.977 -0.0665 -0.0910  0.1500
12793W        W28410   6.935   4.446  10.869 -0.0548  0.1745  0.0786
12794W        W28411  14.180  17.515  11.976  0.2068  0.0422 -0.1584
12795W        W28412   9.402  16.350  12.190 -0.1357  0.0319 -0.2747
12796W        W28413   8.503   9.950   3.285  0.2109  0.1226  0.0603
12797W        W28414   5.702   6.075   2.797 -0.2146  0.2886  0.0031
12798W        W28415  11.932   9.467  15.317 -0.0094 -0.0579  0.0056
12799W        W28416  15.415  14.137   0.261  0.0923 -0.1509 -0.2266
12800W        W28417  13.373   5.858   4.544 -0.0502  0.0082 -0.1981
12801W        W28418  15.691   5.651   1.619  0.4153 -0.1510 -0.0615
12802W        W28419   9.649  16.308   4.243  0.0205  0.0183 -0.0830
12803W        W28420  15.168   3.191   3.713 -0.0017 -0.0857  0.4143
12804W        W28421  13.427  16.223   0.281  0.0171 -0.1412  0.2016
12805W        W28422   3.586  14.149  15.655  0.3519 -0.1678  0.0009
12806W        W28423   0.425   4.674  13.102  0.1114 -0.1245 -0.4631
12807W        W28424   1.039  10.991  15.728  0.1362  0.1558  0.1541
12808W        W28425  11.327   2.805  11.025 -0.0079  0.1432  0.5308
12809W        W28426  11.090  17.106  12.548 -0.0310 -0.1892  0.1534
12810W        W28427   2.453   8.192   2.227  0.1339 -0.5110  0.0944
12811W        W28428  15.865   4.218   2.944 -0.1151 -0.0843  0.2448
12812W        W28429   7.382  16.576   2.767 -0.1925 -0.1025  0.1201
12813W        W28430  12.753  18.075  13.377 -0.1329  0.1118 -0.0678
12814W        W28431   1.286  12.042  11.987 -0.1526 -0.1333 -0.1747
12815W        W28432  14.692  13.166  12.198  0.0038 -0.0846  0.1465
12816W        W28433  16.270   7.995   1.780 -0.0235  0.0777 -0.3697
12817W        W28434   4.692   7.110  14.831  0.1586 -0.1487 -0.1690
12818W        W28435  14.094  10.127  13.857  0.0377 -0.0702 -0.1209
12819W        W28436  14.525   3.687   5.821 -0.2742 -0.1706 -0.3779
12820W        W28437  11.807  17.971   3.085  0.1031  0.2263 -0.1386
12821W        W28438   5.806  11.510   5.702 -0.2924  0.2277 -0.3189
12822W        W28439  13.832   6.157  13.300  0.1961 -0.3056 -0.2248
12823W        W28440   3.875   8.521  11.976 -0.3993 -0.1473  0.0002
12824W        W28441   9.541  15.730  15.003 -0.0044 -0.2779  0.3809
12825W        W28442   5.260  15.252   2.888 -0.0029  0.3030 -0.0019
12826W        W28443  18.258  11.715   4.697 -0.1155  0.0528 -0.1182
12827W        W28444  16.008  14.804  11.885 -0.1203 -0.2216 -0.0919
12828W        W28445   7.837   0.248  11.614  0.1030  0.1344 -0.2622
12829W        W28446   0.336  15.271  15.043  0.1407 -0.1095  0.0777
12830W        W28447  16.145  17.550  12.072  0.1672 -0.3342  0.0373
12831W        W28448   5.910   3.134  11.617  0.1984 -0.2298  0.2003
12832W        W28449   6.378   7.279  15.070  0.1204  0.0720  0.2659
12833W        W28450   8.882   3.489  12.143  0.2336 -0.0417  0.1019
12834W        W28451  11.797  17.774  13.904  0.2259  0.0560 -0.0887
12835W        W28452  14.285  14.896   3.003 -0.0293 -0.0772  0.0663
12836W        W28453  14.204   1.483  13.690  0.0905  0.5232  0.0266
12837W        W28454   9.700   5.740   0.781 -0.0927  0.0366  0.4804
12838W        W28455   3.873  16.802  14.242 -0.0311 -0.2270  0.2492
12839W        W28456   5.773  16.148   4.700 -0.1241 -0.3513 -0.2055
12840W        W28457  12.698   0.127  15.233 -0.3326 -0.0647 -0.2224
12841W        W28458   6.837   8.140  11.615  0.1595 -0.2268  0.1545
12842W        W28459   8.422  12.749   3.853 -0.0534 -0.0062  0.1573
12843W        W28460  15.971   5.535  11.419 -0.4974 -0.1898  0.1513
12844W        W28461   2.194   5.818   0.507  0.0238 -0.2345  0.1115
12845W        W28462   4.490  16.575  13.484 -0.0159  0.1820  0.1218
12846W        W28463  11.252   7.787  12.649 -0.0264  0.1088 -0.0246
12847W        W28464  15.288  10.961  13.872 -0.0611  0.2328 -0.2474
12848W        W28465   5.862   5.691   3.194  0.0516 -0.0854  0.3330
12849W        W28466   6.388  10.385  12.698  0.0733  0.0972  0.2224
12850W        W28467   5.353  17.821  13.328  0.0381 -0.0175 -0.2561
12851W        W28468  13.906   4.598   3.199  0.0445 -0.0167 -0.1945
12852W        W28469  16.508   3.795  14.603  0.2320  0.3273  0.0456
12853W        W28470   5.904  15.761  15.770  0.2188  0.0852 -0.1753
12854W        W28471   6.418  13.245   3.159  0.2512 -0.0057  0.0571
12855W        W28472  11.708  17.373   0.424 -0.3290  0.1640  0.1822
12856W        W28473   9.970  17.125   5.260  0.0610  0.0085  0.2025
12857W        W28474  18.402  15.416   1.778 -0.2066  0.1869  0.0856
12858W        W28475   7.877   7.926   3.537  0.0632  0.0195  0.1823
12859W        W28476  10.019  12.019  12.132  0.0945  0.0090 -0.2968
12860W        W28477   3.087   1.412  11.846  0.0151  0.3059  0.1320
12861W        W28478   6.016  11.919  14.780  0.0872  0.0200  0.3119
12862W        W28479  10.667   8.665  13.305  0.1919 -0.3428 -0.0692
12863W        W28480  11.449   5.687  13.130 -0.3538  0.0901 -0.2487
12864W        W28481   1.843  10.919   4.474 -0.1583 -0.1360  0.0135
12865W        W28482  18.561   7.128   0.654  0.0631 -0.2770 -0.3072
12866W        W28483  12.936   0.992   2.673  0.1103 -0.0280 -0.0048
12867W        W28484  15.730  15.225   0.477  0.2389  0.0365 -0.3285
12868W        W28485   6.448   3.142  15.448 -0.0929  0.1049 -0.1595
12869W        W28486   6.943  16.388  10.375  0.2274 -0.0937  0.0148
12870W        W28487   2.557   1.139   2.439 -0.1433  0.2817  0.1006
12871W        W28488  10.496  16.119  14.090 -0.0651  0.1634  0.0283
12872W        W28489   3.967   1.753  14.269 -0.0611 -0.0842  0.0194
12873W        W28490   0.362  15.206   0.347 -0.2143  0.0304 -0.0568
12874W        W28491  16.552  14.584   3.265  0.2439  0.1297 -0.0927
12875W        W28492   3.062  11.372  12.770  0.0243  0.3058  0.0298
12876W        W28493   8.502  16.903   1.178 -0.0193  0.4637 -0.1624
12877W        W28494   7.715  17.142  13.237  0.4404 -0.1381 -0.1794
12878W        W28495  14.732  13.468   2.153 -0.2734 -0.1483 -0.1165
12879W        W28496  13.051  16.608  14.670  0.0773  0.1226  0.0703
12880W        W28497   4.427   3.080  14.736  0.3252  0.1049  0.0951
12881W        W28498  10.985  13.218  12.482 -0.1021 -0.0954  0.0077
12882W        W28499   9.272   6.463   3.177  0.0219 -0.3665  0.0601
12883W        W28500   4.485  16.343   3.274  0.3209  0.2652  0.3298
12884W        W28501   6.510  13.300  15.601 -0.1585 -0.0936 -0.4560
12885W        W28502   8.542  10.778  13.541  0.1652  0.1726  0.0173
12886W        W28503   4.130   0.381  12.647 -0.1101 -0.4059  0.0302
12887W        W28504  15.347   3.502  11.196  0.0451 -0.2908  0.3548
12888W        W28505   6.481  11.087  13.288 -0.1791 -0.1430  0.0784
12889W        W28506   5.075  11.890   2.359  0.2647  0.1575 -0.0579
12890W        W28507  15.596  16.350   0.994 -0.1802  0.1201  0.0550
12891W        W28508  18.392   4.444  12.954  0.1520 -0.0495 -0.0046
12892W        W28509  18.296  10.228  15.237 -0.0320 -0.1739  0.1089
12893W        W28510   7.706  14.402   0.874 -0.0512  0.0369  0.0448
12894W        W28511  13.449   1.466  14.382  0.1663  0.0569  0.3209
12895W        W28512  15.375  17.953   0.121  0.3502  0.2238 -0.2164
12896W        W28513   0.326  10.064   2.142  0.3147  0.2059 -0.0484
12897W        W28514  18.232  13.665  12.074  0.0294  0.0383 -0.3292
12898W        W28515   5.683   6.613   0.381 -0.3350  0.1712  0.1433
12899W        W28516  15.200  14.782   2.016  0.2544 -0.1410 -0.5008
12900W        W28517   5.985  13.875  15.156 -0.2305  0.1236 -0.4283
12901W        W28518   3.348  11.978   1.797  0.1034  0.0218 -0.0556
12902W        W28519  17.824   1.615   4.487 -0.1583 -0.0668  0.1332
12903W        W28520  12.136   0.263  13.931 -0.1102  0.2100 -0.0103
12904W        W28521   9.042   1.551   4.882 -0.0246  0.1258  0.0198
12905W        W28522   1.862  13.180   3.222 -0.2496  0.0455  0.0664
12906W        W28523   4.965  14.903   3.074 -0.5025  0.0163 -0.0651
12907W        W28524   1.762   2.456   2.337  0.0109 -0.1877  0.0285
12908W        W28525   6.237  10.637  10.489  0.2023  0.4493  0.1405
12909W        W28526  14.338   0.315   0.619 -0.3934  0.1494  0.0598
12910W        W28527  11.046  11.287   4.505 -0.0723  0.1204  0.3278
12911W        W28528   7.157   8.402   3.734 -0.1558 -0.0105  0.0934
12912W        W28529   6.224  12.311   2.667 -0.0762  0.1313 -0.0401
12913W        W28530  10.628   0.897  14.296  0.0505 -0.4394  0.3739
12914W        W28531  11.954   4.360   4.156  0.0927 -0.0373 -0.1358
12915W        W28532   5.617   9.331   5.158 -0.2473  0.1332  0.1536
12916W        W28533   5.807  13.231   1.083  0.3439  0.2650 -0.0636
12917W        W28534  15.418   3.969   5.359  0.0184  0.0858  0.1923
12918W        W28535  16.205   4.307   2.499 -0.0744 -0.0034 -0.0751
12919W        W28536  16.185  13.101   3.302 -0.1552  0.2194 -0.2684
12920W        W28537   5.489  11.224  13.374 -0.0238 -0.1546  0.4999
12921W        W28538  10.960   8.816  13.710 -0.2275 -0.1959  0.0339
12922W        W28539   5.328  10.743   4.030 -0.0719 -0.0512  0.2323
12923W        W28540   3.900  11.575   0.737 -0.1721  0.0549 -0.1411
12924W        W28541   6.748  15.518  13.074  0.0427  0.1391 -0.2188
12925W        W28542  17.929   1.387   2.640  0.0213 -0.0031  0.0672
12926W        W28543  12.218   3.337  12.042 -0.1136  0.1483 -0.1621
12927W        W28544   1.009  11.352  15.284  0.0723  0.1213  0.0326
12928W        W28545  18.015  10.743   4.701 -0.0849  0.1629 -0.5511
12929W        W28546   4.202  16.213   0.299  0.0948 -0.5481  0.2454
12930W        W28547   4.168  12.064  14.478 -0.0500  0.1903 -0.1746
12931W        W28548   7.924   6.140   1.057  0.1039 -0.3925 -0.0897
12932W        W28549  16.262  13.086   0.119 -0.1344 -0.0467 -0.1970
12933W        W28550   8.737  12.480  11.868  0.1509 -0.1408  0.1495
12934W        W28551   5.148   2.226  11.228  0.2589 -0.1217 -0.0339
12935W        W28552   2.613  12.821   4.568 -0.0232  0.0777 -0.1907
12936W        W28553   4.062  18.595   2.165 -0.0638  0.4860  0.1196
12937W        W28554   5.017  10.080   4.813 -0.3175 -0.1436  0.2873
12938W        W28555   4.021  15.571   0.684  0.0531 -0.0675 -0.1582
12939W        W28556  16.723  12.660   4.786 -0.1251 -0.2414  0.1051
12940W        W28557  12.322  14.251  15.470  0.1672 -0.2153  0.0449
12941W        W28558   9.093  15.253   2.031  0.2046  0.0155  0.1717
12942W        W28559  16.717  18.089  15.795 -0.1715 -0.1432  0.0527
12943W        W28560  10.412   4.303  12.532 -0.1495  0.3732 -0.0287
12944W        W28561  14.043   2.228   0.289  0.1942 -0.0144 -0.0152
12945W        W28562  16.683  13.829  12.191 -0.0536 -0.0032  0.1955
12946W        W28563  14.755   6.832   4.338  0.2651  0.2174  0.0405
12947W        W28564   1.808   6.042  11.745 -0.2088 -0.0006  0.0038
12948W        W28565   7.926   6.938   0.472 -0.0035 -0.0162  0.0828
12949W        W28566  17.455   0.383  13.402  0.3088 -0.1635 -0.0612
12950W        W28567  14.263   2.489  11.624 -0.0305  0.1193 -0.1000
12951W        W28568   3.113   8.585  15.555  0.3761 -0.0439 -0.1682
12952W        W28569   8.575  17.506  10.327  0.1938 -0.1413 -0.0313
12953W        W28570   9.027  18.267   4.172  0.2013  0.0504 -0.0758
12954W        W28571  16.778   0.108   1.983 -0.0341  0.0582 -0.2590
12955W        W28572   9.707  13.608  13.332  0.1474 -0.2701 -0.2755
12956W        W28573   8.417  14.410  10.541  0.0999 -0.1999  0.1667
12957W        W28574   4.165   4.190   3.100 -0.0981  0.2067 -0.1669
12958W        W28575   0.647  14.514   5.083 -0.0123  0.2550  0.1520
12959W        W28576   2.380   4.338   4.412 -0.3281 -0.0688  0.2592
12960W        W28577  13.101  12.613  15.256 -0.1407  0.0233  0.0332
12961W        W28578   0.069   6.667  14.282 -0.2401 -0.2838  0.1576
12962W        W28579  15.440   2.906   4.979  0.2276 -0.1902  0.0766
12963W        W28580  10.062  12.937   4.656 -0.2631  0.2094  0.0179
12964W        W28581  14.965  13.609  11.075 -0.2176  0.2338 -0.0785
12965W        W28582   6.930   0.649  11.519 -0.2037 -0.1763  0.0372
12966W        W28583   2.641  18.239  15.375 -0.1949  0.1127  0.0823
12967W        W28584  15.838  11.081   3.612 -0.1023 -0.1171  0.1285
12968W        W28585   1.897  14.176  14.695 -0.2645 -0.0882  0.2018
12969W        W28586   7.180  17.046  14.120  0.0300  0.0227 -0.0800
12970W        W28587   8.412   5.245  12.024 -0.0519 -0.1203 -0.0366
12971W        W28588   0.787  15.151   0.699  0.0364 -0.0691 -0.1725
12972W        W28589  15.882   4.166  12.425  0.1800  0.1651 -0.2137
12973W        W28590   0.420   0.500  15.690 -0.1911  0.0455 -0.2467
12974W        W28591   1.984   1.477  11.643  0.0981 -0.0538 -0.0831
12975W        W28592   1.731  18.212  13.702  0.2292 -0.0069 -0.2472
12976W        W28593  12.128  10.907   0.790 -0.3293  0.0759  0.0137
12977W        W28594   9.507  10.704   4.289  0.0271 -0.2457  0.1896
12978W        W28595   5.043  11.966   4.602  0.0032  0.0649  0.2384
12979W        W28596   5.197   7.657  11.580 -0.2638  0.2273 -0.0250
12980W        W28597  16.202   9.144   2.267  0.0889  0.0914  0.3668
12981W        W28598   6.996  16.886  12.587 -0.2973  0.1653 -0.0703
12982W        W28599   9.097  17.651   3.491 -0.0387  0.2096 -0.2346
12983W        W28600   3.310   8.929   4.457 -0.0615 -0.1249 -0.1510
12984W        W28601  17.376  10.124  15.045  0.1965 -0.2319 -0.1387
12985W        W28602   0.845  13.547   3.599 -0.0272 -0.3813  0.2399
12986W        W28603  15.916  11.387  14.443 -0.0680  0.0578  0.1615
12987W        W28604   1.911  16.180   5.216 -0.1266  0.0472 -0.0022
12988W        W28605   1.695   3.351   2.565 -0.2659  0.2515 -0.1816
12989W        W28606   2.042   7.838  14.850 -0.1947 -0.0978 -0.0841
12990W        W28607   5.516  17.026   4.020 -0.2331  0.2206 -0.0256
12991W        W28608   7.162  13.423   2.918 -0.0759 -0.0038 -0.1878
12992W        W28609  13.154   6.688   1.741  0.2976  0.0262 -0.1342
12993W        W28610   9.815  15.651   0.709 -0.3701 -0.0232 -0.1280
12994W        W28611   0.532   1.910   0.377 -0.0228 -0.1187 -0.1465
12995W        W28612   1.798   7.372  11.780  0.0199  0.1748  0.1826
12996W        W28613   3.380  10.483  12.462 -0.1303  0.1908 -0.0568
12997W        W28614  14.616  16.159  15.579  0.3684  0.0950  0.2865
12998W        W28615   4.695  18.306  14.900  0.1932 -0.1832 -0.1433
12999W        W28616   8.184  16.399   2.510 -0.2126  0.1495 -0.2758
13000W        W28617  17.039  13.908  13.442  0.1772  0.1618  0.0256
13001W        W28618   2.112   4.621   2.496  0.0518 -0.1977  0.1915
13002W        W28619  15.270  14.243   5.804  0.0444 -0.1424  0.0225
13003W        W28620   7.444   8.948  13.754  0.3026 -0.1403  0.0195
13004W        W28621  11.349  18.559  11.792 -0.2012  0.2658 -0.0922
13005W        W28622  12.432   2.746  13.450 -0.0173  0.0568  0.1054
13006W        W28623   9.645   7.210   1.173  0.2123 -0.1066  0.2007
13007W        W28624   8.686   2.756  15.065  0.1434 -0.0480 -0.2691
13008W        W28625   4.876   6.183   5.089 -0.0358  0.1586 -0.4294
13009W        W28626   0.876  13.910   5.754  0.2079 -0.0144  0.3340
13010W        W28627  15.006   3.645   3.821 -0.2989 -0.0592 -0.5786
13011W        W28628   2.883  16.030   1.255 -0.1939 -0.1984  0.3740
13012W        W28629   4.719  13.920  11.469  0.1101  0.1175 -0.1310
13013W        W28630  14.824   1.601   0.944  0.0243 -0.0546  0.0213
13014W        W28631   0.004   8.727  10.906 -0.1913 -0.0181  0.0663
13015W        W28632   0.994   8.308   4.015 -0.0275 -0.1377  0.1020
13016W        W28633  17.593  18.584   0.870 -0.1355 -0.0138  0.3127
13017W        W28634  10.427   7.366   0.396  0.2348 -0.0793  0.5079
13018W        W28635   8.577  11.651  13.181 -0.0162 -0.3650 -0.2654
13019W        W28636  16.425   4.294   3.289  0.0739 -0.0991 -0.3717
13020W        W28637  16.028   4.492   0.038  0.1351  0.0053 -0.0775
13021W        W28638   7.912   1.800   1.958 -0.1685  0.0374 -0.0563
13022W        W28639  12.270  16.563   1.942 -0.1904  0.1252  0.2047
13023W        W28640   8.854   3.696  15.353  0.0168 -0.2741 -0.0075
13024W        W28641   4.973   4.017   4.209  0.0279 -0.0529 -0.1289
13025W        W28642  10.966   5.127   4.682  0.1048 -0.0390 -0.0328
13026W        W28643   2.579  13.280  12.789  0.1775 -0.1086 -0.1285
13027W        W28644  16.900   2.588  14.338  0.3437 -0.1705 -0.2087
13028W        W28645  13.619   0.988   2.215 -0.1485 -0.2864  0.1608
13029W        W28646   7.831   1.110   0.477 -0.3233 -0.2717 -0.3415
13030W        W28647  11.852  12.450  10.986 -0.0496  0.1466  0.1127
13031W        W28648  10.167   3.278   4.297  0.0440 -0.0544 -0.1022
13032W        W28649  13.115  11.992  11.351  0.0486 -0.0409 -0.1241
13033W        W28650  13.210   0.034   4.380  0.1982 -0.2576  0.1754
13034W        W28651  10.381  18.214   2.857 -0.1841  0.0946  0.2020
13035W        W28652   6.642  10.708  13.648 -0.1189 -0.1555 -0.0609
13036W        W28653  18.567   1.552   1.305 -0.1615 -0.0605 -0.1013
13037W        W28654   6.768   6.730   3.006 -0.1383  0.2698 -0.1621
13038W        W28655   4.834   9.833   2.824 -0.0119  0.0054 -0.0483
13039W        W28656  14.485   4.351  13.112  0.2729 -0.1007 -0.1412
13040W        W28657   9.233   9.758  10.117  0.1219  0.3375 -0.1763
13041W        W28658  15.117   6.684  13.666 -0.1754  0.1793  0.1111
13042W        W28659   6.774   6.039   2.308 -0.1306 -0.1279  0.1478
13043W        W28660   2.924  14.719   4.807  0.1232  0.1124  0.5135
13044W        W28661   5.208   1.656   3.334 -0.1361  0.3135 -0.3681
13045W        W28662   6.195   2.487   4.437 -0.2045  0.0412 -0.3870
13046W        W28663   5.253  17.223  11.496  0.1017 -0.4443 -0.0128
13047W        W28664  15.836   9.382  13.925 -0.2014  0.3012 -0.1050
13048W        W28665  16.566  17.502  15.586  0.0292  0.0164  0.0385
13049W        W28666   3.089   1.602  13.088 -0.2324 -0.0595 -0.1899
13050W        W28667   3.298   1.098  12.991  0.2207 -0.3807 -0.0400
13051W        W28668  10.743   5.863   2.878  0.1616  0.2620  0.2011
13052W        W28669  13.675  18.056   0.211  0.0790  0.1902  0.1144
13053W        W28670  13.370  15.648   1.680 -0.0417 -0.2419 -0.0844
13054W        W28671   0.688  10.131  15.546  0.1153 -0.2536 -0.1109
13055W        W28672  18.484  17.504   5.933  0.3363  0.3765  0.0569
13056W        W28673   4.515   6.505  12.222 -0.2387 -0.1381 -0.0382
13057W        W28674  17.604  10.388  11.133  0.3590  0.1025  0.1224
13058W        W28675   6.200  11.913  15.258  0.0122 -0.2915  0.2083
13059W        W28676  15.535  12.119  10.749  0.0137  0.2797  0.3337
13060W        W28677  15.783   2.335  15.361 -0.2478 -0.1826 -0.1980
13061W        W28678   3.359   1.657   2.251 -0.0304 -0.1401  0.0560
13062W        W28679   0.357  17.295  11.546  0.3040  0.0076  0.1503
13063W        W28680   9.762   2.568   3.603  0.3398  0.2375 -0.0690
13064W        W28681   3.632   0.065   1.364  0.1369  0.3233 -0.2154
13065W        W28682  17.760   9.327  10.855 -0.1227 -0.0211 -0.1398
13066W        W28683  13.544   9.089  12.127 -0.0657  0.0892 -0.3009
13067W        W28684   5.746   3.569   0.735  0.5265 -0.2038 -0.0741
13068W        W28685   1.405   7.071  15.222  0.2956  0.2041  0.0986
13069W        W28686   5.440   6.052  15.471 -0.0202 -0.0717  0.2354
13070W        W28687   4.597  13.959   2.620  0.0411 -0.1993 -0.2461
13071W        W28688   7.749   7.770   5.188  0.1865  0.1779  0.2374
13072W        W28689   3.442  13.672  15.798  0.3917  0.1576 -0.1015
13073W        W28690  17.325   2.293  14.274 -0.6165  0.0140 -0.0682
13074W        W28691  15.188   1.789  15.410  0.0859  0.1696  0.1718
13075W        W28692  11.279  10.440  13.853 -0.2984  0.1541  0.1270
13076W        W28693  12.610  12.913  14.083 -0.0352 -0.0449 -0.3393
13077W        W28694   8.096   4.738   0.697 -0.1073  0.3137  0.2194
13078W        W28695   5.675   9.091  14.067  0.1291 -0.0062 -0.0076
13079W        W28696   9.043   9.313  10.345  0.1358  0.0435 -0.0162
13080W        W28697  11.749   8.228  13.703  0.4745  0.0661 -0.2850
13081W        W28698  11.293   6.651   3.903  0.1244  0.0707 -0.3126
13082W        W28699   5.624   9.140  15.258  0.1432 -0.1346 -0.4530
13083W        W28700   9.770   6.382   2.282  0.2425  0.1981 -0.0989
13084W        W28701  14.554  12.644  12.129 -0.2370  0.1631 -0.0145
13085W        W28702  12.259  15.577  14.197 -0.0838  0.0715  0.1977
13086W        W28703   9.190   0.114  14.414 -0.1325 -0.1202 -0.0472
13087W        W28704   4.096  10.453   0.242 -0.1487  0.2750 -0.3597
13088W        W28705  13.093   4.885  12.223  0.1493 -0.0613  0.1641
13089W        W28706   1.699  14.492  13.203  0.2581  0.1147 -0.0549
13090W        W28707  10.018  10.542  15.101  0.3201  0.0185 -0.1669
13091W        W28708   0.790  15.846   4.735 -0.0024 -0.3070 -0.0948
13092W        W28709   5.239   7.661   5.500  0.1253  0.1985  0.3040
13093W        W28710   7.131  15.245  14.759  0.2869  0.2251 -0.0982
13094W        W28711  13.135   2.466  12.009 -0.0291  0.2544 -0.1587
13095W        W28712  16.669   6.191  12.332 -0.2576  0.0334  0.1362
13096W        W28713   4.913   6.308  11.467  0.1016  0.2049  0.0005
13097W        W28714   7.225   9.285  15.059 -0.1038  0.3233 -0.3606
13098W        W28715   7.224   3.986  13.417  0.0037  0.0563  0.1700
13099W        W28716  16.283  12.825  15.266 -0.0767 -0.0505 -0.1059
13100W        W28717   4.710   5.923  10.395  0.1049 -0.0001 -0.1031
13101W        W28718   3.791  18.593   3.586  0.3478 -0.2866  0.2746
13102W        W28719   3.148   5.110  14.215  0.2500  0.1190 -0.0993
13103W        W28720  11.735  11.231  10.310  0.0314  0.3662 -0.2815
13104W        W28721   7.999  13.666   0.423 -0.0875 -0.2740 -0.0606
13105W        W28722   1.987   6.725  13.348  0.0084 -0.0387  0.0838
13106W        W28723  14.727   6.948  15.659 -0.0053 -0.1576 -0.0533
13107W        W28724   3.608   6.236   4.461  0.0636  0.0502 -0.1541
13108W        W28725  13.525   5.263   5.728 -0.0255  0.3003 -0.0023
13109W        W28726  11.199   9.818  13.737 -0.1958 -0.0975 -0.2169
13110W        W28727  17.484   8.525  15.544 -0.1214  0.1037 -0.1932
13111W        W28728  11.537   7.640  14.479 -0.0740 -0.0462  0.0890
13112W        W28729   0.294   3.183   5.932  0.1386  0.3653 -0.0838
13113W        W28730   5.485  12.928   1.305  0.0053 -0.1456 -0.0891
13114W        W28731   5.719  17.494  11.581 -0.0651  0.0362  0.2591
13115W        W28732  15.811   3.996   1.554  0.0025 -0.1154  0.1879
13116W        W28733   8.495  11.007  11.816 -0.1743  0.0445  0.2446
13117W        W28734  11.440   4.972   0.175 -0.0327 -0.0020 -0.0423
13118W        W28735  15.256  10.356  13.838 -0.0702  0.3494  0.0527
13119W        W28736   3.530   6.099  14.500  0.0718 -0.0307  0.0046
13120W        W28737   5.266  15.464  13.847 -0.0241  0.0155  0.1343
13121W        W28738  17.825  11.301   5.495  0.1282 -0.2388  0.0269
13122W        W28739  11.286   7.335   4.481 -0.2474  0.2841  0.0319
13123W        W28740   5.346  16.842  11.789  0.0140  0.1223  0.2554
13124W        W28741   7.920   5.332  12.844  0.0478 -0.4139 -0.1188
13125W        W28742   4.254   7.944   2.989  0.0478  0.1050  0.0017
13126W        W28743  14.417  13.797   0.491 -0.1155  0.0403 -0.1429
13127W        W28744   0.456   5.919   2.081  0.2848 -0.0547  0.0820
13128W        W28745   9.938   7.601  15.428  0.0146  0.3288 -0.3014
13129W        W28746   9.837  15.145  14.428  0.0102  0.0856  0.2801
13130W        W28747   2.962  11.580   1.126 -0.0496 -0.3366 -0.2407
13131W        W28748   0.837  10.776  14.512  0.2651 -0.1971 -0.2310
13132W        W28749   9.436   3.017  12.968 -0.1354 -0.0026  0.2904
13133W        W28750  12.120  18.603  14.547 -0.4021  0.2442 -0.0172
13134W        W28751   9.238   8.472   4.454 -0.2841 -0.1277  0.1641
13135W        W28752   4.729   5.266  11.588 -0.1201 -0.2158 -0.2926
13136W        W28753  10.689  14.882   1.281  0.1944  0.3088  0.2860
13137W        W28754  15.540   3.159  13.810 -0.3200 -0.1379 -0.2363
13138W        W28755  15.056  17.979   4.432 -0.2567  0.0064 -0.1098
13139W        W28756  12.351   0.873   5.017 -0.3243 -0.4104  0.0286
13140W        W28757  15.275   0.604   1.096  0.1016  0.0818 -0.5215
13141W        W28758  13.313   8.708   0.121 -0.2192 -0.0221 -0.1003
13142W        W28759   1.943   1.072   4.097 -0.0569  0.0126  0.3606
13143W        W28760  13.789  11.216   4.317 -0.3615 -0.1461 -0.1593
13144W        W28761   2.363   9.180   0.032  0.0499 -0.0206 -0.4926
13145W        W28762  11.177  10.671   3.990  0.1032 -0.1571 -0.0277
13146W        W28763  10.474   0.474  12.704  0.0737  0.1912 -0.2076
13147W        W28764   7.286   8.605   4.255 -0.0338  0.1326  0.1753
13148W        W28765   4.097   5.595   4.968 -0.1780 -0.0475  0.0455
13149W        W28766   7.714  13.212  12.432  0.0318 -0.4317 -0.2323
13150W        W28767   2.118   4.345  15.667 -0.0868 -0.0337 -0.3602
13151W        W28768   3.216   4.331   2.515  0.2624  0.2435 -0.1456
13152W        W28769   6.228  14.297   0.877  0.4597  0.2829  0.2091
13153W        W28770   1.125   7.577  14.819 -0.3424 -0.0083  0.3041
13154W        W28771  14.959  11.035  15.287 -0.2132  0.5617 -0.2611
13155W        W28772   1.360  11.248  10.918 -0.0671 -0.1546  0.1942
13156W        W28773   6.839   8.785   4.520 -0.0393 -0.4448  0.1539
13157W        W28774   4.916   7.648  13.270 -0.2300 -0.1859 -0.0885
13158W        W28775   6.656   2.436   4.595 -0.0498 -0.1393 -0.3374
13159W        W28776   2.217  13.883  10.738  0.0786  0.3370 -0.0969
13160W        W28777   1.721  18.202   2.715 -0.0967 -0.0582  0.0840
13161W        W28778   1.650   4.183  14.370 -0.1820  0.0014  0.1188
13162W        W28779   4.349   3.176   3.452 -0.1654  0.2568  0.0705
13163W        W28780  10.459   2.905  15.033  0.1406  0.1153 -0.2429
13164W        W28781  11.596  15.037   1.411 -0.2823 -0.0163  0.2075
13165W        W28782   4.947  11.566  14.027 -0.2396  0.0514  0.1403
13166W        W28783  13.196  12.656  13.349  0.1512  0.0622 -0.0965
13167W        W28784  12.217   1.877   4.624  0.3718 -0.0422 -0.2390
13168W        W28785   3.407  16.221   4.185 -0.0207 -0.1605 -0.0831
13169W        W28786   4.712   3.610   4.166  0.1614  0.3162  0.1247
13170W        W28787   9.332  17.139  14.388 -0.4208  0.2011 -0.2936
13171W        W28788  13.933   5.928  13.730 -0.2407 -0.2844 -0.3558
13172W        W28789   8.092   7.721   5.533 -0.3017 -0.0287 -0.0142
13173W        W28790   1.240   9.373   1.301  0.1983 -0.0408  0.0652
13174W        W28791  13.103  12.720   5.560  0.4976 -0.1956 -0.1312
13175W        W28792   5.725   5.933   5.050  0.1397  0.1643  0.0588
13176W        W28793   2.447  17.593  14.751 -0.4050 -0.3462 -0.0179
13177W        W28794   3.692   6.445   4.017 -0.0028 -0.3581  0.1222
13178W        W28795   9.449   3.833   2.062 -0.1418  0.2747 -0.4491
13179W        W28796   6.318  10.900   0.791 -0.1043 -0.0503 -0.4527
13180W        W28797   3.334   9.896   1.929  0.1253  0.3008 -0.2641
13181W        W28798   4.701   2.031  14.156  0.2300 -0.0539  0.3258
13182W        W28799  14.624  11.320   4.336 -0.0521  0.3018 -0.1180
13183W        W28800  11.222   4.733   4.745 -0.3807 -0.0288  0.1325
13184W        W28801   2.870  17.202  15.310  0.0226  0.2522 -0.3801
13185W        W28802  16.757  14.428   2.783  0.1991  0.1402 -0.1250
13186W        W28803   4.622   3.720   4.662  0.2589 -0.2116 -0.2713
13187W        W28804   3.853  11.156  13.076 -0.1359  0.0960  0.2746
13188W        W28805   4.489   7.805  15.717 -0.0537  0.1322  0.0613
13189W        W28806   7.075   4.066  11.830 -0.0824 -0.0124  0.1533
13190W        W28807  18.290   4.408   0.483  0.0348 -0.1280 -0.1680
13191W        W28808   8.808  10.996   0.006 -0.0719 -0.0125 -0.3691
13192W        W28809   0.634   0.955  12.253 -0.2226  0.0710  0.1294
13193W        W28810  11.424   2.866   3.049 -0.1852  0.0962  0.0831
13194W        W28811   8.035   9.173   0.846 -0.1082 -0.3470  0.4106
13195W        W28812  13.731   7.386   1.647  0.1111  0.0431  0.1899
13196W        W28813  11.245   9.441  14.162 -0.2269  0.1512 -0.0240
13197W        W28814  17.943  17.432   1.185  0.0391 -0.1509 -0.0148
13198W        W28815   4.917  13.568  12.470 -0.3084 -0.0921  0.2414
13199W        W28816   9.617  14.121  12.504  0.0226 -0.0716 -0.4944
13200W        W28817  13.583  18.052  13.821 -0.1256 -0.2133 -0.3207
13201W        W28818  13.849  12.021   1.766 -0.0189 -0.0150  0.3089
13202W        W28819  10.593   8.096   1.331  0.2628 -0.2278 -0.2067
13203W        W28820   4.447  18.264   1.498  0.3507 -0.2157 -0.1025
13204W        W28821   9.036   2.543   3.034 -0.1427 -0.0310  0.0170
13205W        W28822  11.228   3.051   1.032 -0.0570 -0.1288  0.3080
13206W        W28823   4.220  16.782   4.925  0.2871 -0.1702  0.1638
13207W        W28824   5.952  15.356  12.046  0.5299  0.0135 -0.1476
13208W        W28825   5.430  13.107  14.525 -0.2524  0.0418  0.0134
13209W        W28826  13.830  16.930   5.457 -0.0717 -0.1212 -0.2749
13210W        W28827   9.726  15.612  15.601 -0.0962 -0.0082 -0.1628
13211W        W28828  10.925  14.841   1.751  0.4847  0.3327  0.2413
13212W        W28829   1.579   1.720  14.174 -0.0159 -0.1892 -0.1219
13213W        W28830   8.596   6.691  12.315 -0.1580  0.0977 -0.2402
13214W        W28831  13.530  12.942  15.360 -0.1445  0.1392  0.1955
13215W        W28832  10.800  13.112  11.488 -0.1545 -0.0235 -0.0803
13216W        W28833   6.840  13.695  13.883  0.0021  0.0498  0.0101
13217W        W28834  11.107   6.000  14.996 -0.0508 -0.2602 -0.1804
13218W        W28835   1.790  12.275  12.074  0.2946  0.1346  0.0091
13219W        W28836  13.649  12.408  11.552  0.0661  0.1517 -0.0157
13220W        W28837   7.009   8.352   4.707 -0.2464 -0.0386 -0.1783
13221W        W28838  17.064  14.665   4.915 -0.1487  0.2053 -0.0826
13222W        W28839  15.802  16.027  12.006  0.3641  0.0266 -0.0115
13223W        W28840  14.496   5.362   4.241 -0.3235  0.0825  0.3180
13224W        W28841   0.725   0.277   2.165  0.2795  0.3273  0.0553
13225W        W28842   4.643  16.525   1.009  0.0004  0.1147 -0.1314
13226W        W28843  11.839   1.623   4.961  0.0435  0.0588  0.2578
13227W        W28844  15.640  12.220   4.281 -0.0849 -0.2045  0.2085
13228W        W28845  18.447   9.353  11.582  0.0330  0.3144  0.1815
13229W        W28846  17.645   7.353  13.890 -0.0751  0.2755  0.2276
13230W        W28847  14.609   4.194  12.111 -0.0601  0.2392  0.2851
13231W        W28848   8.226   3.038  12.664  0.0544  0.0608  0.1242
13232W        W28849   7.122  17.420   3.483 -0.2598 -0.0188  0.0873
13233W        W28850  15.048  10.469   5.391  0.3340 -0.2159  0.0692
13234W        W28851   9.217   0.115   2.082  0.0224 -0.0984  0.4110
13235W        W28852   6.599  10.357   5.587  0.0963 -0.2165 -0.3860
13236W        W28853   7.409   4.824   2.848 -0.0323 -0.4105 -0.3739
13237W        W28854  10.052   7.938  13.249  0.2143 -0.4392  0.0336
13238W        W28855  11.851   1.731  15.018 -0.0319  0.0968 -0.0048
13239W        W28856   2.910   2.293   5.501 -0.0346  0.0012  0.0593
13240W        W28857   3.212   8.737   3.709  0.0332  0.0049  0.1902
13241W        W28858  14.158   3.317   6.538 -0.2323 -0.1972  0.2650
13242W        W28859   4.831  15.715  14.098 -0.0013 -0.2722 -0.0129
13243W        W28860  17.432  14.185   3.189 -0.0217  0.0840 -0.2648
13244W        W28861   7.474   7.299   3.872  0.0266 -0.0311  0.3363
13245W        W28862   0.089  13.880   3.904  0.2870 -0.0086 -0.1145
13246W        W28863   0.960  11.967  13.500  0.2541 -0.0822 -0.0277
13247W        W28864  11.369  16.745  10.834  0.2784  0.0441  0.1367
13248W        W28865  15.664  18.257   1.312  0.2682 -0.1878 -0.0680
13249W        W28866  11.859   4.795  13.199  0.1238 -0.3272 -0.2436
13250W        W28867  17.809  14.866  13.186 -0.3306 -0.3024 -0.1381
13251W        W28868   2.176  11.841   0.092  0.0602 -0.2574 -0.3106
13252W        W28869   9.971   9.829   2.553  0.0317  0.1496 -0.2736
13253W        W28870   9.470   5.302   5.118  0.1216 -0.0351  0.1862
13254W        W28871  16.535  13.173  15.421  0.1685 -0.1834  0.2343
13255W        W28872   7.716  13.523  15.289  0.1301  0.0950  0.3537
13256W        W28873   3.348   0.213   4.635 -0.3772  0.3169 -0.0763
13257W        W28874  17.638  10.526  13.969  0.0076 -0.1730  0.0012
13258W        W28875   5.812  14.091   1.591  0.0171 -0.3043  0.1845
13259W        W28876   4.103  11.154   0.996  0.0990  0.0723 -0.2275
13260W        W28877   7.055   9.994  13.803 -0.1706  0.0309 -0.3553
13261W        W28878   3.701  12.703  14.065  0.0641 -0.0463  0.0187
13262W        W28879   8.802  13.428   4.646  0.1791  0.0047  0.1077
13263W        W28880  16.874   1.867   5.885 -0.2445 -0.2605 -0.4125
13264W        W28881   6.147  18.173  11.713  0.2473 -0.0391  0.1404
13265W        W28882   8.081   0.080  14.508  0.0358  0.0865 -0.2262
13266W        W28883  17.809  14.331  13.213 -0.2121 -0.3345 -0.0076
13267W        W28884   2.342  17.681   4.208 -0.1316  0.1974  0.0609
13268W        W28885   4.778  13.440   2.596 -0.1453 -0.0401 -0.1749
13269W        W28886  15.239  16.780  12.420 -0.2489  0.0155  0.0965
13270W        W28887   5.704   6.834  15.687  0.0688  0.0702 -0.1135
13271W        W28888  12.410   7.973  12.219 -0.2054  0.0720  0.2376
13272W        W28889   6.351  10.563   5.024 -0.0389  0.1034  0.1621
13273W        W28890  17.031  17.177  14.749  0.1642 -0.5412 -0.0695
13274W        W28891   5.099   1.614  15.242 -0.1826 -0.0777 -0.1668
13275W        W28892   5.704  16.684   1.472 -0.2689 -0.0672  0.1361
13276W        W28893   6.905  12.510  11.120 -0.1167  0.1882 -0.1658
13277W        W28894  11.082   9.584  12.820 -0.2362  0.0702 -0.0264
13278W        W28895   0.239  10.496   0.962 -0.1646  0.1001 -0.0117
13279W        W28896  15.980  14.642   0.504 -0.3513  0.1456 -0.2279
13280W        W28897  15.946   9.762   2.919  0.1787  0.0285 -0.0139
13281W        W28898   5.055  15.330  12.798  0.0056  0.1129  0.1521
13282W        W28899  11.661   9.293   0.886 -0.3819  0.0413  0.1742
13283W        W28900  10.926   8.926   5.357  0.0722  0.4013 -0.2738
13284W        W28901   9.992   3.494  13.927 -0.3074  0.0581 -0.0455
13285W        W28902  10.441  10.936   2.550  0.2398 -0.3251 -0.3028
13286W        W28903  12.918   8.698   5.117 -0.3220  0.1387 -0.2907
13287W        W28904  12.022  11.804  13.657 -0.0928 -0.0072 -0.0292
13288W        W28905   4.253   1.958   4.886  0.0848 -0.1934  0.3402
13289W        W28906  16.014   7.713   0.877  0.1947  0.2281  0.0394
13290W        W28907   5.123   0.350  15.773 -0.0338 -0.3748  0.0630
13291W        W28908  18.590  15.252  14.713 -0.0907 -0.0324 -0.3490
13292W        W28909   0.657   9.012  14.551  0.0840 -0.0964 -0.4041
13293W        W28910  15.847  15.179   3.468  0.0717  0.1179  0.0107
13294W        W28911  12.124  17.967  15.197 -0.4189 -0.0673  0.0891
13295W        W28912   2.949   3.630   5.382 -0.2698  0.1289 -0.2512
13296W        W28913  17.582   2.797   6.644 -0.1322  0.0113 -0.3127
13297W        W28914   6.165   9.543   5.159 -0.0582  0.1036 -0.1020
13298W        W28915   1.581   9.602  12.137 -0.3971  0.0350 -0.1234
13299W        W28916  11.760   5.914  14.032  0.4938  0.0269  0.2921
13300W        W28917   1.837  11.375   0.122  0.1768 -0.0462  0.2762
13301W        W28918   1.619  13.330   4.745  0.0348 -0.3521 -0.0965
13302W        W28919   2.577  13.483  12.287 -0.1981  0.0565  0.0757
13303W        W28920   8.572   3.192  11.871 -0.1621 -0.1306 -0.0278
13304W        W28921  10.146  14.765   5.133  0.0653 -0.0801 -0.0165
13305W        W28922  11.641   5.018  11.751 -0.0030  0.0530  0.0855
13306W        W28923   7.993  13.100  14.630  0.2046 -0.0357 -0.0112
13307W        W28924   4.221  11.591  14.142 -0.2424  0.1960 -0.3832
13308W        W28925  13.460   3.284   3.263  0.0902 -0.4373 -0.5095
13309W        W28926   4.326   6.173  14.395 -0.0675 -0.0336  0.2740
13310W        W28927   2.681  15.846  14.188 -0.0099  0.1230  0.1454
13311W        W28928   3.752  14.860  13.052 -0.1310  0.4089 -0.1942
13312W        W28929   5.430  18.532  12.433  0.2437  0.2240  0.0479
13313W        W28930  10.588   8.145   4.401  0.2177 -0.2191  0.1862
13314W        W28931   4.436   8.119   4.449  0.0632  0.0464  0.0224
13315W        W28932  16.319   1.565   3.599 -0.1047 -0.0672  0.0226
13316W        W28933   4.095   6.111   3.919  0.2007 -0.0677 -0.1548
13317W        W28934  16.501   6.753  14.978  0.0558 -0.1459 -0.1002
13318W        W28935  11.927   7.222  15.254 -0.1028  0.0238  0.1700
13319W        W28936  18.540  11.199   2.654 -0.0067 -0.0032 -0.3653
13320W        W28937  15.154   0.946   5.354  0.1805 -0.1231 -0.0775
13321W        W28938   3.169  17.758   1.987 -0.1010  0.1007  0.3496
13322W        W28939   2.803   5.754  10.709 -0.1547  0.5000  0.0117
13323W        W28940   6.511  14.166  14.013  0.0438 -0.0213  0.0054
13324W        W28941   6.022  17.065   2.356  0.0099  0.0365  0.1165
13325W        W28942  12.233  17.428   2.145 -0.0027  0.0523  0.0845
13326W        W28943   9.682  10.891   4.879 -0.0399  0.1027 -0.2374
13327W        W28944   6.598  16.420   3.434  0.1253 -0.0041 -0.0928
13328W        W28945   5.689   6.524  13.126  0.1301 -0.0120  0.3915
13329W        W28946  16.513  13.903   3.908 -0.0899 -0.0796 -0.1396
13330W        W28947   9.800  16.608   0.780  0.4566  0.1306  0.0766
13331W        W28948  17.125  15.233   2.820 -0.0194 -0.3275 -0.3469
13332W        W28949  14.138  18.511   1.351 -0.2802  0.0636 -0.1695
13333W        W28950  14.960  15.693   3.168  0.1241  0.0070 -0.0790
13334W        W28951   6.818   0.461   4.861 -0.0544  0.2702  0.2094
13335W        W28952   0.642   2.892  15.419 -0.0345 -0.4465 -0.2199
13336W        W28953   8.553   1.480   0.773 -0.0318  0.0704  0.1442
13337W        W28954   9.228  18.111  11.467 -0.1378  0.1391  0.1913
13338W        W28955  17.067   2.700   4.665 -0.0347 -0.0559  0.0012
13339W        W28956   7.835  16.804   0.625 -0.0350 -0.4631 -0.0903
13340W        W28957  10.971   9.802   1.988 -0.1402  0.0998  0.0818
13341W        W28958   7.157   0.677  13.897  0.1507 -0.3248 -0.0363
13342W        W28959  11.241   2.430  11.827  0.3896 -0.3804 -0.4746
13343W        W28960   5.109  12.731   2.380  0.0092 -0.0322  0.3111
13344W        W28961  11.002   2.740   4.349 -0.2991 -0.2606  0.0126
13345W        W28962   3.836  12.859   1.862  0.0642  0.4848 -0.0306
13346W        W28963  10.285   9.107  13.246 -0.2686 -0.0286 -0.0378
13347W        W28964  10.948  10.250   0.176  0.2502  0.3715 -0.3148
13348W        W28965   7.014  16.412  12.776  0.1739  0.1013 -0.0536
13349W        W28966  17.433   2.240   5.026 -0.1691  0.0693  0.0273
13350W        W28967  16.440   3.012  15.248 -0.1222  0.1167 -0.0219
13351W        W28968   7.959  10.435   4.000  0.0167  0.0076  0.0885
13352W        W28969   8.871   5.922  11.538 -0.0994 -0.2310  0.2333
13353W        W28970  17.156  17.602  11.623  0.2530  0.2956 -0.2753
13354W        W28971  15.418   8.283   0.092 -0.2520  0.0352  0.0706
13355W        W28972   8.994  13.711   0.656 -0.1479 -0.2817 -0.0063
13356W        W28973   5.745   6.811   0.856  0.1689  0.0400 -0.2493
13357W        W28974   5.558  12.342   4.097  0.0373  0.3589  0.0151
13358W        W28975   7.312   3.291  13.038  0.0118  0.1293 -0.0611
13359W        W28976   2.516   6.577   3.994  0.2232  0.0285 -0.2363
13360W        W28977  15.383  14.167   1.234  0.0011 -0.0943  0.2492
13361W        W28978   3.070   4.898   0.285  0.5450 -0.2083  0.4103
13362W        W28979   1.399  14.327   9.588  0.0900 -0.2246  0.3347
13363W        W28980   6.214  13.310  11.112 -0.0138 -0.0398  0.1898
13364W        W28981  16.889  12.326  15.343  0.3633 -0.0361  0.1666
13365W        W28982   4.669  11.723  14.822 -0.0340 -0.1937 -0.0738
13366W        W28983  13.200   3.282  14.377  0.1738  0.1648  0.4128
13367W        W28984   1.283   5.655   0.265 -0.0183 -0.0072 -0.1221
13368W        W28985   5.839   6.996  14.341  0.4262  0.3053  0.0830
13369W        W28986   5.520   5.348   0.483  0.1251 -0.1178  0.0262
13370W        W28987  15.964  11.665   4.016  0.1040  0.0129 -0.2843
13371W        W28988   9.676   9.426  14.543 -0.1201 -0.2691  0.0063
13372W        W28989  10.297  14.926   1.015  0.0521  0.1390  0.4172
13373W        W28990   4.127   5.407   0.277  0.1120  0.1127 -0.1578
13374W        W28991  14.680   5.985   1.378  0.3132 -0.0268 -0.2597
13375W        W28992  18.630   6.598  11.053 -0.1954 -0.2820  0.0154
13376W        W28993  16.485  16.630   2.458 -0.2899 -0.0324  0.3042
13377W        W28994   3.177  10.438   1.223  0.1315 -0.1957  0.0576
13378W        W28995  16.254   4.848   4.182 -0.2221  0.2229 -0.0293
13379W        W28996   9.290  15.086  12.530  0.1573 -0.1908 -0.5153
13380W        W28997  14.348   9.950   1.254 -0.0607  0.3489  0.1251
13381W        W28998  18.556   5.492   5.655 -0.2119  0.0752 -0.2348
13382W        W28999  17.732   5.289  13.109  0.2781  0.0456  0.2897
13383W        W29000   1.279   3.532  14.724  0.0196  0.0369  0.1293
13384W        W29001   8.281   5.966  14.091  0.0935  0.3725  0.0676
13385W        W29002  16.471  11.330   4.892 -0.1955 -0.1338 -0.2734
13386W        W29003   2.935  16.834   3.986 -0.0193 -0.1077  0.1857
13387W        W29004   1.032   8.030  11.803 -0.1283 -0.2210  0.0655
13388W        W29005   0.136  17.534  11.110 -0.0053 -0.2490  0.1344
13389W        W29006  16.721  17.207   4.447 -0.0309 -0.0554  0.1266
13390W        W29007   7.931  10.927   2.651 -0.2660 -0.1288 -0.0030
13391W        W29008  11.349   5.198   3.036  0.0563 -0.1141  0.2684
13392W        W29009   8.765  14.215   4.112 -0.2041 -0.0758  0.0451
13393W        W29010   9.380   8.143   0.845  0.3628  0.0540 -0.0516
13394W        W29011   2.717   9.215   0.634  0.3741  0.4898  0.1678
13395W        W29012  13.344   1.618   0.079 -0.1984 -0.0735 -0.1261
13396W        W29013  15.271  15.359  13.004 -0.4293 -0.0173 -0.0763
13397W        W29014   5.339  14.131  13.669  0.1815 -0.3795  0.0856
13398W        W29015   3.770   7.974   9.967 -0.3491 -0.0171  0.2103
13399W        W29016   6.014   6.776  10.703  0.0342 -0.2905  0.0922
13400W        W29017   5.093  10.686   2.954  0.1094 -0.0696  0.0152
13401W        W29018   3.482   3.882   0.282 -0.0295  0.1495  0.0538
13402W        W29019  16.535   3.300  13.747  0.0447  0.1385  0.3221
13403W        W29020   1.173  12.678   9.511  0.0986 -0.1504  0.1237
13404W        W29021   7.766  10.442  14.020  0.1121 -0.0011  0.2163
13405W        W29022  15.115  12.317   4.406  0.3169 -0.1725  0.1322
13406W        W29023   6.913  16.497   4.481  0.1249  0.0884 -0.1757
13407W        W29024   6.800   8.064   3.607 -0.2685  0.1633 -0.3263
13408W        W29025   3.762   2.875  13.255  0.4383 -0.3910  0.1925
13409W        W29026   3.997   8.760   1.784 -0.0599 -0.2881  0.0704
13410W        W29027   3.590  11.380   9.798 -0.1082  0.0017  0.1835
13411W        W29028  11.448  10.662  11.487 -0.0600 -0.0518 -0.4118
13412W        W29029   1.456   5.766  12.075 -0.3365 -0.2403  0.3637
13413W        W29030   8.816  15.965  14.893  0.1788 -0.0707  0.3324
13414W        W29031  14.436  17.351   3.623 -0.0211 -0.0535  0.0328
13415W        W29032  12.188   1.193   1.232  0.1162  0.3133 -0.0732
13416W        W29033   7.658   4.858  13.243  0.2449 -0.1353  0.0608
13417W        W29034  13.344   5.863  11.747 -0.2311 -0.1542 -0.0346
13418W        W29035  14.244  12.218  13.543  0.0172 -0.0575 -0.0271
13419W        W29036   9.945   3.882   0.590  0.3695 -0.1814  0.0735
13420W        W29037  14.250  12.826   3.001  0.0098 -0.0162 -0.1522
13421W        W29038   8.247  17.862  12.178  0.3267  0.0577 -0.1209
13422W        W29039  14.532   7.863   3.653  0.0052 -0.1668  0.1006
13423W        W29040   1.960  12.802  14.730 -0.0787 -0.1431  0.0903
13424W        W29041  13.337   0.578   0.167 -0.2971  0.1989 -0.2417
13425W        W29042  16.153   4.584  12.333  0.1609  0.1100  0.1435
13426W        W29043  14.510   3.518   0.235 -0.1951 -0.1507  0.2121
13427W        W29044  17.222   3.653   1.781 -0.2783 -0.2605 -0.0508
13428W        W29045   9.380  11.808   0.039  0.3551 -0.0007 -0.1548
13429W        W29046   8.483  11.258  12.607  0.0265 -0.0616 -0.3052
13430W        W29047  17.705  10.666   0.430  0.4903 -0.1991 -0.0897
13431W        W29048  15.685   3.617  11.572  0.1689  0.1422  0.0402
13432W        W29049  15.407   4.255  11.062 -0.1095 -0.1124  0.0356
13433W        W29050   6.067   2.111   5.937 -0.1898 -0.1393 -0.0876
13434W        W29051   2.326   6.923  11.258 -0.4886 -0.0022 -0.1349
13435W        W29052   9.473  18.170   1.729  0.0870  0.1375  0.2255
13436W        W29053   0.803   8.579  15.313  0.0931  0.0062  0.1798
13437W        W29054  14.283   0.801  12.394  0.5468 -0.2208  0.0730
13438W        W29055   4.801  10.633  12.885 -0.0691  0.1108 -0.0343
13439W        W29056   1.651   3.944   4.775  0.1235 -0.2641  0.0992
13440W        W29057  12.266   9.839   3.967  0.1765 -0.1929  0.1299
13441W        W29058  16.037  16.336  12.812 -0.0966  0.2917  0.1126
13442W        W29059  11.928   7.937  14.732 -0.2515 -0.1898 -0.2308
13443W        W29060   9.285  15.631  12.679  0.1452  0.2105  0.0675
13444W        W29061   1.532   7.789   2.522 -0.1204  0.1984  0.0733
13445W        W29062   5.854  16.576   4.471  0.1492 -0.0786 -0.1366
13446W        W29063   3.762  15.588  14.209 -0.1895  0.0587  0.0354
13447W        W29064   4.445   6.225   0.674 -0.3248  0.2221 -0.0750
13448W        W29065   5.372   2.836   1.109 -0.0237 -0.1980 -0.4926
13449W        W29066   4.088   4.264   2.205 -0.2491 -0.0792 -0.1958
13450W        W29067   6.091   3.242   1.647  0.0230 -0.1479 -0.0686
13451W        W29068   6.512  16.467  15.534 -0.0962 -0.4043  0.3731
13452W        W29069   5.464  11.788  14.146  0.0275  0.1673  0.1835
13453W        W29070   3.410   6.891   0.372  0.1632  0.1286  0.0619
13454W        W29071  15.076   7.319  10.172  0.2908  0.0535  0.2720
13455W        W29072  14.151  16.867  14.184  0.0516 -0.0754  0.0445
13456W        W29073   7.495  10.803   2.343 -0.0026  0.0800 -0.1139
13457W        W29074   7.908  14.202  11.320  0.3053  0.1433 -0.4780
13458W        W29075  10.882   4.324   1.421 -0.0384 -0.3108 -0.0793
13459W        W29076   6.941   5.105  12.645  0.0911  0.0854 -0.0010
13460W        W29077   0.666  13.588   0.924 -0.3334  0.1834  0.3180
13461W        W29078   5.924  16.222  14.722  0.2458  0.0788  0.0278
13462W        W29079   1.044   0.952  15.108  0.1718  0.2522  0.0134
13463W        W29080   2.818   0.337  10.598  0.3820 -0.2757  0.1918
13464W        W29081  16.405  11.526   2.948 -0.1325 -0.0590 -0.0408
13465W        W29082  15.330   8.651  15.442  0.2783 -0.1203 -0.0477
13466W        W29083   8.801   1.823  11.483  0.3196 -0.2077 -0.0072
13467W        W29084   5.849   5.972   5.563  0.2156  0.1261 -0.0948
13468W        W29085   1.398  14.843  14.150 -0.1531 -0.1945 -0.1482
13469W        W29086   3.344   8.247   3.603 -0.0636  0.0673 -0.0726
13470W        W29087  17.735  11.862   1.597 -0.2084 -0.3052 -0.1152
13471W        W29088   2.802  12.965   0.126  0.2822 -0.0954 -0.2864
13472W        W29089   6.913   3.503   4.517 -0.4099  0.0277  0.2473
13473W        W29090   7.202   9.733   1.524 -0.0804  0.2726  0.0062
13474W        W29091  13.145  16.419  12.831  0.0566 -0.0175 -0.2576
13475W        W29092  11.139  13.593   5.317  0.1379 -0.2172 -0.2664
13476W        W29093   2.319  14.755   3.837 -0.0535  0.4415  0.0630
13477W        W29094  17.290   2.163   2.930 -0.0853 -0.2298  0.1580
13478W        W29095  10.096  13.073  12.077 -0.0168  0.0536  0.1757
13479W        W29096  13.476  17.379   1.637 -0.0138  0.1397  0.4149
13480W        W29097  16.448  13.046  10.777 -0.1760  0.0121  0.0472
13481W        W29098   3.201   7.861   3.302  0.0364  0.1514 -0.3670
13482W        W29099  15.398   0.287  11.414  0.0074 -0.4086  0.1833
13483W        W29100   7.452   9.857  11.612 -0.0465 -0.1105 -0.1990
13484W        W29101   6.664   8.219   2.461 -0.0063  0.0419  0.1836
13485W        W29102   3.652   1.466   1.900 -0.0901 -0.0232  0.1208
13486W        W29103  14.039   6.478   3.443 -0.0260 -0.0537  0.1448
13487W        W29104   3.679   4.093   3.260  0.0198 -0.2796  0.1660
13488W        W29105  13.817   4.028   0.821 -0.4557  0.1529  0.0806
13489W        W29106   4.592  17.533  14.374 -0.0105  0.1265  0.3233
13490W        W29107   0.918   8.564  12.302 -0.0223  0.0739  0.2303
13491W        W29108   8.671   3.438   2.811 -0.0344 -0.3423  0.1765
13492W        W29109   4.283   3.714  12.211 -0.1692  0.1165 -0.0609
13493W        W29110   5.918   5.013  11.169 -0.0452  0.0531 -0.2227
13494W        W29111  12.573   3.038  12.644 -0.2093 -0.2136  0.0368
13495W        W29112   4.733   5.293   1.015  0.0836 -0.2065 -0.1146
13496W        W29113  16.370   7.034   3.016 -0.2908  0.1420  0.0031
13497W        W29114   1.925   1.303   2.552  0.1502  0.2022  0.0081
13498W        W29115   7.928   6.240  15.150  0.2041 -0.1335  0.1106
13499W        W29116   8.769  12.009   3.988 -0.0672 -0.1864  0.0148
13500W        W29117   8.123   8.482  15.283 -0.0219 -0.0748  0.2917
13501W        W29118  11.351   0.936   3.287  0.1912 -0.3325  0.0193
13502W        W29119  12.368  11.348  13.608  0.1596  0.1049  0.0404
13503W        W29120  11.698   5.690  15.466 -0.1097  0.0109  0.2003
13504W        W29121  12.260  15.772  12.396 -0.1931 -0.2237  0.0787
13505W        W29122  18.077   8.639   1.480 -0.0275 -0.3703 -0.2285
13506W        W29123  11.624  12.168   5.143 -0.3403  0.0901 -0.0643
13507W        W29124   8.992  16.262  11.151  0.0543  0.0234 -0.1311
13508W        W29125  12.180  16.453   2.410  0.0094  0.1128  0.0056
13509W        W29126   6.319   9.077  12.884  0.2873 -0.1378 -0.0318
13510W        W29127   9.826  10.799  11.189 -0.1664  0.1437 -0.1808
13511W        W29128  11.060   7.115   2.389  0.2154 -0.2459  0.2202
13512W        W29129   0.497  14.478   2.007 -0.0060  0.0302 -0.0575
13513W        W29130   6.200  13.111   1.716  0.2823 -0.2687 -0.0946
13514W        W29131  15.024   6.256  11.704 -0.0432 -0.2562  0.1655
13515W        W29132  17.383  17.578   2.816  0.0032  0.0211 -0.2142
13516W        W29133   5.141   9.092   5.091 -0.2628 -0.2068  0.2843
13517W        W29134   4.667  11.484   3.086 -0.2232 -0.1114  0.2347
13518W        W29135   3.264  12.492   2.435 -0.1021  0.0403  0.1074
13519W        W29136   4.522  11.655   3.951  0.1485  0.0562  0.2870
13520W        W29137   7.291   3.466   0.374  0.1067 -0.0476  0.3513
13521W        W29138   4.244  15.009   1.110  0.3386  0.1484 -0.1598
13522W        W29139  10.383   3.925   2.125  0.1529 -0.3157  0.4503
13523W        W29140   7.717  16.352   4.100 -0.2392 -0.0925 -0.0357
13524W        W29141  17.215   0.895  14.314  0.0584 -0.1176 -0.0449
13525W        W29142   8.549   7.070   3.290 -0.2050  0.2766 -0.1969
13526W        W29143   4.386   7.452   0.841  0.1076 -0.0205 -0.1335
13527W        W29144  17.925   3.181   3.621  0.2042 -0.1460 -0.2217
13528W        W29145   4.690   7.121   3.635  0.3426 -0.0214  0.1557
13529W        W29146   2.028  11.760  14.403  0.0228 -0.0179 -0.1696
13530W        W29147   7.603  11.842   0.713  0.0363  0.0322  0.0269
13531W        W29148   4.069   8.328  11.238  0.0721  0.0965 -0.1417
13532W        W29149   4.019   9.738  14.909 -0.2093 -0.0833  0.1632
13533W        W29150   0.272   1.870  12.322  0.0994 -0.2969  0.4569
13534W        W29151  12.229   2.772   1.960  0.0716  0.1863  0.1944
13535W        W29152   0.665   3.013   1.761 -0.0643 -0.2501  0.1354
13536W        W29153   2.471  16.911  15.064 -0.1185 -0.1686 -0.1195
13537W        W29154   9.018  14.697  12.785 -0.0457 -0.2077  0.0832
13538W        W29155  15.248   6.686  14.159  0.1544 -0.1225 -0.0536
13539W        W29156  10.383  18.370   1.371 -0.2471 -0.0928  0.0819
13540W        W29157  12.653   0.676  10.221 -0.1215 -0.0868 -0.3811
13541W        W29158   6.847   2.647  12.098 -0.0757 -0.0216 -0.1764
13542W        W29159   4.601  10.249  12.129 -0.2481 -0.1389  0.3155
13543W        W29160   8.278   1.325   3.747 -0.0163  0.0117  0.0260
13544W        W29161  11.349  14.275  15.785 -0.1005  0.3159 -0.1089
13545W        W29162  14.222  15.373  15.414 -0.1272 -0.0066  0.1503
13546W        W29163   9.779  11.981  15.448 -0.1183 -0.2006 -0.0577
13547W        W29164  15.558   7.451   1.855  0.0795 -0.4120  0.3622
13548W        W29165   1.229   8.332  11.201 -0.0054  0.0392  0.0067
13549W        W29166   3.237  15.483   4.688  0.1681 -0.2561 -0.2050
13550W        W29167   6.787   5.993  12.127  0.0145  0.3794  0.1416
13551W        W29168   9.972  18.538   5.046 -0.1347  0.4387 -0.1420
13552W        W29169  16.068  10.667   0.691  0.3909  0.4167  0.2026
13553W        W29170  11.335  13.524  14.518  0.6077  0.1335  0.0552
13554W        W29171   5.981   1.390  14.785 -0.1779 -0.6866  0.0064
13555W        W29172  13.693  11.041  10.906  0.0058  0.1501 -0.2069
13556W        W29173  18.153   9.295  14.017 -0.3701  0.1100  0.4536
13557W        W29174   5.172  16.018   2.507 -0.0711  0.0765 -0.1632
13558W        W29175  17.589   2.675  11.928 -0.2114 -0.2053  0.1346
13559W        W29176  10.412   4.709  13.446 -0.0307 -0.0692 -0.2926
13560W        W29177  12.126   5.422  13.788 -0.0521  0.4050  0.0655
13561W        W29178  15.761  12.167  14.886  0.5104  0.0846 -0.4137
13562W        W29179   4.235   2.775   6.320  0.1401 -0.0132  0.2162
13563W        W29180   7.334   6.172   3.110  0.1394 -0.0872  0.2085
13564W        W29181  16.793   0.121  15.079  0.1167  0.1999  0.0222
13565W        W29182   8.700   2.651  11.952 -0.0887 -0.0874  0.3668
13566W        W29183   4.997   8.878  12.369  0.1036  0.0491  0.0700
13567W        W29184  10.203  11.825   0.758  0.1978 -0.0933 -0.1382
13568W        W29185   2.302   9.023   0.808  0.0264 -0.0913  0.1199
13569W        W29186  10.210  18.017   3.326 -0.2303 -0.0010  0.2960
13570W        W29187  11.569  13.847  15.727  0.0505  0.0308 -0.2359
13571W        W29188   6.350   5.267  12.682 -0.0301  0.3331 -0.0924
13572W        W29189   5.555  18.265   2.940  0.3921 -0.1146 -0.1312
13573W        W29190  14.386  15.019  12.301  0.3714  0.3007  0.1217
13574W        W29191  13.382   7.148  11.755 -0.2782 -0.2405  0.2493
13575W        W29192   5.430  17.666  13.824  0.0964 -0.0876 -0.1178
13576W        W29193  17.613   2.893   6.108 -0.1435  0.1341 -0.2323
13577W        W29194   4.559  17.307  12.230 -0.1980 -0.1220  0.1048
13578W        W29195   8.711   4.155   5.361  0.2574  0.0311  0.3697
13579W        W29196   8.533   1.773  12.492  0.2639  0.1591  0.0228
13580W        W29197  16.850  16.327  15.361  0.3122 -0.0019 -0.0159
13581W        W29198   7.495  17.346  14.337 -0.3623 -0.3336  0.3011
13582W        W29199   4.630  16.034   2.832 -0.0579 -0.2957  0.2198
13583W        W29200  14.426  10.780  11.575  0.0959  0.1769  0.3518
13584W        W29201  14.321   5.556  11.449  0.2596  0.0422 -0.3054
13585W        W29202   2.602   5.205  12.694 -0.2729 -0.2034  0.1202
13586W        W29203   0.538   0.098  15.442  0.0459  0.1722 -0.0197
13587W        W29204   1.542  14.104  11.377 -0.0162 -0.0344  0.2683
13588W        W29205   4.596   7.649  14.105 -0.0652  0.1656 -0.0515
13589W        W29206   7.444  13.136  10.509  0.2462  0.2350  0.2651
13590W        W29207   7.230   1.035  13.499 -0.0429  0.2204  0.0728
13591W        W29208   8.810  12.201  15.116  0.3819  0.1513 -0.1528
13592W        W29209  17.569   4.067  14.929 -0.0718  0.2074 -0.1633
13593W        W29210  17.874   8.272  14.693 -0.4353  0.1894  0.0952
13594W        W29211   9.661  10.175   4.055 -0.1458 -0.3090 -0.1497
13595W        W29212   2.343  10.980  15.365 -0.0806  0.1793  0.0714
13596W        W29213  17.543  17.776   4.300  0.3669  0.0806 -0.0546
13597W        W29214  14.156   6.993   5.430 -0.2160  0.1912  0.0292
13598W        W29215   5.900  10.705   0.545 -0.1044 -0.1616  0.0051
13599W        W29216   4.792   4.677  13.147 -0.0135 -0.2245 -0.2268
13600W        W29217   2.081   8.271  11.715  0.0104  0.2700 -0.3105
13601W        W29218  16.318   6.799  12.354  0.0401 -0.4777  0.1645
13602W        W29219   0.212   5.654   0.783 -0.2230  0.2170 -0.1916
13603W        W29220   5.768  14.525   0.132  0.0878  0.2288 -0.1788
13604W        W29221  12.747  18.435  12.768 -0.2448  0.0887  0.3701
13605W        W29222   8.065  16.875   0.175 -0.1165  0.0685  0.1878
13606W        W29223   4.235  15.501  14.090  0.2759 -0.0264  0.1872
13607W        W29224   2.807  11.094  10.807 -0.3570  0.1170  0.2349
13608W        W29225   8.780  12.608   3.479  0.0626 -0.1574 -0.3770
13609W        W29226  16.169   7.615  12.836 -0.0176 -0.0606 -0.2206
13610W        W29227  16.210   7.681   3.679 -0.0974  0.1682  0.2723
13611W        W29228   0.548   0.907   3.578 -0.1456 -0.1583 -0.1440
13612W        W29229  18.557  15.975   3.773  0.1956 -0.0523  0.0404
13613W        W29230  11.725   0.244  13.530  0.2792  0.0298  0.1357
13614W        W29231  10.495  11.729   0.316 -0.0925  0.1567  0.0130
13615W        W29232   0.545  17.374   2.627 -0.0731 -0.1097 -0.0171
13616W        W29233  15.903   3.793  12.769  0.0274 -0.2233 -0.1437
13617W        W29234   1.611  18.205  10.569  0.0053 -0.0225 -0.0780
13618W        W29235   4.560   8.946   2.488 -0.2150  0.3784  0.1004
13619W        W29236  12.683  15.696   1.913 -0.0174 -0.0433  0.2201
13620W        W29237   8.954   3.721   1.496 -0.0823  0.2513 -0.0066
13621W        W29238  13.306  12.128   1.781  0.1099  0.0751  0.0207
13622W        W29239   4.944   9.301  10.851  0.1415 -0.2345  0.1988
13623W        W29240   5.534  17.385  13.410  0.0912 -0.2607  0.1853
13624W        W29241   6.440   7.338  13.758  0.0401 -0.1069  0.1263
13625W        W29242   2.112   2.902  13.519  0.2939 -0.0413 -0.4283
13626W        W29243   1.753  17.734   2.685 -0.0276  0.0426 -0.3957
13627W        W29244  17.573   1.667  14.196 -0.0885 -0.0524  0.4218
13628W        W29245   4.413  12.091   0.070 -0.3451  0.2055 -0.0421
13629W        W29246   4.523  13.623   3.018 -0.1481 -0.0811 -0.0549
13630W        W29247   0.647  16.405   4.305 -0.1677 -0.4030 -0.4207
13631W        W29248   6.406   6.942  15.685 -0.1873  0.0208  0.0104
13632W        W29249   7.375   5.958   5.785  0.1582  0.1029  0.1944
13633W        W29250  13.606  16.303  12.438 -0.0515 -0.1212 -0.1934
13634W        W29251   3.536   0.633   3.687 -0.0385 -0.1928  0.3305
13635W        W29252  17.730  14.085  13.709 -0.2822 -0.0271  0.3912
13636W        W29253   6.902   0.695  13.402 -0.1106  0.1936 -0.0108
13637W        W29254   0.208   0.213   1.671  0.0666 -0.1511  0.3279
13638W        W29255  13.766   8.304   4.850 -0.0903  0.2091  0.1487
13639W        W29256  18.024  10.849   9.794 -0.1298  0.0806 -0.0114
13640W        W29257   5.651   8.333  12.442 -0.1220  0.3742  0.0563
13641W        W29258   6.968   3.553  13.546  0.0392  0.0308  0.3508
13642W        W29259  18.375  16.036   0.731  0.2143 -0.0980  0.0656
13643W        W29260  12.097   5.306  11.963 -0.0984  0.0726 -0.1418
13644W        W29261  12.733  10.633  10.938 -0.1908 -0.2296 -0.0003
13645W        W29262   1.823  13.440  13.038 -0.0862 -0.1519 -0.0085
13646W        W29263   4.627  12.189   5.380 -0.0845  0.2078 -0.2462
13647W        W29264   7.423   2.800  13.134 -0.0373  0.2479 -0.0967
13648W        W29265   4.290   6.717  11.759 -0.2311  0.1726  0.1589
13649W        W29266   3.066  10.339   5.118 -0.0542 -0.3607  0.1483
13650W        W29267   9.170  15.460  15.127  0.0052  0.1756 -0.1938
13651W        W29268   4.271  17.682   3.855 -0.1013  0.0643  0.1032
13652W        W29269   4.836   8.587  12.867 -0.1407  0.0832 -0.3230
13653W        W29270  10.702  14.496   3.967  0.2950 -0.0460 -0.0880
13654W        W29271   4.940   3.282   2.006 -0.0104  0.0824 -0.0650
13655W        W29272  13.775  11.348   4.818 -0.0715  0.1876 -0.1763
13656W        W29273  15.594  15.571   5.965 -0.2006 -0.0734  0.2258
13657W        W29274  18.121  16.617   2.463  0.3002  0.1862  0.1822
13658W        W29275   1.453  12.759  12.652  0.2736 -0.0471 -0.1432
13659W        W29276   3.270   6.598  13.004  0.0011  0.1437  0.0482
13660W        W29277  16.285  14.604   1.485 -0.2471 -0.1623  0.3189
13661W        W29278   4.893  12.208   1.417 -0.2135  0.1981  0.0240
13662W        W29279  12.992  11.821   2.091  0.0493  0.4897 -0.2307
13663W        W29280  17.634   9.827   1.532 -0.1451 -0.1057  0.1735
13664W        W29281   0.864  10.817   0.494  0.2431 -0.1396  0.0507
13665W        W29282  13.467  10.886  13.307 -0.0403  0.0501  0.0323
13666W        W29283  18.494  13.189   3.200 -0.1406  0.0106  0.2524
13667W        W29284  17.282  14.191   4.966 -0.1672  0.2858  0.4639
13668W        W29285  15.404  15.838   2.907 -0.0999 -0.1103 -0.0569
13669W        W29286  16.983  18.200  13.946  0.1396  0.0002 -0.0939
13670W        W29287   7.981  11.835   2.718  0.2000  0.0107 -0.1538
13671W        W29288  13.568   2.357   1.805  0.0721  0.0053  0.0017
13672W        W29289   3.298  12.741  13.578  0.2354 -0.0476 -0.0043
13673W        W29290   0.184  15.912  12.951 -0.1106  0.1742  0.3419
13674W        W29291   0.477   7.168   3.312  0.2241 -0.0936  0.0904
13675W        W29292   8.798  16.476  12.366 -0.0960  0.1180  0.0842
13676W        W29293  13.374  13.141  14.248  0.0116 -0.0968 -0.3584
13677W        W29294   0.252  11.128  10.825 -0.2119  0.0130 -0.4732
13678W        W29295  15.098  15.367   2.786  0.0499 -0.1683 -0.2027
13679W        W29296   6.756   0.395   4.101 -0.0946  0.1017  0.0490
13680W        W29297  14.463  18.646  12.231  0.1307 -0.2435  0.0227
13681W        W29298   0.158  11.609  12.922  0.2345 -0.3410  0.1757
13682W        W29299  11.386   1.774   1.248  0.2545 -0.3033 -0.1257
13683W        W29300   8.280   4.944   2.927 -0.1126  0.0781 -0.1163
13684W        W29301  18.475  10.201  11.937  0.2211 -0.2563 -0.4242
13685W        W29302  18.518   6.004   0.882  0.1602  0.0841 -0.0107
13686W        W29303   2.268   7.314   3.609 -0.3398  0.1902 -0.2278
13687W        W29304   0.904  15.015  14.192  0.0712  0.1119  0.1295
13688W        W29305  10.770   6.386  15.672 -0.0714 -0.3102 -0.1363
13689W        W29306   1.086  16.682  13.150 -0.1413 -0.1609  0.0600
13690W        W29307   4.623  11.640   1.790 -0.0524  0.0322 -0.0130
13691W        W29308  14.408  10.855   3.613  0.0199  0.2938 -0.1891
13692W        W29309   0.953  10.005   3.996 -0.1308  0.1772 -0.0335
13693W        W29310   4.948   4.528  12.197  0.5719 -0.0359 -0.6502
13694W        W29311  14.230   3.180   1.843  0.0864  0.0315 -0.2520
13695W        W29312  13.770  16.744   0.876  0.0598 -0.0101 -0.0591
13696W        W29313  11.854  13.822  13.995  0.2767  0.1697  0.0737
13697W        W29314   0.670   3.860   1.875  0.2672  0.2598 -0.2010
13698W        W29315   9.077  16.588   2.283 -0.3647 -0.0632  0.1486
13699W        W29316   7.790  15.091  10.847  0.1639 -0.0059  0.0822
13700W        W29317   5.205   0.415  12.408  0.1569  0.0970  0.2290
13701W        W29318  11.953   3.313   6.293  0.1189 -0.0333  0.0253
13702W        W29319  17.252  14.081   2.271  0.2107 -0.0445 -0.0362
13703W        W29320   9.363   5.424   3.110  0.1063  0.2799  0.1861
13704W        W29321  10.286  11.841   3.211 -0.1106  0.0969 -0.0838
13705W        W29322   1.816  12.663   0.671 -0.1246  0.2538  0.1563
13706W        W29323   9.538  16.732   4.037 -0.0385  0.1146 -0.3528
13707W        W29324  16.110   8.916  11.856  0.3144 -0.3330  0.1345
13708W        W29325   8.929  13.693  14.929 -0.0271  0.2458 -0.2110
13709W        W29326   0.966   3.683  14.369  0.0483  0.3134 -0.0643
13710W        W29327  15.053  13.806   3.913 -0.1584  0.2218  0.1407
13711W        W29328   9.004   5.023   5.283  0.1308 -0.0862  0.2936
13712W        W29329   1.542   9.917   3.443  0.4391 -0.0102  0.2208
13713W        W29330   1.754  11.501  15.177 -0.1506 -0.4808 -0.2751
13714W        W29331   8.691  10.060   3.812  0.0218 -0.2185 -0.1357
13715W        W29332  14.954  17.810  13.495  0.0093  0.2546 -0.0751
13716W        W29333   2.449   7.944   2.657  0.0751 -0.0795  0.0105
13717W        W29334  13.519   0.945   2.732 -0.1214  0.1073 -0.1196
13718W        W29335   2.046   7.757   2.372 -0.0404  0.0095 -0.0576
13719W        W29336   5.512   3.758  15.287 -0.1513 -0.2086  0.0377
13720W        W29337  12.070   8.001   2.922  0.2426 -0.2272 -0.1474
13721W        W29338   2.544  12.233  13.795 -0.1460 -0.0263  0.0348
13722W        W29339  10.356   3.210   2.365 -0.2959 -0.0758  0.0172
13723W        W29340  14.545  18.648   1.668 -0.0460  0.0067 -0.2291
13724W        W29341  17.910  11.179   2.887 -0.2232  0.2912 -0.1389
13725W        W29342  12.902   5.346  12.349 -0.1102 -0.1343  0.2330
13726W        W29343  14.644   8.534   3.795 -0.0750 -0.0170  0.2650
13727W        W29344   3.226   4.006   0.974  0.0785  0.0138 -0.0239
13728W        W29345   4.857  14.280  11.163 -0.0432  0.2273 -0.1795
13729W        W29346  15.391   2.186   2.139 -0.0767  0.1745  0.2856
13730W        W29347   3.288  13.309  13.706  0.0856 -0.0642  0.1290
13731W        W29348  11.376   6.431  14.902  0.2262  0.1677  0.4625
13732W        W29349  12.679   7.901  14.139  0.1571 -0.1887 -0.1030
13733W        W29350   0.375   2.485  14.097 -0.0144 -0.3987 -0.2477
13734W        W29351  17.674  16.458  14.769  0.2014 -0.1467  0.0334
13735W        W29352   6.899  14.163  15.290  0.0340  0.3163 -0.0904
13736W        W29353  13.031  15.469   0.861  0.1765 -0.0617  0.0184
13737W        W29354   7.266  18.077   2.688  0.0658  0.2424 -0.2449
13738W        W29355   7.965  17.631   1.105  0.0604  0.2037  0.4854
13739W        W29356  16.361  14.626  12.257  0.1714 -0.1960  0.1512
13740W        W29357  10.369   6.046   1.763 -0.0657 -0.1553  0.0211
13741W        W29358   6.980  17.011   4.467 -0.4558  0.0224  0.0512
13742W        W29359  18.222   6.786   3.014 -0.2221  0.1085  0.1751
13743W        W29360   1.218  15.444  12.008 -0.0775  0.2931  0.3663
13744W        W29361  14.908  14.553  12.632  0.1003  0.0281  0.1396
13745W        W29362   3.949  12.953  12.980 -0.2546 -0.1760  0.0281
13746W        W29363   8.135  10.224  14.694  0.1565 -0.4181  0.2275
13747W        W29364  11.059  13.499  10.664  0.0988  0.3697  0.1563
13748W        W29365   4.052  11.795  12.303 -0.0629  0.2429 -0.0744
13749W        W29366   6.331   5.948   3.377  0.1224 -0.0119  0.3601
13750W        W29367   9.830  13.279   0.168  0.0581  0.1915  0.2558
13751W        W29368   9.569   1.480   0.288 -0.0191 -0.2256 -0.1074
13752W        W29369  14.037  10.281   1.935  0.1751  0.2120  0.0743
13753W        W29370  11.183  14.537  11.463  0.0763  0.2448  0.0866
13754W        W29371  14.938   9.306  12.614  0.0689  0.1169  0.1231
13755W        W29372  10.453   0.603  15.299  0.1661 -0.1536  0.2256
13756W        W29373   0.714   9.527  13.870  0.1110 -0.1070 -0.0866
13757W        W29374  18.029   8.406  14.122  0.1972 -0.1316  0.1819
13758W        W29375   0.069   0.444  11.829  0.0581 -0.2082  0.0199
13759W        W29376   5.834  17.452   2.675 -0.0138 -0.0230  0.3444
13760W        W29377   7.076  10.543   2.522 -0.1470 -0.2182 -0.1819
13761W        W29378   8.107  14.600   4.904 -0.0109 -0.0523  0.0103
13762W        W29379   3.730  10.526   2.628  0.1462 -0.2817 -0.4044
13763W        W29380  18.094   7.543  13.995 -0.1264  0.1021 -0.1695
13764W        W29381  17.054  10.813  12.359  0.1161 -0.4008 -0.1784
13765W        W29382  12.282   2.667   4.592  0.2379 -0.1539  0.0410
13766W        W29383   9.616   6.907  15.285  0.0663 -0.0851 -0.0374
13767W        W29384  16.498   5.280   3.129 -0.1711 -0.2198 -0.2883
13768W        W29385   5.951   2.620  11.542 -0.0441 -0.0272  0.0835
13769W        W29386  12.745  10.263  10.582  0.0875 -0.1460 -0.0181
13770W        W29387   6.448   9.501   0.721  0.0468  0.1154 -0.1646
13771W        W29388   2.265   9.482   0.516  0.0625  0.6088 -0.1714
13772W        W29389  14.704  14.374  11.812  0.1020  0.1836 -0.0507
13773W        W29390   8.300  16.415   1.590 -0.0111  0.1334 -0.1524
13774W        W29391   5.985  14.719  12.057 -0.0614 -0.1143  0.0172
13775W        W29392   3.295  13.357  14.330  0.0945 -0.0582 -0.2881
13776W        W29393  11.146   6.382  13.337 -0.4714  0.4036  0.0493
13777W        W29394   8.870  16.064   3.703 -0.2877 -0.0297  0.1734
13778W        W29395   3.793   2.955  14.544  0.1036 -0.2696 -0.1190
13779W        W29396   8.547  11.447  12.096 -0.2015 -0.2122 -0.5604
13780W        W29397  18.118  17.876   3.420 -0.0302 -0.1548 -0.0231
13781W        W29398   9.477   9.573  11.901  0.1893 -0.2304 -0.0745
13782W        W29399   5.427   3.943   3.626  0.1197  0.1406 -0.1225
13783W        W29400  18.293  13.336   0.788 -0.2483 -0.2075  0.3188
13784W        W29401   8.453   2.520   0.142  0.0693  0.1239 -0.0397
13785W        W29402   7.318   3.084  12.013 -0.0461  0.0077 -0.4581
13786W        W29403  12.904  16.848   3.883  0.3075  0.1435 -0.2817
13787W        W29404   4.728  13.122   3.037  0.1757  0.0131 -0.0690
13788W        W29405   9.012   2.643   4.386  0.0969  0.1737  0.0665
13789W        W29406   0.485   9.700   3.643 -0.3431  0.1309  0.1998
13790W        W29407  13.439   1.799   5.160  0.0178 -0.5253 -0.0794
13791W        W29408   5.330  13.771  13.351  0.1124 -0.0922  0.3292
13792W        W29409   0.421  13.144   3.527 -0.1443 -0.1966  0.0272
13793W        W29410   1.196  11.726  12.395  0.0200 -0.3250 -0.2436
13794W        W29411   2.747  18.270  11.771 -0.0790  0.2890 -0.3611
13795W        W29412  16.146   8.842  10.516  0.0277  0.2511 -0.0069
13796W        W29413  15.103   5.911   0.340 -0.1447  0.2032 -0.1874
13797W        W29414   3.794  11.271  11.490  0.0312  0.0078 -0.1839
13798W        W29415  17.755  11.572   4.948 -0.0556 -0.4157 -0.4052
13799W        W29416   3.440  12.965   2.547  0.4821  0.0998  0.3149
13800W        W29417   2.559  16.513  11.043  0.0779  0.1085  0.1980
13801W        W29418  14.451   5.703  14.254  0.1400 -0.1168  0.0775
13802W        W29419  14.070   8.382  14.835  0.3727  0.0228  0.1763
13803W        W29420  11.519   5.120   5.475  0.3133 -0.0538 -0.1569
13804W        W29421  17.518  13.578   2.153  0.0267 -0.0088  0.1083
13805W        W29422   2.537  14.976  12.156  0.2588 -0.0298 -0.1052
13806W        W29423   1.498   9.143   4.956  0.0931 -0.3339 -0.1360
13807W        W29424   1.568  14.717   1.762 -0.2506 -0.0045  0.1405
13808W        W29425   3.843  13.350  11.331 -0.0755 -0.2414 -0.0989
13809W        W29426   7.812   8.173   1.154 -0.0000  0.1031 -0.4346
13810W        W29427   8.310  17.509   4.033  0.2088 -0.1753  0.2697
13811W        W29428  11.064  11.777   1.065  0.2089  0.4402 -0.2665
13812W        W29429  16.892  13.964  11.028 -0.2749  0.3496 -0.3426
13813W        W29430   7.345   4.232  15.513  0.2045 -0.1942 -0.0299
13814W        W29431  17.055   6.938   3.762  0.0645 -0.0011  0.1758
13815W        W29432  17.593  14.786   4.794 -0.2006  0.0347 -0.1483
13816W        W29433   1.537  14.508   0.217 -0.4665 -0.0060 -0.0629
13817W        W29434  12.779   7.089   0.148  0.4000  0.1389 -0.1816
13818W        W29435   9.314  16.138   1.953  0.1050 -0.2063  0.0002
13819W        W29436   9.478  17.755   1.139 -0.0065  0.0287  0.1757
13820W        W29437   5.763  14.473   3.667 -0.4511 -0.0566  0.3196
13821W        W29438   2.849  17.392   1.763 -0.2495 -0.0368 -0.2808
13822W        W29439  11.061  12.032   3.052  0.0523 -0.2251 -0.1897
13823W        W29440  17.403   1.355   5.254 -0.1933  0.0291  0.5106
13824W        W29441  14.504  14.834   0.792  0.1179  0.0698  0.1295
13825W        W29442   0.425   8.727  12.035 -0.1685  0.1220 -0.2525
13826W        W29443   2.851  11.747  13.061 -0.0046 -0.5224 -0.2768
13827W        W29444  17.600  12.065   5.111 -0.0043  0.1116 -0.2593
13828W        W29445  10.822  15.802   4.206 -0.0077 -0.0524  0.2316
13829W        W29446  11.090   2.736   1.337 -0.1707  0.0222  0.0035
13830W        W29447   8.605  15.129   2.151  0.1999 -0.2044  0.2025
13831W        W29448   5.946  15.060  12.520  0.1753  0.3893 -0.0907
13832W        W29449   4.796   2.950   5.809 -0.1167  0.1895 -0.2488
13833W        W29450   8.016   2.732  13.410 -0.3632  0.0804 -0.0392
13834W        W29451  15.334   4.279   4.834  0.0375 -0.1120 -0.1215
13835W        W29452   9.598   1.638   2.319  0.0969  0.2656  0.1402
13836W        W29453  17.028  16.792   0.425 -0.2883  0.0537  0.0185
13837W        W29454  12.664   1.687  10.648 -0.3634 -0.0878 -0.5496
13838W        W29455  15.001   0.048   0.292  0.1426  0.0573 -0.1334
13839W        W29456  10.242  12.756  14.740 -0.0818  0.2610  0.0564
13840W        W29457  14.355   7.441   5.580 -0.2130 -0.0757  0.2872
13841W        W29458  16.278  18.021   1.486  0.0598 -0.2875 -0.1360
13842W        W29459   9.490   5.193  12.998 -0.0704  0.0403 -0.2729
13843W        W29460  13.962   6.371  10.207  0.1224  0.0763  0.1471
13844W        W29461  11.645   1.352   1.393  0.0406  0.3330 -0.4652
13845W        W29462  10.157   4.513  15.787  0.1616  0.0630 -0.0220
13846W        W29463  16.916   6.358   1.444  0.1344  0.3746 -0.0687
13847W        W29464   7.624   6.464   3.516 -0.2096  0.3173 -0.0357
13848W        W29465  11.231   5.870  12.610  0.1729  0.0709  0.0501
13849W        W29466   4.186  17.354  15.340  0.2477 -0.0614  0.0484
13850W        W29467   3.102  16.313  14.023 -0.1661 -0.3696 -0.3021
13851W        W29468  16.679  17.878   1.265 -0.3148  0.1313  0.0761
13852W        W29469   0.396  14.474   3.601 -0.3012  0.0682  0.0042
13853W        W29470  17.583   8.997   3.329  0.0031 -0.0405  0.5075
13854W        W29471   4.149  10.958  12.623 -0.0405  0.2230  0.2871
13855W        W29472  17.012   5.064  11.531  0.0737  0.1801  0.0077
13856W        W29473   7.411  11.762   1.751  0.0486 -0.0198  0.2329
13857W        W29474  17.908   2.607   3.514  0.1649 -0.0722 -0.0256
13858W        W29475   5.489   4.799   2.390 -0.0901  0.0983 -0.0572
13859W        W29476  16.110   1.381   2.375  0.0576 -0.1221 -0.0878
13860W        W29477   9.328  10.426  14.814 -0.1194 -0.1080  0.1042
13861W        W29478   3.753   2.369   1.635  0.0889  0.1440  0.0486
13862W        W29479   9.087  10.639   4.681  0.1298  0.0069 -0.0686
13863W        W29480  16.937   4.854   5.957 -0.0366 -0.0367  0.0314
13864W        W29481   2.836   6.197  15.299 -0.1555 -0.2256  0.1225
13865W        W29482  15.255  15.785  12.779 -0.2346 -0.0137  0.0214
13866W        W29483   5.585   8.779   1.672  0.0764  0.1885 -0.0669
13867W        W29484  12.558   8.795  13.787  0.2554  0.2488 -0.0565
13868W        W29485   3.727   2.731  13.725  0.2080  0.3391  0.0439
13869W        W29486  10.107   2.810  15.401  0.1497 -0.0786  0.0868
13870W        W29487  18.368   5.999   3.921 -0.0799  0.0969 -0.0949
13871W        W29488  10.824   5.810   5.266  0.2086 -0.0157  0.0475
13872W        W29489   2.910  13.513   1.389 -0.1597 -0.1396 -0.0570
13873W        W29490   1.773   0.581  14.938 -0.0666 -0.0739  0.1023
13874W        W29491  14.569   6.237  13.013  0.2061  0.2232  0.1802
13875W        W29492  13.969  17.823  12.473  0.2568 -0.2585  0.1658
13876W        W29493   0.840  13.153  11.033 -0.0245  0.2859 -0.3051
13877W        W29494  11.698   1.839   2.607 -0.1624  0.3677  0.3933
13878W        W29495   9.807   5.602   2.851  0.1268  0.1988  0.0962
13879W        W29496  15.746   5.669   3.889 -0.0752 -0.3565 -0.0990
13880W        W29497   2.719   9.108   2.265  0.3429  0.0722 -0.1081
13881W        W29498   0.278  14.112   1.101 -0.1682  0.0448  0.0258
13882W        W29499  14.545  13.473   3.638  0.1363 -0.1594 -0.2140
13883W        W29500  17.059  14.054   4.530 -0.4797 -0.2387 -0.1219
13884W        W29501   6.541  13.175  10.430 -0.2013  0.3837  0.2219
13885W        W29502   0.819  13.661   9.939  0.0740 -0.2405 -0.1221
13886W        W29503   1.629  12.732   2.945 -0.4668  0.2739  0.3577
13887W        W29504  11.427  16.479   2.936 -0.1044  0.0090 -0.1030
13888W        W29505   9.818   6.950  10.861 -0.0734 -0.1056 -0.0822
13889W        W29506  11.847  12.740   3.508  0.1767 -0.1283 -0.3509
13890W        W29507   6.682   3.732  14.352 -0.2286  0.0426  0.2549
13891W        W29508   9.655  16.289  11.775 -0.0502 -0.1442  0.0492
13892W        W29509  18.372  17.510   0.868 -0.0374  0.0933  0.1376
13893W        W29510   1.321  13.648   4.328 -0.0645 -0.0311  0.0033
13894W        W29511   2.487  16.818  11.545  0.0704 -0.0512  0.0603
13895W        W29512  17.108   7.968  14.389  0.0259  0.0276 -0.1781
13896W        W29513   4.458  12.880  15.207  0.1966  0.0442 -0.1175
13897W        W29514  14.489   2.635   5.852  0.1778  0.5583  0.2230
13898W        W29515   6.403  14.228  11.325 -0.3948 -0.1466 -0.0680
13899W        W29516  13.880  15.903  13.291  0.0042  0.0442 -0.0385
13900W        W29517   7.064   1.411   3.856 -0.1783 -0.2909 -0.2196
13901W        W29518  17.681   9.760  11.806 -0.1287 -0.1018  0.0205
13902W        W29519  14.536  14.887   9.810  0.1668  0.1573  0.2398
13903W        W29520  17.205  18.526   4.220  0.1544  0.0965  0.0091
13904W        W29521  16.356  18.357   3.559  0.2087  0.4898 -0.1293
13905W        W29522  11.926  18.195  14.252  0.1534 -0.1793 -0.1716
13906W        W29523   2.763   9.250   1.535  0.0150  0.1664 -0.1842
13907W        W29524  13.302   4.169  14.614  0.0952  0.2565  0.3011
13908W        W29525  15.665  11.792  14.135  0.0583 -0.2339  0.0569
13909W        W29526   0.251  12.545  11.142  0.2489  0.2372  0.0752
13910W        W29527  12.131   7.369  13.109  0.0994  0.0215  0.2661
13911W        W29528  10.058   7.841   4.428 -0.1726 -0.0501 -0.2282
13912W        W29529  10.461  10.772  14.929 -0.2231 -0.0791  0.1698
13913W        W29530   1.142   2.753  15.388  0.3523 -0.0005  0.2288
13914W        W29531   4.475   0.941  14.642 -0.2223 -0.1062 -0.3460
13915W        W29532  17.430  14.013  15.723  0.2584 -0.3242  0.1666
13916W        W29533   2.391   8.469  13.488 -0.4163 -0.4482  0.0755
13917W        W29534  17.881  15.500  11.024 -0.1130 -0.2208 -0.0622
13918W        W29535   1.285  15.278   4.689  0.1553 -0.1603 -0.0283
13919W        W29536   1.826   7.577  14.433 -0.1808 -0.1993 -0.0569
13920W        W29537  16.439  17.456   4.074 -0.0552 -0.2422 -0.0443
13921W        W29538  14.242   6.957   4.387  0.0535  0.1021  0.0455
13922W        W29539   7.723   2.181   4.833 -0.0930  0.0553 -0.0908
13923W        W29540   2.719   3.212   2.224 -0.1219 -0.1592  0.2660
13924W        W29541   7.235   0.666   2.413  0.0442 -0.1872  0.0227
13925W        W29542   3.039   5.386   3.176  0.0873 -0.1325 -0.3005
13926W        W29543  12.816   6.067  11.762  0.3267  0.2392 -0.0698
13927W        W29544   6.191  12.890   0.544 -0.0966 -0.3704  0.2821
13928W        W29545   2.418   9.841  14.495  0.2080  0.0650 -0.0321
13929W        W29546   6.715   4.857  11.202  0.0505 -0.3510 -0.0846
13930W        W29547  14.971   2.822   3.406 -0.0170  0.0722 -0.0500
13931W        W29548   9.513   5.744  12.880  0.1001 -0.0765 -0.3546
13932W        W29549  18.142   6.748  13.387 -0.1241 -0.1521 -0.2366
13933W        W29550  14.062  11.695  14.190  0.1401  0.1176  0.2434
13934W        W29551  11.844  14.316  15.727  0.3945  0.1782  0.3571
13935W        W29552  17.610  11.009  12.949  0.1363  0.2289  0.1458
13936W        W29553   4.175  17.727   3.202  0.3481 -0.1687 -0.1502
13937W        W29554   0.344  17.241   4.317  0.3089  0.3564  0.1854
13938W        W29555   9.395   0.760   0.948  0.1439  0.1446  0.0765
13939W        W29556  17.639   2.932  15.522  0.1174 -0.0526  0.0013
13940W        W29557  11.757  14.263   5.941  0.2622  0.1248  0.3206
13941W        W29558  17.528   3.336   4.172 -0.0075 -0.2074 -0.4612
13942W        W29559   5.772   3.991  13.759 -0.2183 -0.0219  0.0144
13943W        W29560   3.901   5.307  12.557  0.3713  0.2232  0.1762
13944W        W29561   1.907   9.984  12.535  0.1611 -0.0108  0.4029
13945W        W29562  11.912  15.449  11.941  0.1590  0.0798 -0.2611
13946W        W29563   4.628   1.479   5.389  0.3322  0.1635 -0.0056
13947W        W29564  14.081   6.507   1.702 -0.1042  0.1670  0.0007
13948W        W29565   6.081  13.702  14.718 -0.0630 -0.0113 -0.0763
13949W        W29566   8.488   9.778  14.619 -0.0438  0.1708  0.1539
13950W        W29567  14.381   2.630  14.261  0.2634 -0.1333  0.0625
13951W        W29568  15.787  13.297   3.116  0.1172 -0.0366 -0.0234
13952W        W29569  10.531   2.778  13.595  0.0437 -0.0246 -0.3096
13953W        W29570  10.296   0.773   3.475  0.2948  0.2118  0.0782
13954W        W29571   4.866  13.593  14.189 -0.1286  0.0272  0.0308
13955W        W29572   6.223   5.514   0.222  0.1897  0.1594  0.0785
13956W        W29573  13.739  15.076   5.396 -0.2679  0.1132  0.3124
13957W        W29574   3.657   9.445   3.188 -0.4194 -0.0101 -0.2139
13958W        W29575   6.530  11.464   9.988 -0.1793 -0.1828  0.2132
13959W        W29576  16.226   9.503   3.597 -0.3597 -0.0894 -0.2742
13960W        W29577   4.732  14.291   5.501  0.2159  0.1422  0.0480
13961W        W29578   0.723   6.194   4.113 -0.1809  0.4046  0.1542
13962W        W29579  13.220   3.988  13.337 -0.0510 -0.0786 -0.0881
13963W        W29580   2.232  12.980   0.967  0.2408 -0.0508  0.0672
13964W        W29581  13.588   9.684   3.154 -0.1742  0.1344 -0.0741
13965W        W29582   4.446  11.331   2.259 -0.0623  0.2368 -0.0027
13966W        W29583  16.241  13.521  13.743 -0.1435 -0.0595 -0.1994
13967W        W29584   1.502  12.022  13.486  0.1874  0.1293  0.0741
13968W        W29585  16.397  11.450   3.858  0.1073 -0.0727  0.3663
13969W        W29586   3.248  14.342   1.496  0.0619 -0.0091  0.0022
13970W        W29587  10.119  10.977  14.549  0.1204  0.3640  0.1012
13971W        W29588  12.983   9.552   2.519 -0.0203  0.0736 -0.2847
13972W        W29589   3.557  14.589  11.392  0.0855  0.0946  0.0348
13973W        W29590   1.340  17.940   3.024 -0.1311 -0.0944 -0.3359
13974W        W29591  18.082  17.590   2.288 -0.0383 -0.2040 -0.0821
13975W        W29592   6.678   2.120  14.726 -0.1925  0.1568 -0.3505
13976W        W29593   8.690  13.529  11.825 -0.0815 -0.1813  0.1137
13977W        W29594   0.874   6.240   1.276 -0.0699 -0.0594  0.1207
13978W        W29595  17.674  18.369   2.425  0.0658 -0.1625  0.1294
13979W        W29596  12.058  12.867   4.504  0.1809  0.1241 -0.0058
13980W        W29597   9.415   9.186   2.190 -0.0869  0.1246 -0.0284
13981W        W29598   7.079   1.764   4.181 -0.0878 -0.1749  0.0531
13982W        W29599  15.522  17.503  12.747  0.0836 -0.2533 -0.1693
13983W        W29600   1.019   5.543  15.365  0.3415  0.4251 -0.3214
13984W        W29601  13.685  17.082  14.800  0.1153 -0.1243 -0.4034
13985W        W29602   5.691  14.101  12.728 -0.1197 -0.0590  0.0988
13986W        W29603  14.854  13.845   3.467 -0.1205 -0.2755  0.0093
13987W        W29604  14.500   5.128   1.750 -0.0387 -0.3854  0.2175
13988W        W29605   9.324  14.549   4.991 -0.3706  0.2075 -0.1354
13989W        W29606  13.857  16.148   2.530 -0.1462 -0.4080  0.0794
13990W        W29607   9.681   1.197   6.206  0.2181  0.0690  0.0691
13991W        W29608  14.112   5.162   3.034 -0.0729 -0.2471  0.2170
13992W        W29609  17.877  17.659  11.802 -0.0710  0.1257 -0.1243
13993W        W29610  12.164   3.501  15.002 -0.2471  0.0625 -0.2040
13994W        W29611  15.784   2.134   2.966  0.1854  0.3706  0.1697
13995W        W29612  12.542  11.043   4.454  0.1141  0.1171 -0.0282
13996W        W29613  15.122   4.413  11.451 -0.0549 -0.1088  0.2328
13997W        W29614   0.427   7.729  13.764  0.0918 -0.2097 -0.0977
13998W        W29615   4.344  11.389  13.254 -0.0262  0.3423 -0.0192
13999W        W29616  15.422  18.047  15.241  0.0021  0.1907 -0.0524
14000W        W29617  15.289   6.194  11.281  0.0356 -0.1248 -0.2515
14001W        W29618   7.965  15.964   4.902 -0.0657  0.2249  0.1365
14002W        W29619   9.670   6.663   2.693 -0.1546  0.1020 -0.3512
14003W        W29620  15.708   6.519   4.311 -0.0311 -0.1407  0.1028
14004W        W29621   7.866   3.471   2.905  0.3709 -0.1316  0.3277
14005W        W29622  15.703  15.944  10.171 -0.0494  0.0773 -0.1186
14006W        W29623  15.351   3.788   4.766 -0.2329 -0.4594 -0.0514
14007W        W29624  11.653  13.622  12.283 -0.0155 -0.1262  0.1174
14008W        W29625   5.082   3.018  12.054 -0.1015 -0.0747 -0.1519
14009W        W29626   5.242  15.042   5.491 -0.3505 -0.0463  0.1733
14010W        W29627  11.962   1.952   5.413  0.0230  0.2589  0.2703
14011W        W29628  18.465  16.390  15.377  0.0263  0.0216 -0.1119
14012W        W29629   5.246  16.862   4.716  0.1201  0.1298  0.0605
14013W        W29630  14.263   1.050  13.393  0.1306  0.0165  0.1724
14014W        W29631  15.318   5.415   5.450  0.1381  0.0513  0.3062
14015W        W29632   0.889  16.917   4.132  0.1802 -0.0556  0.0917
14016W        W29633  14.662   4.995   2.905 -0.0032 -0.2825 -0.0112
14017W        W29634  13.475   0.547   3.861 -0.0050 -0.3489  0.0678
14018W        W29635   4.581   4.800   3.862  0.0710 -0.1247  0.1480
14019W        W29636  10.844  13.895  13.944  0.1451 -0.0010 -0.1822
14020W        W29637  14.251  16.434  14.565 -0.2092 -0.1968 -0.1237
14021W        W29638  14.568  13.386  13.573  0.2872 -0.6951 -0.0931
14022W        W29639   0.636  10.193   0.839 -0.1043 -0.1929 -0.0781
14023W        W29640   8.855   5.581   1.765  0.1153  0.0536  0.0041
14024W        W29641  10.972  13.022   3.879  0.0351  0.0990  0.0127
14025W        W29642   6.913   9.644  13.340  0.1780  0.2213 -0.1314
14026W        W29643  11.852  15.083   4.293  0.0247 -0.1490  0.3208
14027W        W29644   3.965   7.081  11.457 -0.0222  0.0568  0.2008
14028W        W29645   3.644  10.157   3.725 -0.0502  0.0479  0.2751
14029W        W29646   6.463   0.518  13.241 -0.2281  0.1458  0.0168
14030W        W29647  17.701   2.772  11.047  0.1597  0.2277 -0.0228
14031W        W29648   2.944   3.345  14.143  0.1526 -0.0104 -0.1015
14032W        W29649   8.396   6.463  12.753  0.3593  0.2222  0.1643
14033W        W29650   0.544  16.376  13.733 -0.2156  0.1482  0.0315
14034W        W29651   9.795   0.058  15.632  0.0453 -0.0422  0.1196
14035W        W29652  16.263  18.096   0.212  0.1983  0.0721  0.1271
14036W        W29653   2.199   2.655   5.454  0.0928  0.0006 -0.0136
14037W        W29654  14.933   5.744   3.198 -0.0043 -0.1125 -0.2967
14038W        W29655   7.418  17.869  11.633  0.0869  0.0675  0.4021
14039W        W29656  17.426  16.722   1.562  0.0997  0.3204 -0.0712
14040W        W29657   7.105  10.306  10.970 -0.0154 -0.0122  0.2266
14041W        W29658  13.974   0.457  15.512 -0.0383  0.0909  0.0558
14042W        W29659   1.876   2.510  15.080 -0.2238  0.2029  0.0168
14043W        W29660  12.471  11.191   4.956  0.0196  0.1503  0.1178
14044W        W29661   9.430   8.136   2.971  0.4235  0.2585  0.2302
14045W        W29662  11.354   6.634   2.900  0.0025  0.1565 -0.0751
14046W        W29663   4.094   8.582  15.779 -0.1202 -0.2943  0.0017
14047W        W29664   9.230   5.911   0.938  0.0816  0.2446 -0.3391
14048W        W29665   0.896  15.350   0.169 -0.4276 -0.3605 -0.0177
14049W        W29666   9.132   3.286  14.284  0.3200  0.3284 -0.0554
14050W        W29667   6.908   3.141  12.380 -0.0105 -0.0678 -0.1457
14051W        W29668   4.339   2.662   4.349  0.1135 -0.1161 -0.4381
14052W        W29669   7.394   9.555   9.489 -0.1997  0.0369  0.0194
14053W        W29670   8.526  10.140  15.311  0.3717  0.2017  0.2834
14054W        W29671  14.297   9.712  13.684  0.0100  0.1166  0.1909
14055W        W29672   9.853  14.262  15.649  0.0684 -0.1051  0.1596
14056W        W29673  17.729   7.085   0.323  0.1746  0.0680 -0.3929
14057W        W29674   1.342  14.365   3.647  0.3541  0.1710 -0.1079
14058W        W29675   3.786  18.482  14.693  0.1143  0.0463 -0.0824
14059W        W29676   8.268   7.971   1.134 -0.0546  0.1192 -0.1092
14060W        W29677   2.674  15.374  13.008 -0.3505 -0.2689  0.1908
14061W        W29678   4.141   7.427   1.424 -0.1762  0.2557 -0.0301
14062W        W29679  12.892   3.489   2.740  0.3092 -0.3582 -0.1288
14063W        W29680   0.712   4.055  14.661 -0.0617  0.5264  0.0823
14064W        W29681  10.871   2.035  15.070 -0.1966  0.0338 -0.0594
14065W        W29682   4.170  10.961  11.362  0.2411 -0.4031  0.4946
14066W        W29683  13.080  13.984   2.536 -0.0361  0.3877  0.3190
14067W        W29684   3.911   1.522   3.688  0.0359 -0.0245  0.0742
14068W        W29685   9.941  11.591  14.649  0.2952 -0.2718  0.3735
14069W        W29686  13.436  10.237  12.112  0.1559 -0.2206  0.0194
14070W        W29687   3.273   3.896   4.821  0.0880 -0.0427  0.2029
14071W        W29688  17.070  15.767   0.260  0.3441  0.0453  0.1934
14072W        W29689  10.551   5.861   0.470 -0.3084 -0.0178  0.1810
14073W        W29690  17.759   9.921   9.536  0.4671  0.0273  0.1478
14074W        W29691  12.560  12.292  15.736  0.2995 -0.1417  0.3225
14075W        W29692  17.910   4.761   5.577 -0.1977 -0.2413  0.1350
14076W        W29693   7.414   5.852   0.152 -0.0635  0.3055  0.0177
14077W        W29694  16.643  13.585  15.692  0.1262 -0.2459  0.1166
14078W        W29695   2.292  15.541   2.937  0.0013  0.1253  0.2544
14079W        W29696  18.186   5.597   2.225  0.2530 -0.3779  0.4414
14080W        W29697  17.185  14.297  15.376 -0.1024  0.2122  0.1564
14081W        W29698  15.771  15.447   1.543 -0.0791 -0.0114 -0.0228
14082W        W29699  14.443   2.667  12.331 -0.0220 -0.2349  0.3179
14083W        W29700  10.699  13.033   5.596 -0.0648  0.4780 -0.2285
14084W        W29701   0.497   8.397   4.622 -0.1874 -0.1794  0.0372
14085W        W29702  15.106   0.764   2.079  0.2023  0.1119  0.0190
14086W        W29703   2.893  11.868  12.150  0.2300  0.4179  0.1613
14087W        W29704  14.746   4.805   1.994  0.2256  0.0930  0.1493
14088W        W29705  15.235  11.263  15.034 -0.0127  0.1020  0.1034
14089W        W29706  16.492   5.794   0.076  0.0478  0.0380 -0.3949
14090W        W29707   0.887  15.734   3.418  0.0249 -0.0136  0.2246
14091W        W29708  14.951   9.052  13.042  0.0942 -0.3245 -0.1504
14092W        W29709   8.206   8.350  14.805  0.3163  0.0556 -0.0511
14093W        W29710  17.500   6.260   3.831  0.0711  0.1899 -0.0988
14094W        W29711   8.837  12.510  12.857 -0.0282  0.1112 -0.1708
14095W        W29712  17.630   6.814  12.273  0.1087 -0.0572 -0.3747
14096W        W29713   6.550  10.155   4.680 -0.0108 -0.2142 -0.0341
14097W        W29714   1.978  17.035  15.294  0.1628 -0.1031 -0.0499
14098W        W29715  14.906  10.265  13.074 -0.1373  0.4712  0.1141
14099W        W29716  17.819   1.460  11.367  0.2443  0.2424 -0.1286
14100W        W29717   7.162   8.059   5.715 -0.0666  0.0288 -0.0117
14101W        W29718  11.688  12.476  14.989  0.2301 -0.2282 -0.2194
14102W        W29719   7.809   3.654  14.886  0.2843  0.0423  0.0115
14103W        W29720  11.679   8.105   0.615  0.2720  0.1721  0.3131
14104W        W29721  13.059   7.816  15.394  0.1315 -0.2059  0.0547
14105W        W29722  17.082  13.129   3.591  0.0405  0.5987  0.2427
14106W        W29723   0.495  10.172   5.000 -0.3050  0.0789 -0.1067
14107W        W29724   8.073  10.409   9.472 -0.2805 -0.3447  0.0215
14108W        W29725  18.568   2.360   0.268 -0.2498  0.0254  0.3191
14109W        W29726   6.954   0.430  14.835 -0.0671 -0.1095 -0.0653
14110W        W29727  10.139   0.880   1.053  0.0187  0.0396 -0.2554
14111W        W29728   8.730   8.063  14.478 -0.3780  0.0436  0.2199
14112W        W29729   5.286   2.751   1.600 -0.2026 -0.0532  0.6682
14113W        W29730   7.200   4.330   2.660  0.2380 -0.1316  0.0289
14114W        W29731  11.497  16.741  11.616  0.2469 -0.0039  0.2820
14115W        W29732   7.703  17.427   3.152  0.0582  0.1754 -0.1407
14116W        W29733  10.223  14.387   0.280 -0.0352  0.0588  0.0421
14117W        W29734   3.619   4.254  15.218 -0.0590 -0.0274 -0.1818
14118W        W29735   2.942   6.793   1.610 -0.1731  0.1393 -0.1460
14119W        W29736   5.449  10.053   9.802  0.2722 -0.2072 -0.0206
14120W        W29737  17.099   5.681   0.236  0.0519 -0.2807  0.0934
14121W        W29738  11.864  14.388   4.433  0.0600 -0.0878  0.2363
14122W        W29739   5.718   7.243   5.323  0.2090  0.2707 -0.4961
14123W        W29740  14.055   2.518   1.626 -0.1879  0.2301 -0.0299
14124W        W29741   9.716  14.029   1.916  0.0061 -0.0207  0.0650
14125W        W29742   7.843   9.567   5.781  0.0465 -0.0597  0.0826
14126W        W29743  14.556  12.166   4.742  0.2387  0.4632  0.3721
14127W        W29744   3.547   5.770   3.343 -0.1211 -0.2483 -0.0713
14128W        W29745   7.457  16.061  14.341  0.1308  0.1442  0.1276
14129W        W29746  13.383   1.153   3.148 -0.1136  0.2606  0.1438
14130W        W29747  14.335   2.505   4.942 -0.2377 -0.1283 -0.0109
14131W        W29748   4.770   4.146   4.774  0.1747 -0.2319  0.0971
14132W        W29749  14.985   7.524  15.706  0.0586  0.0774  0.1848
14133W        W29750   1.402   5.042  14.758  0.4037 -0.1094 -0.2893
14134W        W29751   3.785   4.069   1.827 -0.0811 -0.1502 -0.0377
14135W        W29752   2.897   4.599  10.266 -0.1350 -0.0975  0.0005
14136W        W29753  10.550  17.419  14.664  0.1019 -0.4542 -0.0453
14137W        W29754  15.236  17.752   0.724  0.1650 -0.0992 -0.2165
14138W        W29755   5.641   0.383  15.660 -0.1965  0.1319  0.0488
14139W        W29756  11.066   8.331  12.449 -0.2276 -0.1131 -0.0217
14140W        W29757   8.562   4.851   1.046 -0.0952  0.2061  0.1767
14141W        W29758  11.569  16.779   3.766  0.1995  0.2174 -0.2458
14142W        W29759  14.145  17.387   5.616  0.1070  0.1652  0.0625
14143W        W29760   5.127   5.566   3.013  0.0199  0.1923 -0.0155
14144W        W29761  13.757  16.876   3.567  0.4823  0.0671  0.0743
14145W        W29762   1.328  10.933   5.533 -0.0084  0.1991  0.1796
14146W        W29763   4.397  15.358   0.082 -0.2054 -0.4698 -0.1646
14147W        W29764   4.785   4.675   3.373 -0.2677  0.0799  0.1149
14148W        W29765  14.436   2.267  15.686 -0.1727  0.0604 -0.2016
14149W        W29766  16.123  17.580  13.505 -0.2615  0.0206  0.0460
14150W        W29767  10.569  12.325   3.014  0.0293  0.2104 -0.1425
14151W        W29768  17.509   5.408  15.094 -0.1074  0.0453  0.0300
14152W        W29769   0.684  14.137  12.997 -0.2098  0.0666  0.0227
14153W        W29770  14.653   0.933  14.431  0.2268 -0.1085 -0.1932
14154W        W29771  12.737   8.162   2.811  0.1586  0.0321  0.0230
14155W        W29772   7.454  12.850   0.298 -0.0236  0.0673  0.1661
14156W        W29773   2.044  14.512   5.121 -0.1739  0.0460 -0.1350
14157W        W29774   5.097   4.939  13.654 -0.0268  0.0464  0.1294
14158W        W29775   6.668  11.545   0.249  0.0246  0.3656  0.4918
14159W        W29776  15.427   6.569  11.012  0.1656 -0.0684 -0.1625
14160W        W29777  17.580  13.544  14.281  0.0137 -0.0188 -0.0444
14161W        W29778  10.874  16.824  10.839 -0.6030  0.1391 -0.1896
14162W        W29779  12.897   6.541   0.884 -0.1617 -0.0155  0.1278
14163W        W29780  12.800  11.476   5.681 -0.3239 -0.0459  0.2837
14164W        W29781  11.000   1.722   4.375 -0.0688  0.1189 -0.0534
14165W        W29782   5.650   2.982   2.801  0.1027  0.2452 -0.0654
14166W        W29783  17.359  15.041   4.295 -0.0312  0.1647  0.3451
14167W        W29784   6.650  16.470  14.198  0.3409 -0.1919 -0.1679
14168W        W29785  10.191  11.661  15.510  0.1138 -0.1500  0.1869
14169W        W29786   3.510  15.907  13.905  0.0773 -0.1683  0.1925
14170W        W29787  15.594   7.650   4.565  0.3192  0.0357 -0.1662
14171W        W29788  15.285  13.555  12.993 -0.0408  0.0530 -0.2026
14172W        W29789   4.363   0.967   3.110  0.1194 -0.3083 -0.0699
14173W        W29790   8.863   8.835  14.374  0.3161  0.0979 -0.0374
14174W        W29791  15.584  10.481   4.354  0.1367  0.0260 -0.0514
14175W        W29792  11.454  14.216   1.991 -0.2621 -0.1319 -0.3327
14176W        W29793  17.669  12.214   2.755 -0.1892 -0.0697  0.0640
14177W        W29794  17.009   5.155   0.190 -0.2999 -0.0517  0.4191
14178W        W29795   3.002  10.774  15.353 -0.0173 -0.4126 -0.1856
14179W        W29796   9.643  12.409   3.464 -0.1243 -0.1539 -0.0218
14180W        W29797   6.988  12.710   0.060 -0.0243 -0.0630 -0.2707
14181W        W29798   1.304  14.283  13.104 -0.1860  0.1410  0.1761
14182W        W29799   0.643  16.577   3.832  0.4354  0.1564  0.1582
14183W        W29800   6.527   2.054  10.248  0.1023 -0.0954  0.2285
14184W        W29801   7.799   2.053  11.310  0.1760  0.1360  0.0033
14185W        W29802  12.030  17.423  13.580  0.3526  0.2601  0.2987
14186W        W29803  16.752   9.161   1.385 -0.0170  0.0336  0.1542
14187W        W29804   6.554   8.168  14.264 -0.0512 -0.0141 -0.0602
14188W        W29805   9.606   2.806  11.488 -0.5062  0.0708 -0.1074
14189W        W29806  18.417   8.528  13.674 -0.0521 -0.0869  0.3172
14190W        W29807   4.363  12.171  15.006 -0.2223 -0.3017  0.1020
14191W        W29808  15.029   2.328   4.457  0.0391  0.0517 -0.1572
14192W        W29809  13.523   7.187   1.248 -0.1297 -0.3326 -0.0106
14193W        W29810  13.566  14.858   0.218 -0.4235  0.0377  0.0662
14194W        W29811  18.372   0.029  14.177  0.2299  0.2251  0.1803
14195W        W29812   3.599   1.518  15.754  0.0007  0.0342 -0.0024
14196W        W29813   6.677  15.677  12.596 -0.1766 -0.0646 -0.1448
14197W        W29814  18.150   7.536   4.197  0.4305  0.4082 -0.2802
14198W        W29815   3.523  16.728  15.385 -0.1281  0.4019  0.2175
14199W        W29816  13.567   8.539   1.412  0.3144 -0.2258  0.0082
14200W        W29817   3.344   3.534  12.869 -0.3168 -0.4090 -0.2214
14201W        W29818   1.969  16.481   2.210  0.1167 -0.0507 -0.1568
14202W        W29819  10.065   4.523  14.419  0.3144  0.0483 -0.0126
14203W        W29820   7.910   1.587  11.257  0.2528  0.0836  0.2564
14204W        W29821  17.291   9.388   2.979 -0.0760  0.4121  0.2726
14205W        W29822   2.986  13.131   3.172  0.1643  0.1011  0.2250
14206W        W29823   9.942   7.288  13.495  0.1013 -0.0670 -0.0187
14207W        W29824  14.199   1.569   2.076 -0.0667  0.2717  0.0073
14208W        W29825   0.137  10.038   0.896 -0.0712  0.0871  0.0194
14209W        W29826   6.809  16.068   3.136  0.0863  0.1697 -0.0121
14210W        W29827   5.585  13.826   3.033  0.3950  0.0764 -0.1217
14211W        W29828   7.916  16.786  14.903 -0.0559 -0.0804 -0.0543
14212W        W29829   9.559   4.013  15.614 -0.2003 -0.2763 -0.0969
14213W        W29830   5.715  13.736  10.152  0.1424  0.1594 -0.1377
14214W        W29831  11.798  14.582   1.301 -0.1305 -0.2119  0.0558
14215W        W29832  15.616  15.825  11.140  0.1426 -0.0876 -0.0924
14216W        W29833  16.123  17.826  14.004 -0.0754 -0.1564 -0.1627
14217W        W29834  10.473   8.615  13.994  0.0083 -0.1089 -0.0713
14218W        W29835   5.539   0.108   2.811 -0.0115  0.1260  0.0238
14219W        W29836   1.795  11.819  13.955 -0.4955  0.0617 -0.2697
14220W        W29837  12.541   6.001  14.400  0.0131 -0.0920 -0.1513
14221W        W29838   3.222   4.288  13.110  0.0832  0.2863  0.0870
14222W        W29839   4.275   2.444  13.563  0.1743  0.0485 -0.1779
14223W        W29840  17.443  15.022   0.174  0.1389  0.1526  0.1289
14224W        W29841   0.665  17.296  13.718  0.0721 -0.0342 -0.0661
14225W        W29842   8.691   3.646   3.337 -0.2287  0.0627 -0.2331
14226W        W29843  11.419  11.827  12.214 -0.0896  0.0591 -0.1181
14227W        W29844   6.550  15.719   4.111  0.2332  0.4298 -0.0982
14228W        W29845  10.544   3.458  12.889  0.2292  0.0750  0.5193
14229W        W29846   9.821  15.574   9.411  0.1631  0.2806  0.2864
14230W        W29847   6.454  17.006   1.730  0.0944 -0.0351 -0.2074
14231W        W29848  11.610   7.736   4.522  0.1306 -0.1337 -0.1325
14232W        W29849   1.953   5.962  11.252 -0.1806  0.1930  0.2573
14233W        W29850  15.872   8.746   2.458  0.0614 -0.0150 -0.1783
14234W        W29851   5.726  11.171   0.040 -0.1127 -0.3282  0.0559
14235W        W29852   7.760  11.158  11.082  0.1453  0.1350 -0.0784
14236W        W29853  11.820  17.364   0.918 -0.0529 -0.2289  0.0910
14237W        W29854   0.263   9.248  14.990  0.0209 -0.1437 -0.0550
14238W        W29855   7.039  16.920   1.171 -0.0664  0.2329  0.2504
14239W        W29856  11.524   3.573   0.831 -0.1889  0.1452 -0.0249
14240W        W29857  11.546   5.655   4.501 -0.2219  0.3648  0.1758
14241W        W29858   8.930  11.700   1.257 -0.0640  0.1843  0.1728
14242W        W29859  12.780  15.248   5.882 -0.2879 -0.0566 -0.2568
14243W        W29860  10.140   6.083  14.704  0.3611 -0.5250  0.2816
14244W        W29861   3.847  12.517  14.555  0.1770  0.0142  0.0966
14245W        W29862   6.418   2.056   1.658  0.0093  0.1731 -0.1051
14246W        W29863   6.706   1.005  11.953  0.2607  0.1364 -0.0267
14247W        W29864  17.227  14.243  13.724 -0.0188 -0.1206 -0.2720
14248W        W29865  13.955   2.010   4.129  0.0064 -0.2236 -0.1361
14249W        W29866   5.224  18.551   9.618 -0.1105 -0.2509  0.0388
14250W        W29867  18.320   0.580  13.301  0.0820 -0.0068  0.3087
14251W        W29868   5.388   4.324   0.458  0.3698  0.2007 -0.0608
14252W        W29869  18.402  17.407  14.958 -0.0490  0.1527 -0.0745
14253W        W29870   9.979  12.046  12.655 -0.1031  0.1026  0.2481
14254W        W29871  11.205  10.120   1.632 -0.0907  0.2977 -0.0445
14255W        W29872  13.189  13.328  11.641  0.2400  0.3536 -0.1425
14256W        W29873  13.964   9.380  15.163  0.0588 -0.2244  0.0611
14257W        W29874  12.456  16.718   3.780  0.1149  0.0093 -0.1494
14258W        W29875   4.254  18.111  14.775 -0.1740 -0.0228 -0.0386
14259W        W29876   1.486   7.617   3.682  0.0752 -0.2329  0.4256
14260W        W29877  12.340   2.211   4.243  0.0521  0.0436  0.2778
14261W        W29878   7.933  10.175  11.667  0.2837  0.1754 -0.3627
14262W        W29879  13.118   8.891   3.221  0.2109 -0.0828  0.3843
14263W        W29880  17.008  14.668  12.986 -0.1199 -0.4114 -0.0456
14264W        W29881   2.287   6.068  11.939 -0.0167 -0.0070 -0.1903
14265W        W29882   2.103  11.255  12.509 -0.0756 -0.1386  0.0654
14266W        W29883  10.080  13.282   4.272 -0.0309  0.3888 -0.0438
14267W        W29884   2.293   8.871   4.353  0.1851 -0.1000  0.1693
14268W        W29885   8.207  15.659   0.906  0.0878 -0.1419 -0.1017
14269W        W29886  11.055  18.086  11.923 -0.2011 -0.1915  0.0254
14270W        W29887   1.026  18.583   3.272 -0.2100 -0.1159  0.0036
14271W        W29888  14.304   0.667   4.891  0.4970  0.2615 -0.1804
14272W        W29889  11.076   8.950  15.378 -0.1427 -0.0199  0.1339
14273W        W29890  16.314  14.394  11.621 -0.3140 -0.1535  0.1385
14274W        W29891   1.297   2.475   0.017  0.2057 -0.0680 -0.0029
14275W        W29892   0.462   3.275  10.423 -0.3627  0.0347 -0.0397
14276W        W29893   0.358   7.146   4.122 -0.0979  0.0704  0.2376
14277W        W29894   8.104   0.375  11.239 -0.1818  0.0725  0.0381
14278W        W29895   4.058  11.419   4.823 -0.0611  0.1717  0.0937
14279W        W29896  17.507   4.082  12.393  0.2114 -0.3391 -0.0170
14280W        W29897   9.521   0.576   0.527 -0.1734 -0.0385  0.3160
14281W        W29898   2.890   7.235  13.739  0.0421  0.2852  0.0362
14282W        W29899  11.384  11.309  14.286 -0.0752 -0.1676 -0.0666
14283W        W29900  17.652  11.700  15.425  0.1709  0.1995  0.0728
14284W        W29901   1.868  18.473   1.255  0.2949  0.0386  0.1210
14285W        W29902  15.332  12.133  14.516  0.0430  0.1897  0.2589
14286W        W29903  14.067   2.560   4.198  0.1766 -0.0655  0.0339
14287W        W29904   5.039  13.707   2.218  0.0298  0.0443  0.4703
14288W        W29905  15.498   6.292   3.429 -0.2209 -0.0505 -0.1048
14289W        W29906  12.960   5.848  12.215  0.0232 -0.0811 -0.2298
14290W        W29907  13.916   0.951   4.773  0.2585 -0.1720 -0.0580
14291W        W29908   2.853   7.934   2.047 -0.0105 -0.2639 -0.0857
14292W        W29909  12.701   8.103  13.079 -0.1931  0.0875 -0.0305
14293W        W29910   2.728  18.248  11.173  0.4054  0.0502  0.1147
14294W        W29911   6.406  11.433   0.644 -0.0642  0.1170 -0.1254
14295W        W29912  11.738  16.985  14.885  0.0475 -0.3190 -0.1042
14296W        W29913   1.251   8.078   1.527  0.1710 -0.1714  0.3321
14297W        W29914  12.569   6.276  13.002 -0.0761  0.1944 -0.2330
14298W        W29915   6.938  16.670   2.307 -0.4538  0.1334 -0.1172
14299W        W29916  15.893  16.116   0.692  0.2651 -0.1914  0.3211
14300W        W29917  15.381   9.002  11.150 -0.2167 -0.3540 -0.2911
14301W        W29918   9.906   8.490   3.724 -0.4147  0.2968 -0.0735
14302W        W29919   3.895   9.112  12.040  0.0353  0.2782  0.1129
14303W        W29920  17.106   0.641   5.127  0.2109 -0.0951  0.0962
14304W        W29921  12.105   5.202   2.432 -0.0944  0.0055  0.0049
14305W        W29922   8.614   3.046  12.362  0.2261  0.2883 -0.1045
14306W        W29923  16.227   6.537   5.111  0.2790  0.2693 -0.0677
14307W        W29924   2.919   9.869  13.387  0.0461  0.0138 -0.0447
14308W        W29925   8.370   7.621  10.668  0.0121 -0.1421 -0.3945
14309W        W29926   4.575  14.340  11.691 -0.1920 -0.0074 -0.0584
14310W        W29927   3.705   6.824   4.537  0.0884  0.0569  0.2961
14311W        W29928  12.329  16.435  11.176 -0.1332 -0.0837 -0.1612
14312W        W29929   3.508  12.471   2.894  0.1429 -0.1752  0.0356
14313W        W29930   9.655  14.868  14.957 -0.1085 -0.0983 -0.4464
14314W        W29931   9.320  16.828   0.035  0.1969 -0.2086 -0.1000
14315W        W29932   2.968   2.022   0.911 -0.0158 -0.2594 -0.0225
14316W        W29933   7.927  13.238   4.663  0.2101 -0.0220  0.3075
14317W        W29934   5.559  12.328  10.473 -0.0549 -0.1123  0.0791
14318W        W29935  11.637   2.930  12.629 -0.1005  0.3148  0.1197
14319W        W29936  15.729   9.013   1.264  0.0712  0.1125 -0.0596
14320W        W29937   5.818  18.332  12.799 -0.2847 -0.2037  0.0804
14321W        W29938   3.091   4.142   3.799 -0.0548  0.2963 -0.1623
14322W        W29939  10.033   3.458   4.860 -0.3031 -0.1087 -0.1300
14323W        W29940  17.117  14.761   0.514 -0.1689 -0.1003  0.0186
14324W        W29941   0.546  13.794   0.255 -0.2533  0.1265  0.2541
14325W        W29942  12.943  15.583  10.272  0.1665  0.1239 -0.2374
14326W        W29943  15.780  17.480  11.737 -0.1133 -0.3160 -0.1013
14327W        W29944  12.769  16.014  15.370  0.0233 -0.0209  0.0492
14328W        W29945  11.106   6.303  12.853  0.3486  0.0960  0.3239
14329W        W29946   6.256   1.141  15.223 -0.0944 -0.1280 -0.0616
14330W        W29947   3.321   0.851  13.445 -0.0943  0.0175 -0.1326
14331W        W29948  16.237  13.170  14.064  0.0276  0.1870  0.0334
14332W        W29949  15.475   1.125   0.899 -0.0018  0.1912  0.0857
14333W        W29950   1.680  15.496   3.957  0.0996 -0.1282  0.3252
14334W        W29951  18.376   7.065  13.142 -0.1863  0.1370 -0.0492
14335W        W29952   3.843  17.578  12.784  0.3089  0.0089 -0.0273
14336W        W29953   2.783   4.222   0.753  0.0628 -0.2829  0.1569
14337W        W29954   9.359   5.542   2.610 -0.1427  0.3605  0.2251
14338W        W29955  14.892  13.232   4.619  0.0743 -0.1710 -0.2022
14339W        W29956  13.384   8.391  11.619  0.0930  0.3481 -0.2463
14340W        W29957  16.997  13.696   2.141  0.0145 -0.3801 -0.3237
14341W        W29958   0.413   0.746  11.498  0.1941 -0.1066  0.2722
14342W        W29959   4.401   3.757   0.352 -0.1947  0.1773 -0.2632
14343W        W29960  13.891   1.608  14.648 -0.0203 -0.1042 -0.0448
14344W        W29961   8.866   7.303   2.435 -0.1424 -0.1613  0.0011
14345W        W29962  12.611   0.371   0.889  0.4094 -0.1441 -0.1148
14346W        W29963  18.399   2.411   3.083 -0.1504  0.1314  0.0035
14347W        W29964  13.900   1.710   5.243  0.2023  0.1204 -0.1038
14348W        W29965   0.929  18.083   3.294 -0.0108 -0.0876 -0.2295
14349W        W29966  14.504   2.979  10.712 -0.1467 -0.1302 -0.0976
14350W        W29967   9.040   4.434   0.814 -0.1059  0.0937 -0.0371
14351W        W29968   3.625  18.210   0.893  0.2052 -0.2235 -0.0017
14352W        W29969  10.419   8.589   1.308  0.2232 -0.1209  0.2116
14353W        W29970   7.124  14.129  13.851 -0.1812 -0.0231  0.0334
14354W        W29971   6.983  14.319  14.784 -0.0579  0.1308  0.2830
14355W        W29972   4.361   4.248   6.814 -0.0757 -0.0203  0.2085
14356W        W29973   3.793   4.440   4.864  0.0606  0.2577  0.0747
14357W        W29974   5.117  12.355  12.519 -0.0825 -0.4694 -0.2375
14358W        W29975  12.720  10.228   3.243  0.2643 -0.0434  0.4271
14359W        W29976   0.911   7.051   4.223  0.5188  0.1203  0.1439
14360W        W29977  17.583  17.120   5.967 -0.7614 -0.0812 -0.1876
14361W        W29978  11.342   7.946  15.299 -0.1104 -0.0141  0.0041
14362W        W29979  10.344  14.885  11.494  0.1583 -0.0641 -0.2923
14363W        W29980  16.558   8.816  15.086  0.1587 -0.0394 -0.2025
14364W        W29981  16.647  12.743  13.898  0.2151  0.0347 -0.1508
14365W        W29982   1.769   7.742  13.119 -0.2041  0.0002 -0.0416
14366W        W29983  15.331   7.209   0.194 -0.2711 -0.2934  0.0417
14367W        W29984   7.010   8.309  15.106  0.2637 -0.2879 -0.1095
14368W        W29985   0.525   2.393   4.337 -0.0918 -0.1076  0.1300
14369W        W29986   1.401   2.867   2.445  0.0853  0.1265 -0.0772
14370W        W29987   6.479   8.921   4.901 -0.1440  0.1979  0.0380
14371W        W29988   0.335   3.796   2.788 -0.0317 -0.0428 -0.1436
14372W        W29989   0.346   9.280   5.058  0.1814  0.1588  0.1391
14373W        W29990  16.541   6.904   3.817  0.0684  0.1745  0.0774
14374W        W29991  15.834   0.079  15.791  0.2819 -0.0402  0.1750
14375W        W29992  10.363   0.641  13.153  0.0164  0.2843 -0.1493
14376W        W29993   2.534   5.899   1.327  0.0247 -0.0107 -0.0020
14377W        W29994   3.344   3.751   2.050  0.2903 -0.1444 -0.2001
14378W        W29995   6.605   9.901  12.654  0.5301 -0.1156 -0.1375
14379W        W29996  15.610  18.458   2.311  0.3511 -0.2672  0.2042
14380W        W29997  11.680   3.477  11.609  0.3647 -0.0467 -0.0764
14381W        W29998   5.118  10.855  11.580 -0.0671 -0.0666 -0.0981
14382W        W29999   7.661  18.435   0.007  0.0524  0.2601 -0.2228
14383W        W30000   2.341   4.076   5.195 -0.1552 -0.4098 -0.1902
14384W        W30001  13.226   6.281   4.354  0.0271 -0.4004 -0.1174
14385W        W30002  15.270   0.751  11.290  0.1008  0.0347  0.1661
14386W        W30003  16.957   6.157  13.261  0.1141  0.2496  0.2885
14387W        W30004   4.330   7.762  11.949 -0.4056  0.3442  0.0992
14388W        W30005  10.400  14.170   4.372 -0.2503 -0.0603 -0.1248
14389W        W30006   9.862   6.163   3.995  0.0133  0.1342 -0.0416
14390W        W30007   5.354   1.271   1.086  0.1528  0.1885 -0.1863
14391W        W30008  10.241  15.516  14.513 -0.2222  0.3342 -0.1005
14392W        W30009   4.423   1.374   4.866  0.3838 -0.1229 -0.3254
14393W        W30010   5.720  17.141   1.208 -0.1694 -0.0661 -0.3649
14394W        W30011  17.705  10.405   2.816  0.2253 -0.0861  0.3726
14395W        W30012  15.454   1.971   2.581  0.3520 -0.2692 -0.1267
14396W        W30013   7.587   6.118  11.634 -0.1052  0.1948 -0.0020
14397W        W30014   1.229   0.534   2.645 -0.0652 -0.1796 -0.0688
14398W        W30015   5.513   8.261  14.542 -0.4108  0.1339  0.0260
14399W        W30016  17.513  13.805  13.287 -0.3726  0.1028 -0.1160
14400W        W30017   2.792   1.488   2.131  0.0225  0.1217  0.1199
14401W        W30018   0.001  18.317  15.469  0.0909  0.1368 -0.4738
14402W        W30019  14.838  17.690  11.357  0.2008 -0.2579 -0.3611
14403W        W30020  12.727  13.626  13.590 -0.2520  0.1420  0.1801
14404W        W30021  14.538   7.422  13.897 -0.3009  0.0573  0.0068
14405W        W30022   1.986  17.883  11.918 -0.1259  0.2078 -0.2506
14406W        W30023   6.090  13.576   1.405  0.0287  0.1690  0.2109
14407W        W30024   7.682   3.077  15.121 -0.0017  0.2255 -0.1133
14408W        W30025  17.264   8.878   2.948 -0.1693 -0.0343  0.0700
14409W        W30026  13.527   9.191   1.187  0.0412 -0.2414 -0.2491
14410W        W30027  17.025   1.255  11.927 -0.0149 -0.2202  0.2984
14411W        W30028   5.130  14.972  11.808 -0.0411  0.1376 -0.0950
14412W        W30029   7.948  15.316   2.864 -0.0513 -0.4998  0.0144
14413W        W30030   5.071   3.107  13.674  0.2565  0.2242  0.2473
14414W        W30031   6.104  12.449   4.053  0.3234 -0.1066  0.5445
14415W        W30032  16.786   2.799   2.282  0.3250 -0.0098 -0.0620
14416W        W30033  11.487   7.217  14.783  0.0263  0.0335 -0.0222
14417W        W30034  18.466   4.875   5.562  0.4055  0.3321 -0.0803
14418W        W30035  12.418   4.189   1.700  0.0657 -0.1543 -0.4688
14419W        W30036  15.872  17.128   5.549  0.1312  0.0691  0.2585
14420W        W30037   0.114   7.591   4.266  0.0484 -0.1247 -0.0742
14421W        W30038  15.982   5.071  13.080  0.0793  0.0025 -0.0293
14422W        W30039   2.563   2.979  12.645  0.2672 -0.1054 -0.0100
14423W        W30040   9.565   7.471  10.012  0.0685  0.1319  0.2362
14424W        W30041   9.980   2.052  12.190  0.3168  0.1064  0.1024
14425W        W30042   4.068   4.751  13.864 -0.0353 -0.0684 -0.1879
14426W        W30043   8.907   9.602   4.188 -0.1566  0.1838 -0.1237
14427W        W30044  13.532   6.308   1.804  0.3333  0.0965 -0.0683
14428W        W30045   9.865  13.650   3.183 -0.1293 -0.0352 -0.2640
14429W        W30046   7.511  13.666  11.525  0.2838 -0.0027 -0.4333
14430W        W30047  10.254   8.528  12.022 -0.0497  0.0120 -0.4185
14431W        W30048  18.507   7.762  15.435  0.2590  0.0651  0.0617
14432W        W30049   3.000  16.664  11.023  0.1280  0.0868 -0.0556
14433W        W30050  15.020   9.053  11.465 -0.0355 -0.3845  0.3689
14434W        W30051  10.102   1.472   2.677 -0.0358  0.1047  0.1363
14435W        W30052   0.743  10.411   4.340  0.0840  0.0878  0.2084
14436W        W30053   9.137   9.118   6.267 -0.1102 -0.2467 -0.5610
14437W        W30054  11.722   7.618   3.676 -0.0144 -0.0342 -0.1134
14438W        W30055   3.754   6.008   0.410  0.0913 -0.1783 -0.0161
14439W        W30056   3.235   0.091  12.552 -0.2223  0.1946 -0.0812
14440W        W30057  14.043  12.054  11.620  0.2889 -0.1225 -0.2473
14441W        W30058  16.359  15.288   9.997  0.0628 -0.0558 -0.0892
14442W        W30059  18.190  11.378  14.765  0.1824 -0.3107  0.1298
14443W        W30060  16.668  16.140  11.430 -0.1261 -0.1276 -0.0464
14444W        W30061   1.776  13.392  15.412 -0.2964  0.0139 -0.1644
14445W        W30062   6.605   9.766   4.975  0.2073  0.0645  0.3978
14446W        W30063  13.460   9.468  10.916 -0.0401  0.1259 -0.4086
14447W        W30064  15.845   6.280  11.215  0.1300 -0.1439  0.1158
14448W        W30065   0.025  12.093  11.942 -0.0793  0.0036  0.0335
14449W        W30066   6.644  12.044  14.368  0.1085 -0.1974  0.0852
14450W        W30067   4.256   1.671   4.453 -0.0310  0.0979 -0.1226
14451W        W30068  10.836   2.312  12.739 -0.0991  0.0623 -0.2785
14452W        W30069  10.666  17.656  15.693 -0.1462  0.0707  0.0672
14453W        W30070   1.077  17.764   3.644  0.1571  0.1270 -0.0099
14454W        W30071   4.426  13.536  10.159 -0.0922 -0.0464 -0.2978
14455W        W30072  13.974   3.646  12.926  0.1657  0.0024  0.3302
14456W        W30073   5.121   7.503  11.100  0.1068 -0.3813  0.1973
14457W        W30074  13.709   0.948   3.393  0.1677 -0.3199 -0.1641
14458W        W30075  10.716   2.500  14.832 -0.0509  0.0204 -0.0515
14459W        W30076   8.445  15.624   2.090  0.0748 -0.0333 -0.5421
14460W        W30077   3.384  15.365  11.282  0.0940 -0.1235  0.1242
14461W        W30078  16.991  14.958   0.083 -0.1570 -0.2097  0.0796
14462W        W30079   2.114   2.011   2.363 -0.0929 -0.0458 -0.2833
14463W        W30080  15.962   0.920  14.934 -0.0113  0.2472  0.0686
14464W        W30081   0.846   7.422  14.385  0.1549 -0.1564  0.0536
14465W        W30082  10.690   6.188   5.920  0.1328 -0.0703 -0.1363
14466W        W30083  10.081  16.434  15.345 -0.1355  0.0690 -0.4130
14467W        W30084   1.027  15.174   3.433 -0.2912 -0.4196 -0.0284
14468W        W30085   9.293   8.672  12.931 -0.0404  0.0766  0.5080
14469W        W30086   5.728   7.976   2.949 -0.0288 -0.0264  0.1020
14470W        W30087   2.760   8.957   4.526 -0.3986 -0.0563 -0.1764
14471W        W30088  14.734   6.402   2.830 -0.0605 -0.0723  0.0526
14472W        W30089   7.476  16.682  15.019 -0.0038  0.1453 -0.0014
14473W        W30090   5.247   3.974  13.687 -0.0333  0.2140  0.0586
14474W        W30091   7.556  15.999   1.323 -0.1811  0.1117 -0.1823
14475W        W30092   9.008   1.443   1.603  0.2805  0.0197 -0.1707
14476W        W30093  14.234  13.358   0.788 -0.2319  0.4101  0.0077
14477W        W30094   2.285  18.222  12.724  0.0257  0.5463 -0.2157
14478W        W30095   0.416  12.097   4.318  0.1198  0.0850 -0.1242
14479W        W30096  13.019   8.862  13.998  0.0132  0.1105  0.1112
14480W        W30097   3.363  13.894  12.795 -0.3566 -0.0278  0.2838
14481W        W30098  15.431  11.252  11.725 -0.0454  0.2613  0.0981
14482W        W30099   5.870   9.992  12.534  0.0165 -0.1594  0.0949
14483W        W30100  10.105   2.591  11.437  0.3496  0.1140  0.1806
14484W        W30101  18.215   2.212  15.033  0.0437 -0.0493 -0.0262
14485W        W30102  10.728   9.957   9.926 -0.2493 -0.0935 -0.1014
14486W        W30103  16.555   4.628   0.926  0.0019 -0.2228 -0.0068
14487W        W30104  12.097   9.297  12.562 -0.0600  0.2896 -0.0372
14488W        W30105  11.361  15.250  15.585 -0.0840 -0.0983 -0.1329
14489W        W30106  10.699   2.067  14.048 -0.1578  0.0494 -0.1295
14490W        W30107   9.875   9.787  10.000 -0.0519  0.1943  0.2447
14491W        W30108  16.646   6.090  12.877 -0.0422  0.1590  0.1346
14492W        W30109  11.420   2.622  15.365 -0.0612 -0.1160  0.1165
14493W        W30110  18.467   9.257  15.226 -0.0750 -0.0088  0.4431
14494W        W30111   7.409  10.813  11.143 -0.0205 -0.2382 -0.0540
14495W        W30112  16.128   3.114   4.085  0.3041  0.1108 -0.0328
14496W        W30113  15.608  14.699   4.753 -0.2928  0.1066 -0.0870
14497W        W30114   8.534   4.343   4.921  0.1692  0.3643 -0.0073
14498W        W30115   7.622   1.557   0.178  0.4631  0.5259  0.1174
14499W        W30116  11.627   4.174  12.203 -0.2188 -0.0711 -0.3094
14500W        W30117  15.678  12.123  11.248 -0.4206 -0.1619  0.0256
14501W        W30118   5.700  10.214  15.479  0.1546  0.3506  0.0255
14502W        W30119   9.188   8.015  12.792 -0.1373  0.1205 -0.1789
14503W        W30120  15.384   2.614  12.245  0.2199  0.2208  0.3568
14504W        W30121  17.123  16.796   5.782  0.0751  0.1938  0.1999
14505W        W30122   3.250   6.580   3.128 -0.0853  0.0572  0.0071
14506W        W30123  18.454   0.527   1.320  0.3375  0.2902  0.3409
14507W        W30124   0.004   5.534  12.473  0.2154 -0.0091  0.1666
14508W        W30125  10.518  12.750   2.724  0.0368 -0.1747 -0.1482
14509W        W30126  14.774   4.594   4.855 -0.1858  0.0913  0.0809
14510W        W30127  12.249   2.869   0.711 -0.2027 -0.1797 -0.2225
14511W        W30128  12.901   1.978   5.019 -0.0306  0.1672  0.0777
14512W        W30129   7.599   7.837   3.921  0.0259  0.3848 -0.2358
14513W        W30130   8.190  11.883   0.530  0.1227 -0.2002 -0.2019
14514W        W30131  13.116  12.936   4.037  0.0955 -0.0963 -0.0666
14515W        W30132   5.463   3.156   1.967  0.3292  0.2651 -0.0093
14516W        W30133   4.166   0.160  15.461 -0.2938 -0.0084  0.0274
14517W        W30134   2.143  15.308  15.437 -0.1503  0.3863  0.0329
14518W        W30135   9.276  17.826   4.632  0.0573  0.0191 -0.0886
14519W        W30136  12.460   2.660   5.856 -0.3240  0.2018 -0.0118
14520W        W30137  15.587   6.328   0.341 -0.0808 -0.3104 -0.0333
14521W        W30138   0.964   4.492  11.933  0.1366 -0.3857  0.3585
14522W        W30139  11.638   4.666   5.746  0.2629  0.2942 -0.0111
14523W        W30140  13.740   4.212  11.865 -0.1141  0.1885  0.1282
14524W        W30141  11.279   0.213   5.333  0.1665  0.0313  0.2185
14525W        W30142  17.810   7.754  13.639  0.0803  0.0417  0.0523
14526W        W30143   4.664   2.067  12.085  0.1394 -0.1364 -0.2210
14527W        W30144   6.567   8.895   3.158 -0.2183 -0.1827 -0.0132
14528W        W30145  14.911   7.945   0.184  0.2058 -0.3142 -0.0942
14529W        W30146   9.252   8.644  14.754  0.0586  0.1400 -0.0589
14530W        W30147  11.329  11.378  15.545 -0.2358  0.1432 -0.4821
14531W        W30148  13.072   9.816  14.195 -0.0687  0.1196  0.1884
14532W        W30149  18.414   8.215  14.639  0.2272 -0.1911 -0.2160
14533W        W30150  10.888   1.376   4.783  0.2421 -0.1510 -0.1691
14534W        W30151   2.027   1.311  15.550 -0.0803  0.0413 -0.1338
14535W        W30152  10.147  12.386  15.757  0.2811 -0.1225 -0.0029
14536W        W30153  12.636   9.339  11.649 -0.1397  0.4309  0.0962
14537W        W30154  11.723   5.659  12.041  0.0373  0.0533  0.2327
14538W        W30155  12.128  16.768  11.503  0.0687  0.0745 -0.2770
14539W        W30156  11.526   1.020   4.266 -0.2639  0.1009 -0.0946
14540W        W30157   5.234  15.011  14.882  0.0195  0.0407  0.0289
14541W        W30158  12.902  17.592   5.987  0.0005 -0.0305 -0.1438
14542W        W30159   1.370  16.152  13.033 -0.1013  0.0104 -0.1747
14543W        W30160  15.523  17.658  12.136  0.0368  0.3048  0.0040
14544W        W30161   5.516  13.029  11.798 -0.0497  0.0455  0.1838
14545W        W30162  12.853   0.445   2.634 -0.1204  0.0025  0.0662
14546W        W30163   1.848   6.827   0.198 -0.1008 -0.0441  0.2765
14547W        W30164   9.490  12.826  13.487  0.0312 -0.1054 -0.5320
14548W        W30165   1.329   2.558   5.203 -0.1745  0.1425 -0.1003
14549W        W30166  11.941  14.673   5.226 -0.0740  0.0777 -0.0970
14550W        W30167  16.431   3.681   5.813 -0.0579 -0.2475  0.1194
14551W        W30168   1.515   8.983   4.391 -0.1133  0.1748 -0.2631
14552W        W30169   5.886   8.635  14.441  0.2850 -0.4159 -0.0417
14553W        W30170   1.170  15.619  13.645 -0.0209 -0.2013 -0.0684
14554W        W30171  17.685   4.325  11.555 -0.4048 -0.2955  0.0460
14555W        W30172  18.419  13.444   2.532 -0.0063 -0.2360  0.1338
14556W        W30173   6.606   3.916   1.001  0.1178  0.1347  0.0189
14557W        W30174   1.321  14.536  11.015  0.2480 -0.1134 -0.2226
14558W        W30175  15.362   9.513  12.106  0.2807  0.1694  0.1763
14559W        W30176  18.642   8.605   0.048 -0.0597  0.0529  0.1868
14560W        W30177  16.548  18.480  14.712  0.1585  0.3336  0.1013
14561W        W30178   3.989  10.397  10.455  0.0815  0.3243 -0.0543
14562W        W30179  16.772  13.997  15.313 -0.0785  0.3527  0.0258
14563W        W30180  12.223   9.014   1.776 -0.1042  0.0059 -0.2411
14564W        W30181   0.646   3.308   5.124 -0.0600 -0.1190 -0.1000
14565W        W30182   4.114   3.729   3.360  0.1931  0.3861  0.1566
14566W        W30183   1.627  10.652  13.577 -0.1248 -0.1616  0.0071
14567W        W30184  18.255   1.416   2.210 -0.2533 -0.1465 -0.0542
14568W        W30185   7.961  10.423   3.093  0.1401  0.2177  0.1395
14569W        W30186   2.448   4.766  12.309 -0.0015 -0.2515  0.1222
14570W        W30187   1.398   8.614   4.718  0.5491  0.2355  0.5468
14571W        W30188   0.403   7.588  13.200  0.0043  0.0902 -0.2102
14572W        W30189  12.731   1.340   5.690 -0.0003 -0.0833 -0.3562
14573W        W30190   9.441  10.336  14.307  0.0078 -0.2863  0.0503
14574W        W30191   6.473  13.886   2.321  0.1194  0.0841 -0.3513
14575W        W30192  12.994   4.150   1.905  0.2447 -0.1728  0.4251
14576W        W30193   9.531  14.612  11.743  0.0838  0.0819 -0.0891
14577W        W30194  12.285   5.909  14.000  0.0884  0.0455 -0.0147
14578W        W30195   6.746   6.809  14.614 -0.1300 -0.3912 -0.1760
14579W        W30196  14.269  12.070  12.855  0.1471 -0.0282  0.1686
14580W        W30197  15.696   3.141   1.204  0.1832  0.2123 -0.2358
14581W        W30198  10.019   2.196   3.308 -0.2174  0.0201  0.0954
14582W        W30199  16.045  13.928  11.429  0.0847  0.0889  0.3201
14583W        W30200   6.079   5.408  15.584  0.1013  0.1016  0.1780
14584W        W30201   6.130   4.074   0.917 -0.0798 -0.2097  0.1606
14585W        W30202  11.566   7.065   4.989  0.0416 -0.3346 -0.0092
14586W        W30203   4.462  14.659  14.594 -0.1577 -0.1275  0.0205
14587W        W30204  17.605  11.721   2.920 -0.0609 -0.1336 -0.0815
14588W        W30205  14.160  16.193   3.030  0.0079  0.1093  0.1098
14589W        W30206  14.276   0.366   1.825  0.3635 -0.0254  0.2528
14590W        W30207   8.962  11.722  15.012  0.2417  0.1200  0.1188
14591W        W30208  11.461  15.519   2.691  0.1449 -0.1832  0.0029
14592W        W30209   7.230  16.127   2.899 -0.2112 -0.1207 -0.1850
14593W        W30210  15.936   9.830   0.127 -0.0666 -0.1950 -0.1156
14594W        W30211   9.897  13.499   0.751 -0.2240  0.1106 -0.0157
14595W        W30212   3.005   6.684   5.058 -0.3303 -0.2528 -0.3474
14596W        W30213   9.779  13.855  14.811  0.0028  0.1793  0.0773
14597W        W30214  12.043  13.040   1.472  0.0293  0.2577  0.1594
14598W        W30215   3.532  17.883  10.769 -0.0948  0.0377 -0.3054
14599W        W30216  11.144   3.793   1.229 -0.0889 -0.1171  0.1084
14600W        W30217  16.063  11.157   4.132 -0.2003  0.2166  0.1625
14601W        W30218   4.948   7.558  15.716  0.1905 -0.1308 -0.1967
14602W        W30219   2.650   8.817  12.310  0.2076 -0.0805 -0.1969
14603W        W30220   7.367   4.607   1.084  0.0515 -0.4021  0.2016
14604W        W30221   8.527   4.143   3.999  0.0132  0.3023 -0.0395
14605W        W30222   7.734  17.280   1.428  0.3337  0.2813  0.2243
14606W        W30223  17.290  17.957  15.194 -0.0420 -0.1420  0.0743
14607W        W30224  10.879  15.560  13.577 -0.0810  0.0862  0.2072
14608W        W30225  14.393  18.438   4.627  0.0344  0.0641  0.0928
14609W        W30226  16.198   6.317  14.598 -0.2695  0.0350 -0.3315
14610W        W30227   9.828   5.097   1.839  0.2276 -0.1359  0.1549
14611W        W30228   5.277   4.101   3.112  0.2017  0.1990 -0.1175
14612W        W30229   4.114  15.782   0.176  0.2894 -0.1044  0.3237
14613W        W30230   9.552   2.606   4.409 -0.1796  0.0169 -0.1463
14614W        W30231   6.906   1.859   0.826 -0.1652 -0.1185 -0.2463
14615W        W30232   1.829  12.022  10.713  0.2173 -0.0507 -0.2787
14616W        W30233  12.889  16.580   6.104  0.1967 -0.2470 -0.1123
14617W        W30234   7.403  16.857  10.986 -0.4111  0.2078  0.3294
14618W        W30235  15.348   8.162  13.989 -0.0959  0.0415  0.0635
14619W        W30236  11.587   7.871   1.069 -0.2299  0.0429  0.0809
14620W        W30237  13.906  13.724   0.687  0.2146 -0.2213 -0.0729
14621W        W30238  17.757   1.948   4.051 -0.2436 -0.0263 -0.0029
14622W        W30239   8.286   3.348   4.870  0.0243  0.0528  0.0418
14623W        W30240   1.314  11.608  13.227  0.3140 -0.0203 -0.2621
14624W        W30241   6.085   3.167   0.520  0.1057 -0.3146  0.1860
14625W        W30242  13.298   4.097   4.362 -0.2481 -0.0578 -0.3475
14626W        W30243   0.793   7.867   1.652  0.1644  0.1887 -0.0533
14627W        W30244   1.204   1.536   0.138  0.0673  0.2880  0.2014
14628W        W30245  15.086  10.128   5.022  0.2133  0.2630  0.0249
14629W        W30246   1.527  10.162   2.017  0.2563  0.0543 -0.2737
14630W        W30247  10.111  16.944   0.500  0.1037  0.1032 -0.0321
14631W        W30248   2.049   4.464   0.935  0.4169 -0.1982 -0.1845
14632W        W30249   3.577  14.999  15.404  0.0958 -0.2148  0.3893
14633W        W30250   7.979  17.027  10.988 -0.2015 -0.1139 -0.1712
14634W        W30251   6.286   6.767   2.761 -0.0204 -0.0640 -0.1692
14635W        W30252   5.680  16.107  14.334 -0.0591  0.0492 -0.0206
14636W        W30253  17.018   1.818  10.931  0.0550  0.1047  0.0857
14637W        W30254   9.114   0.483  11.431  0.0891  0.1758  0.3030
14638W        W30255   9.381   3.724  15.153 -0.1163  0.0552 -0.1652
14639W        W30256  11.103   8.262   4.438 -0.4331 -0.1319 -0.1739
14640W        W30257  14.472  14.405   1.750  0.1124  0.0208  0.0010
14641W        W30258   3.828   9.789   1.819 -0.0988  0.3864  0.1189
14642W        W30259   0.705  11.291   3.390 -0.0422  0.0492  0.1724
14643W        W30260   4.106  14.144   1.546 -0.1038  0.0951 -0.3363
14644W        W30261  14.902  13.518  13.920  0.0005  0.1327  0.0813
14645W        W30262  16.295   9.429  12.732 -0.2680  0.0814  0.1281
14646W        W30263   5.343  15.761  11.081  0.0609 -0.0633 -0.3371
14647W        W30264  17.766  14.469  14.456 -0.2267  0.0617 -0.1209
14648W        W30265  18.321  18.161   1.720 -0.1638  0.2884 -0.1132
14649W        W30266   5.492   7.222  13.727 -0.0503  0.1253 -0.0106
14650W        W30267   5.382  10.869   1.510 -0.0439 -0.2754 -0.0001
14651W        W30268  15.361   0.551   2.487  0.0804 -0.3743  0.2933
14652W        W30269  10.645  15.384  10.609  0.0804  0.0740  0.1797
14653W        W30270   7.171  15.640  14.244  0.0356 -0.0785 -0.4837
14654W        W30271   3.377   4.347   4.660  0.1908 -0.0034  0.0034
14655W        W30272  13.185  16.921  15.096 -0.1739  0.2294 -0.0384
14656W        W30273   3.109   8.765  14.941  0.1106 -0.0164  0.1918
14657W        W30274  10.784   5.845  14.035 -0.1487 -0.1404  0.2698
14658W        W30275  12.290  15.025   3.534 -0.2647 -0.0135  0.3139
14659W        W30276   7.596   8.143   0.730 -0.0019 -0.3179 -0.0751
14660W        W30277   0.916  18.227   2.837 -0.2028  0.0172  0.0224
14661W        W30278  17.499  12.573   1.502  0.1591 -0.1350  0.1388
14662W        W30279   5.778   2.299   3.786 -0.0516  0.1341 -0.1732
14663W        W30280  10.570  13.836  12.293  0.3001  0.3825 -0.2399
14664W        W30281   5.724  18.031  12.439  0.0315  0.2756  0.0226
14665W        W30282  15.219  16.961  13.425 -0.1593  0.2364  0.1374
14666W        W30283   4.213   8.154  11.746  0.1428  0.1126 -0.0918
14667W        W30284   9.985  11.205   9.557  0.3148 -0.1450 -0.1772
14668W        W30285   2.470  17.645   3.712  0.1238 -0.1862  0.1473
14669W        W30286  10.361   3.672  14.276 -0.0761 -0.1248 -0.1994
14670W        W30287  14.085   8.410   1.608  0.3310 -0.3211 -0.1579
14671W        W30288   3.468   9.541   0.921  0.0000  0.0529  0.0935
14672W        W30289   3.766  12.517  12.702 -0.1904  0.1234  0.0759
14673W        W30290  10.198  14.467   5.590  0.1548 -0.1388  0.1488
14674W        W30291  11.324   5.032   0.649  0.2777  0.2092 -0.0106
14675W        W30292   9.836   3.219  11.541  0.1977 -0.0388 -0.0579
14676W        W30293   1.072   0.710  12.079 -0.2361  0.0760  0.0579
14677W        W30294   2.923   2.604  15.114 -0.0046 -0.2404  0.1350
14678W        W30295   5.520   3.609  13.500  0.5505  0.3851  0.2118
14679W        W30296  13.697   7.161   2.136 -0.2451 -0.0132  0.0557
14680W        W30297  18.376  12.510   5.320 -0.0991  0.1163  0.0434
14681W        W30298  13.463  12.940  11.327 -0.1727  0.1544 -0.1821
14682W        W30299  12.182   5.514   5.156  0.0960 -0.0993 -0.0262
14683W        W30300  14.886  17.238   5.079  0.0642 -0.1456  0.0166
14684W        W30301   5.766  15.662  10.294  0.1744 -0.1462 -0.2806
14685W        W30302  16.712  10.344  13.013 -0.1931  0.0080 -0.1528
14686W        W30303  17.171  18.543   0.622  0.0383 -0.1270  0.1471
14687W        W30304   3.188   8.379  14.039 -0.0749  0.0242  0.1741
14688W        W30305  17.698   5.645   1.940  0.0199  0.2124 -0.2591
14689W        W30306   9.145  17.759  12.613  0.0125  0.1032 -0.1198
14690W        W30307   6.124   0.900   2.473  0.2082 -0.1265 -0.1471
14691W        W30308  13.256  18.364  13.478  0.0453 -0.0377 -0.0479
14692W        W30309  16.291   1.217   1.922  0.2809  0.1603  0.1675
14693W        W30310   1.605  10.446  15.113  0.1755 -0.0846 -0.0285
14694W        W30311  12.235  15.039  15.269 -0.0739 -0.0462 -0.1551
14695W        W30312  15.014   3.928  11.199 -0.1093  0.1356  0.0673
14696W        W30313   4.834   6.540   0.704 -0.1378  0.0331  0.1239
14697W        W30314   5.728  10.641  14.995 -0.0085 -0.1690 -0.1626
14698W        W30315  18.192  10.292   0.274  0.3208 -0.0105  0.1516
14699W        W30316   3.250   2.267  11.659  0.1253  0.2048  0.0049
14700W        W30317  10.283   0.346   2.539  0.4146  0.1945 -0.2881
14701W        W30318  12.554  17.997   5.343  0.1007 -0.0929 -0.0911
14702W        W30319  17.216   6.451  13.676 -0.1677  0.3192  0.0632
14703W        W30320  10.485   7.777  13.008  0.0634 -0.3537  0.2837
14704W        W30321   0.549   7.912  11.007 -0.1212  0.1817 -0.1331
14705W        W30322  10.532  17.837   0.879  0.2160 -0.1288 -0.1579
14706W        W30323   9.712   1.571   3.218  0.3105 -0.3203 -0.2282
14707W        W30324   3.563   9.027   3.404 -0.2764  0.4099  0.1357
14708W        W30325   1.616   6.295   2.446  0.0774  0.0454 -0.2330
14709W        W30326   5.125   7.177  13.353 -0.3364  0.0716 -0.0162
14710W        W30327   3.308   3.079  14.346 -0.2787 -0.3137  0.1369
14711W        W30328  17.280  12.544  12.940  0.0410  0.4113  0.2667
14712W        W30329   2.207  18.235  11.483  0.2775  0.0991 -0.3299
14713W        W30330  17.673  12.016   3.303 -0.4732  0.1482  0.0545
14714W        W30331   9.924   4.382  11.724 -0.0278 -0.0122 -0.0563
14715W        W30332   1.209  11.247   5.109 -0.4145  0.0142 -0.0039
14716W        W30333   6.635   5.679  11.375  0.2223  0.1362  0.0947
14717W        W30334   5.201  17.021  14.782 -0.1065  0.0890  0.1168
14718W        W30335  12.755  13.313   2.005  0.3398 -0.0830  0.3900
14719W        W30336  10.759   7.290  15.701 -0.1612  0.2309 -0.1050
14720W        W30337   1.854  12.859  13.782  0.0887  0.1035  0.1118
14721W        W30338  15.232  12.145   3.913  0.0364 -0.2065  0.2484
14722W        W30339   1.329  15.839  12.597 -0.0509 -0.2157 -0.3037
14723W        W30340   2.868   6.197   5.150  0.1384 -0.0561 -0.2606
14724W        W30341   2.272  15.036   3.417  0.1511 -0.1503 -0.2245
14725W        W30342  15.959  13.207  10.020 -0.0024 -0.0924  0.1722
14726W        W30343  10.710  16.867   5.339 -0.1986  0.0949  0.1653
14727W        W30344   4.574   8.957  13.161 -0.1024 -0.1986 -0.2020
14728W        W30345  17.293   9.942   2.479  0.7275  0.0177  0.0810
14729W        W30346   5.115   9.348   2.787  0.1318  0.2945  0.1651
14730W        W30347   8.555  14.931   2.598 -0.2026  0.1265 -0.0008
14731W        W30348   9.389  11.310  11.611 -0.1350 -0.1518 -0.1662
14732W        W30349   8.093   8.058  13.838 -0.1851 -0.0955 -0.1707
14733W        W30350  15.783   3.691   5.568 -0.2741 -0.2241 -0.0767
14734W        W30351   6.016  14.486  14.866  0.0896  0.0577  0.1999
14735W        W30352   2.399   3.101   1.812  0.3160 -0.1353  0.0960
14736W        W30353  18.626  12.243   3.119 -0.2695 -0.0633  0.2036
14737W        W30354   7.678  16.221   5.309  0.1157 -0.0863 -0.1432
14738W        W30355  10.605  14.253   3.124  0.1351 -0.0335  0.1364
14739W        W30356  14.306   9.053   0.170 -0.0491  0.0277 -0.0206
14740W        W30357  18.556   9.180  12.874  0.0585  0.0247 -0.2599
14741W        W30358   3.882   1.549   2.320  0.1216 -0.2499 -0.0752
14742W        W30359   7.579   9.327  11.692  0.1417  0.0825 -0.0590
14743W        W30360  15.125  16.638  13.054 -0.0082 -0.0774 -0.2920
14744W        W30361  17.316   6.043  14.425  0.1316  0.1576  0.2576
14745W        W30362   4.889  17.344   2.839  0.0622  0.2890  0.0727
14746W        W30363  17.438  10.504   0.960  0.0128 -0.0865  0.2462
14747W        W30364  12.533  17.323   3.440 -0.0408 -0.0817 -0.0262
14748W        W30365   3.821   1.256   1.363 -0.1294  0.1355  0.0047
14749W        W30366  15.919   4.072   5.781  0.1024 -0.3107 -0.4801
14750W        W30367  12.726   4.737   1.833 -0.0186 -0.4387 -0.0900
14751W        W30368   3.369   6.868   4.033 -0.1629  0.2133 -0.0796
14752W        W30369   4.585  13.181  11.956 -0.0226 -0.3437 -0.0310
14753W        W30370   8.844   8.974  13.048 -0.1778 -0.1739 -0.2278
14754W        W30371  11.076  18.419  13.985  0.0918 -0.1384 -0.2468
14755W        W30372   3.567  16.221   2.773 -0.0574 -0.6574  0.1681
14756W        W30373  12.343   2.075  12.449 -0.0254 -0.4061 -0.0122
14757W        W30374  12.152  15.625  14.637  0.0772 -0.0144 -0.1174
14758W        W30375   8.420   0.536  14.736  0.0484 -0.2617  0.3233
14759W        W30376   0.941  16.301   1.130 -0.0044 -0.3328  0.2014
14760W        W30377   8.653   3.725  11.088  0.2529 -0.3132 -0.2349
14761W        W30378   1.596  10.486   0.391  0.0374  0.0212 -0.4888
14762W        W30379   3.927   5.431  14.934  0.0862  0.2685  0.0537
14763W        W30380  10.881   1.364  14.237  0.1917 -0.0382  0.0732
14764W        W30381   9.115   0.076   3.450  0.2815  0.0289 -0.2017
14765W        W30382   7.256  12.506  14.827  0.0006  0.2151  0.0326
14766W        W30383  13.587  12.851  11.869  0.2399  0.2404  0.1230
14767W        W30384  15.288  15.156   0.724 -0.0779  0.1850  0.2728
14768W        W30385  10.272   6.718   5.223  0.0851  0.0727 -0.0427
14769W        W30386  13.679   2.716   4.936 -0.1532 -0.1691  0.0109
14770W        W30387   1.055   4.955   1.509  0.3509  0.2937  0.0773
14771W        W30388   6.124   7.066  11.284 -0.0383 -0.1127 -0.4798
14772W        W30389  10.517  12.585   4.510 -0.2510 -0.0097  0.1951
14773W        W30390  10.732  11.646   2.973  0.0639  0.0625 -0.1138
14774W        W30391  13.680   3.947   5.795  0.2277 -0.0289 -0.1143
14775W        W30392   1.346   7.941  10.764  0.2745  0.0235 -0.2879
14776W        W30393  16.376  15.891  13.530  0.0932  0.0867 -0.0088
14777W        W30394   7.607  11.418  13.923  0.0152  0.3186  0.0117
14778W        W30395  10.583  15.765  12.838 -0.2120 -0.3250 -0.1035
14779W        W30396  11.311  14.064  11.385  0.0196 -0.0587  0.2201
14780W        W30397   1.940  13.565   5.112 -0.1779 -0.1917  0.2615
14781W        W30398  10.712   0.634   4.607  0.3018 -0.1938 -0.2352
14782W        W30399   3.652   7.970  11.440  0.1121  0.1985  0.3078
14783W        W30400  14.848   2.173   6.248  0.0495  0.1284 -0.1100
14784W        W30401  16.020   3.840   0.612 -0.3039 -0.0790 -0.2272
14785W        W30402   3.328   3.564  10.188  0.1563  0.2370  0.1132
14786W        W30403   2.411  17.392  15.261  0.1179  0.0823  0.1027
14787W        W30404   0.024   7.947  14.188  0.0906  0.0741 -0.0707
14788W        W30405  11.386  15.475   5.086 -0.2629 -0.1257  0.0795
14789W        W30406   4.395  16.179  11.924  0.1070 -0.0971  0.1513
14790W        W30407   2.328   3.025  10.878  0.3059 -0.0073  0.0943
14791W        W30408   1.638  12.814   1.842 -0.1140  0.2422  0.0650
14792W        W30409   1.384  15.767  10.104  0.0469 -0.2658 -0.3440
14793W        W30410  10.456   5.141   3.030 -0.2512 -0.2759 -0.0150
14794W        W30411   1.751  10.489  14.602  0.2658  0.3493  0.1916
14795W        W30412  16.476   8.071  12.909  0.0157 -0.0899 -0.0618
14796W        W30413   6.215   9.049  12.420  0.4300 -0.1798  0.0111
14797W        W30414   9.539   1.316  15.498  0.2368  0.1752  0.0296
14798W        W30415  16.879   8.205   5.368  0.0657  0.0118 -0.3408
14799W        W30416  15.357   0.455  10.921 -0.2062 -0.0373 -0.0697
14800W        W30417   9.695  16.145   2.967 -0.2092 -0.2045  0.0196
14801W        W30418   2.873  17.138  13.597 -0.0863  0.4343  0.3362
14802W        W30419   1.414   3.023   4.964 -0.0810 -0.1471 -0.2312
14803W        W30420   3.623  12.115   2.269 -0.0699 -0.0710  0.1406
14804W        W30421   7.132   2.135   0.492 -0.2138 -0.0879 -0.2091
14805W        W30422   7.529   0.393  14.150  0.1305 -0.0198  0.1253
14806W        W30423  18.140   6.710   4.416 -0.3842 -0.0404 -0.0740
14807W        W30424  12.506  18.017  14.609  0.0839 -0.0887  0.3173
14808W        W30425   4.660   3.486  14.235  0.1450  0.1816  0.0105
14809W        W30426  14.628   2.681  15.344  0.2200  0.0674 -0.0406
14810W        W30427  17.870  18.547  15.703  0.0434 -0.0309 -0.0075
14811W        W30428   3.781   0.199  15.129  0.1031  0.0132  0.0955
14812W        W30429  16.638  10.500  13.687 -0.0240 -0.0007 -0.1472
14813W        W30430  13.475   8.024  14.170 -0.2842 -0.5158 -0.0032
14814W        W30431   6.920   1.908   1.754 -0.1958  0.0382  0.1223
14815W        W30432   4.882   5.438  13.782  0.2233 -0.0366  0.1966
14816W        W30433  16.343   7.990  14.871  0.1603 -0.0165  0.1848
14817W        W30434  15.453  11.968   1.940 -0.0914 -0.4341  0.4768
14818W        W30435  13.195  11.353   3.555 -0.1653 -0.0393 -0.1036
14819W        W30436   6.401   0.163   4.544  0.1757 -0.0801 -0.0189
14820W        W30437   2.187   2.453  11.310 -0.2972  0.4226  0.1464
14821W        W30438  10.428   0.354  12.164  0.1411  0.1008  0.1829
14822W        W30439  13.180  10.040   2.371 -0.1976  0.0269  0.0227
14823W        W30440  10.306  17.165   2.990  0.5624  0.0133 -0.2754
14824W        W30441   9.305  14.045  15.078 -0.0791 -0.3177 -0.1108
14825W        W30442   8.116   5.299   4.824 -0.1352 -0.1034  0.1658
14826W        W30443   0.061   8.494   1.658  0.1202  0.1835  0.3218
14827W        W30444  10.963   3.838   2.931 -0.2244  0.0134 -0.0141
14828W        W30445   2.458  12.941  12.318 -0.2668  0.0178 -0.0915
14829W        W30446   1.253  14.317   4.570 -0.2651 -0.0551  0.2314
14830W        W30447   9.302  13.451  14.177  0.2898  0.0559  0.1309
14831W        W30448   0.658  17.454  12.300 -0.0646  0.1662 -0.3256
14832W        W30449   4.303   7.858  14.463 -0.0571  0.2655  0.0250
14833W        W30450   4.205   4.729   2.441  0.2762 -0.1958  0.0046
14834W        W30451  11.857  17.681  12.311 -0.0997 -0.0503  0.0505
14835W        W30452  16.908  16.605  13.925 -0.1349  0.3408 -0.0247
14836W        W30453  17.675   0.642  14.390  0.3102  0.0864 -0.1483
14837W        W30454  17.092   2.476   3.839 -0.2272  0.1654  0.0906
14838W        W30455   3.858  17.624  15.618  0.2045 -0.3019  0.0245
14839W        W30456   4.325  10.692  12.216  0.0222  0.0611 -0.0883
14840W        W30457   9.531   4.190   4.929  0.1909 -0.0048  0.1940
14841W        W30458   9.300   2.098  12.796  0.0555  0.3263 -0.1552
14842W        W30459  10.837   5.518  12.720  0.1828 -0.2399 -0.0087
14843W        W30460  17.677   9.587   4.865 -0.1636  0.0009 -0.0780
14844W        W30461  14.403   3.848  13.693  0.2625 -0.2320  0.0093
14845W        W30462  13.590  13.764   4.287 -0.0577 -0.2445 -0.0479
14846W        W30463   6.270  12.853  13.883  0.5472 -0.1184  0.0533
14847W        W30464   2.219   1.715  15.308  0.0795 -0.0939 -0.1029
14848W        W30465  10.349  13.556  14.038 -0.1294 -0.1267 -0.0860
14849W        W30466   9.661   4.106  15.030 -0.4971 -0.0003 -0.0481
14850W        W30467  14.339   1.310   2.830  0.3970  0.3731  0.3436
14851W        W30468   1.831  13.088   2.256  0.1406 -0.1265 -0.0588
14852W        W30469  11.385   6.489   0.071  0.0728  0.1694  0.0077
14853W        W30470  14.453  11.861  10.531 -0.1430  0.1169 -0.1859
14854W        W30471   1.742   5.036   2.445 -0.2336 -0.1330 -0.4082
14855W        W30472  15.211   9.542   1.064 -0.0863  0.0281 -0.1664
14856W        W30473   0.374  10.508   5.768  0.1513 -0.0565 -0.2934
14857W        W30474  10.254  18.482  12.174 -0.2190 -0.0092  0.0521
14858W        W30475  15.270  17.632   4.005  0.2706  0.0318  0.0386
14859W        W30476   2.692  18.401   4.600  0.1246  0.0869  0.0032
14860W        W30477   5.374  12.206   4.951  0.0817  0.0335  0.0378
14861W        W30478   1.238  12.650  13.419 -0.0775 -0.4899  0.1074
14862W        W30479   3.467  16.788  13.879 -0.1633  0.1688  0.2121
14863W        W30480   5.315  14.037   1.821  0.0335  0.4517  0.1516
14864W        W30481  14.103  11.418  12.098  0.3805 -0.5655 -0.2699
14865W        W30482   8.979  12.707  15.112 -0.0357  0.0138  0.3234
14866W        W30483   8.540   3.316   0.799  0.0879  0.1298  0.4290
14867W        W30484  17.709   5.210   3.750  0.1338 -0.1500  0.0388
14868W        W30485   5.798  15.050   0.871 -0.0345  0.3958  0.4052
14869W        W30486   1.365   6.294  11.894 -0.1971 -0.0558  0.1205
14870W        W30487   7.858   4.752   3.109  0.0482 -0.2623  0.1189
14871W        W30488  15.646   1.113  13.406  0.2431  0.0712  0.0661
14872W        W30489   9.505   2.594  12.632  0.0757  0.0410  0.0517
14873W        W30490  13.689   0.582  14.333  0.0160  0.2936 -0.0433
14874W        W30491  11.218   2.515   3.993 -0.3305  0.1251  0.0574
14875W        W30492   0.272   8.869  15.316  0.3578  0.1528  0.1498
14876W        W30493   3.728  13.736  15.320  0.2018 -0.0907 -0.0872
14877W        W30494  11.115  17.914   5.545 -0.1156  0.2901  0.2937
14878W        W30495   7.441   1.021   0.948  0.5409 -0.1962  0.0395
14879W        W30496  12.534   4.973   5.492  0.4282  0.3107 -0.0031
14880W        W30497   1.692  13.703  14.579  0.1821 -0.1543  0.0514
14881W        W30498   6.092  17.586  14.927  0.0802 -0.1354 -0.2854
14882W        W30499   3.502  17.704   4.847  0.1174  0.0489 -0.0787
14883W        W30500  10.106   4.339   2.168 -0.2198  0.1606 -0.3553
14884W        W30501   9.065   9.738  12.279 -0.0972 -0.1065  0.2528
14885W        W30502   1.163  18.508   1.658 -0.2375  0.0001 -0.1654
14886W        W30503   9.037   8.218   2.639  0.0607  0.0439 -0.1632
14887W        W30504  12.530   5.463  11.571  0.2500 -0.1040 -0.1116
14888W        W30505  10.614   8.595   5.662 -0.2261 -0.0577 -0.3168
14889W        W30506  10.665  10.063   0.907  0.1769 -0.1838  0.0233
14890W        W30507  12.241   7.671  11.866  0.0556  0.3827 -0.1629
14891W        W30508   6.887   1.799  11.216 -0.1058  0.1339 -0.1999
14892W        W30509   2.555   8.140  11.986 -0.4776  0.1624 -0.0960
14893W        W30510  13.858   9.923   1.141 -0.0580  0.2222 -0.3306
14894W        W30511   3.147  15.087   3.934 -0.0505 -0.1022 -0.2428
14895W        W30512   8.067  13.546  14.343 -0.3951 -0.0013  0.0069
14896W        W30513  12.638   8.692   2.953 -0.1283  0.1510 -0.1171
14897W        W30514  14.281   1.713   4.314 -0.1694 -0.3369  0.0787
14898W        W30515   6.253  11.298  12.158  0.1756 -0.0220 -0.1074
14899W        W30516   3.050   0.717  11.726 -0.1462 -0.1597 -0.1707
14900W        W30517   9.197  17.563   2.525  0.0659 -0.1735  0.1438
14901W        W30518   0.714  12.798  13.415  0.2269  0.0625  0.1466
14902W        W30519  18.526   3.436   0.031 -0.0210 -0.2249  0.2707
14903W        W30520  11.167  17.077  14.835 -0.1749  0.1866  0.1595
14904W        W30521   8.525  11.023   1.875  0.2807 -0.0305  0.2020
14905W        W30522   0.201   4.294   4.860  0.1797  0.0090  0.1112
14906W        W30523  16.018   1.907   4.078  0.0472 -0.1017 -0.3653
14907W        W30524  11.340  18.097   2.391  0.2006  0.0049  0.0919
14908W        W30525   6.993  14.085   1.210  0.1484 -0.0059 -0.1946
14909W        W30526   0.892   3.468   1.685  0.2448  0.0426 -0.0622
14910W        W30527  18.070   8.000  11.555  0.1655  0.1227  0.0004
14911W        W30528  15.232  18.125   5.245  0.0304  0.0862 -0.0761
14912W        W30529  18.114   0.363   3.525  0.2109 -0.2578 -0.0132
14913W        W30530   2.394   9.118   2.709 -0.1533  0.2017 -0.0689
14914W        W30531  10.869   3.095   1.751 -0.0822  0.2521  0.0417
14915W        W30532  17.813  17.196   5.477 -0.2364  0.2458 -0.2347
14916W        W30533   7.424   5.350   1.543  0.0236 -0.0085  0.0060
14917W        W30534   2.199  11.453  12.032 -0.1625  0.0804  0.1313
14918W        W30535   7.558  16.343  13.787  0.0318 -0.3928  0.1091
14919W        W30536   9.719   7.668   1.537 -0.0682  0.3896 -0.1183
14920W        W30537   2.033   6.284   4.030  0.0702 -0.0016  0.3428
14921W        W30538  14.598  13.982   0.093 -0.0990  0.1168 -0.0831
14922W        W30539   6.120  12.911  10.259 -0.0057 -0.2524  0.0166
14923W        W30540  10.118  15.320  10.597 -0.2049  0.0510  0.0115
14924W        W30541   4.123   9.001  13.767 -0.0498 -0.2260  0.0073
14925W        W30542  15.444  14.186  12.244  0.2104  0.0059 -0.0304
14926W        W30543   3.749  17.306  11.992  0.0059 -0.0046  0.0398
14927W        W30544   0.175  11.021  15.297 -0.1836  0.0169 -0.0773
14928W        W30545  10.675   6.531  12.575  0.1065  0.1120  0.1040
14929W        W30546   7.644   0.671   0.109  0.0398 -0.2232  0.0762
14930W        W30547  11.850   6.972   3.982 -0.1246 -0.1156  0.2866
14931W        W30548   3.885  16.583   0.607  0.2754  0.2885 -0.0741
14932W        W30549  13.340   4.556   4.131  0.0397 -0.1083 -0.1197
14933W        W30550  12.338   5.366   3.500  0.0507 -0.0173  0.0852
14934W        W30551  15.491   5.958   3.082 -0.0520 -0.0218  0.1078
14935W        W30552   2.743  13.236  13.999 -0.0823  0.0000  0.1168
14936W        W30553   3.192  14.949  11.401 -0.0548 -0.1646 -0.1050
14937W        W30554  13.289   4.445   0.201  0.1018  0.2589  0.0495
14938W        W30555  14.024  14.527  14.929 -0.1087 -0.2128 -0.1116
14939W        W30556  17.939  14.992  13.697  0.0955 -0.0542  0.1071
14940W        W30557   1.478   8.127   3.802 -0.2133  0.4142  0.2003
14941W        W30558  17.800  12.907  11.946  0.1107 -0.3021 -0.1653
14942W        W30559  14.121   6.972  14.693 -0.1035 -0.1275 -0.0550
14943W        W30560  18.530   9.103   0.025  0.0946  0.0784  0.0684
14944W        W30561   4.336  15.016  14.281  0.2987 -0.0407  0.3339
14945W        W30562  11.758  13.243   1.032 -0.4649  0.0472  0.1383
14946W        W30563   4.535  16.995  13.789  0.3200  0.0935  0.1432
14947W        W30564   1.553  15.170   1.036  0.2492 -0.3279 -0.1126
14948W        W30565   0.847   1.497  10.576 -0.1339  0.0319  0.2102
14949W        W30566  14.055  10.122  14.393 -0.2042  0.2687  0.0988
14950W        W30567  11.239   1.407   0.112  0.1503  0.2413  0.3677
14951W        W30568  14.246   5.917  10.968 -0.1625 -0.0132  0.0444
14952W        W30569   0.544  11.151   0.299 -0.0182  0.1001  0.1028
14953W        W30570   2.272   4.792   0.045 -0.0637 -0.0731 -0.1859
14954W        W30571  11.345  15.234  14.492  0.2475 -0.0089  0.2776
14955W        W30572   4.026   1.819  15.642  0.1133  0.1082 -0.2434
14956W        W30573   8.092   4.761   5.731 -0.0756 -0.0966  0.2930
14957W        W30574  18.055   1.249   0.641 -0.3356 -0.2341 -0.2488
14958W        W30575   4.503   8.645   1.623  0.1252  0.0206 -0.0379
14959W        W30576   5.798  16.842   3.621 -0.2367 -0.0476 -0.1361
14960W        W30577  13.856   3.351   0.610 -0.0080 -0.0743  0.0240
14961W        W30578   4.048  15.887  13.771  0.1121 -0.1869  0.2102
14962W        W30579   7.782   3.913   1.359 -0.0536 -0.0153  0.3213
14963W        W30580   8.259   9.995  10.593 -0.0321 -0.0735 -0.1218
14964W        W30581  18.225  18.009  12.559 -0.1497 -0.1056  0.0083
14965W        W30582  11.192   1.673  13.357 -0.0179  0.0839 -0.0939
14966W        W30583  13.536   4.817   5.953  0.4323 -0.1835 -0.1984
14967W        W30584  11.858  18.136   0.226 -0.0899  0.0230  0.0238
14968W        W30585   1.586  14.838   5.071 -0.3181 -0.1711 -0.1103
14969W        W30586   4.552  11.697  12.546 -0.5036  0.1088  0.1802
14970W        W30587   9.073   4.956  15.693 -0.3462  0.0422 -0.0965
14971W        W30588  17.846  10.275  14.482  0.3236  0.1741 -0.1899
14972W        W30589   3.816   3.249   3.704  0.5086 -0.1707  0.1858
14973W        W30590  11.073   7.747   5.352  0.0919  0.2920  0.0084
14974W        W30591  18.644   8.019   3.490 -0.4454  0.0314  0.4117
14975W        W30592   0.481   8.611  15.740 -0.0828 -0.0433 -0.0614
14976W        W30593   6.715  12.380  13.068  0.1049  0.2841 -0.0561
14977W        W30594   9.570  18.015  12.797 -0.1977 -0.1174 -0.0384
14978W        W30595  18.477   1.618   5.291 -0.1453 -0.1907 -0.1141
14979W        W30596  11.392   6.195   4.115 -0.1665 -0.2789  0.0161
14980W        W30597  14.364   4.226  14.172 -0.1904 -0.1007 -0.0117
14981W        W30598  16.557  10.916   0.394  0.2213  0.0398 -0.2046
14982W        W30599   5.487   5.045  11.530 -0.3091 -0.0673 -0.1607
14983W        W30600   2.988  13.240   2.651  0.1210  0.1559 -0.1553
14984W        W30601   5.852   6.556  12.053 -0.0681  0.1906 -0.0037
14985W        W30602  12.345  14.368  13.434 -0.0146  0.1152  0.0410
14986W        W30603   1.886   9.287   2.704  0.0935 -0.0337  0.0670
14987W        W30604  13.064   5.000   5.634 -0.2532  0.0180 -0.4056
14988W        W30605  16.338  14.988   3.554 -0.1396 -0.1162 -0.1123
14989W        W30606   2.594   3.896  12.480 -0.0173  0.3423  0.1804
14990W        W30607   8.221   5.305   4.330 -0.2310 -0.0195 -0.2869
14991W        W30608   8.579   1.032   1.511 -0.1603 -0.0295  0.1882
14992W        W30609  18.288   9.506  15.615  0.1083 -0.0079 -0.1597
14993W        W30610   1.057  17.198  13.427  0.2838 -0.0114 -0.1707
14994W        W30611   9.855  11.480  15.093  0.0519  0.0532 -0.3557
14995W        W30612   8.740  13.235  11.280  0.2797  0.2645 -0.3676
14996W        W30613   5.144  14.017   4.515  0.0931  0.1502 -0.0596
14997W        W30614  12.195  14.191  13.871  0.0444  0.1398  0.1893
14998W        W30615   7.082  16.132  13.521 -0.0439  0.1091 -0.1190
14999W        W30616  14.933   9.182   2.597  0.0116 -0.2737 -0.2973
15000W        W30617  14.082   1.886  15.603 -0.1436  0.2767  0.1325
15001W        W30618  14.305  12.152  15.105 -0.2356 -0.0251 -0.0394
15002W        W30619  16.315  14.241  11.128 -0.0192  0.1165 -0.1332
15003W        W30620   3.685  14.007   1.724  0.2416 -0.2982  0.0528
15004W        W30621   3.660   3.830   9.959 -0.0295 -0.2261  0.0638
15005W        W30622  10.156   2.869   3.713  0.0686  0.1813 -0.0113
15006W        W30623   2.112   8.326   1.519 -0.0321  0.2093 -0.1360
15007W        W30624   2.819  11.470   2.233  0.2117  0.1806  0.2018
15008W        W30625  14.017   7.425   3.062 -0.1405 -0.0549  0.2994
15009W        W30626   2.943  10.439  11.509  0.3021  0.1317  0.1407
15010W        W30627  14.565  14.002   3.898  0.0787 -0.1763  0.0484
15011W        W30628   4.701   3.563   2.546  0.2326 -0.1621  0.0488
15012W        W30629  15.242  14.034  11.804  0.1704 -0.2794  0.0449
15013W        W30630   0.809   0.079   4.129  0.0204  0.3839  0.2031
15014W        W30631   7.059   0.349   0.646  0.2633 -0.2296  0.1424
15015W        W30632   7.502  14.506  11.655 -0.3527  0.0006  0.2015
15016W        W30633   8.370   3.617   3.791  0.3561  0.2886 -0.1950
15017W        W30634   3.478  17.169   2.267  0.1819  0.2732 -0.0681
15018W        W30635   7.747  16.616  14.491 -0.0220  0.0730  0.0365
15019W        W30636   2.635   9.186  13.028 -0.1877  0.3175 -0.0634
15020W        W30637   9.768   1.226  14.017  0.1368 -0.3764 -0.1275
15021W        W30638  18.253  11.945   0.809 -0.2184 -0.2491  0.2857
15022W        W30639   4.838  17.896  11.383  0.0433  0.0714  0.1375
15023W        W30640   6.279   9.998  12.299  0.1312 -0.2787  0.0711
15024W        W30641   0.406   9.464  10.575  0.0956 -0.0963 -0.0216
15025W        W30642   3.642   3.556   2.429 -0.2654  0.4076 -0.1887
15026W        W30643  16.580   9.489  10.280  0.0790  0.2218  0.1687
15027W        W30644   0.559  11.693   3.114  0.2488  0.0054 -0.1458
15028W        W30645  16.154   7.241   3.996 -0.0875  0.1148  0.4879
15029W        W30646  18.291   9.861   5.339  0.1878  0.2434  0.0339
15030W        W30647   9.430   5.869   5.173  0.1829  0.0547 -0.0704
15031W        W30648  14.737  10.924   0.917  0.2022 -0.5134  0.0964
15032W        W30649  15.931   1.166  14.027 -0.0826 -0.0651 -0.3197
15033W        W30650   5.280  17.341   1.466  0.1947  0.0552 -0.0600
15034W        W30651  16.868  11.874   1.703  0.0220  0.0474 -0.0065
15035W        W30652   5.571   7.535   3.155 -0.1710  0.1070 -0.0155
15036W        W30653  15.981   5.895   0.821 -0.1307  0.2032 -0.3089
15037W        W30654   5.196   0.797   4.839 -0.0143 -0.1226  0.0693
15038W        W30655  13.744  10.822   2.745  0.1907 -0.1355 -0.1427
15039W        W30656  15.341  18.254   3.412 -0.1785 -0.0829 -0.2702
15040W        W30657  13.026  11.208  12.341  0.0622  0.0590 -0.2540
15041W        W30658   0.829  11.673  12.791 -0.0890  0.0628  0.1691
15042W        W30659   7.857   2.901  14.404  0.2532 -0.2049  0.1816
15043W        W30660   5.788   8.392  11.984 -0.2088  0.1749  0.1028
15044W        W30661   5.041   4.033  11.907  0.2440 -0.0011 -0.1043
15045W        W30662  13.545   5.267  14.232 -0.0298 -0.0428  0.6326
15046W        W30663   9.603   3.852   3.295 -0.1974 -0.0550  0.1221
15047W        W30664  18.645  10.520  11.510 -0.1729 -0.0545 -0.0706
15048W        W30665   4.884   4.798   5.273 -0.0611 -0.1510  0.1617
15049W        W30666   0.956  18.365   0.376  0.2480 -0.0366  0.0751
15050W        W30667  13.717  16.409   3.773  0.0407 -0.1897 -0.3107
15051W        W30668  17.568   5.922  12.342  0.0062  0.1311 -0.3989
15052W        W30669   1.156  16.451  12.660 -0.4349  0.0102  0.0557
15053W        W30670   4.433   2.533  10.919  0.1534 -0.1316 -0.2157
15054W        W30671   4.716  10.930   3.195 -0.1676  0.0537 -0.2080
15055W        W30672   7.439   0.081   0.884  0.0360 -0.2687 -0.0381
15056W        W30673   8.372   6.780  11.053 -0.0162 -0.1504  0.0798
15057W        W30674   4.315   4.262   5.176 -0.2462  0.2874 -0.0221
15058W        W30675  14.644   7.714  14.314 -0.5667  0.2089 -0.1600
15059W        W30676   6.166  16.249  14.286  0.1656 -0.0596  0.0920
15060W        W30677  10.375   6.141  11.208 -0.0059  0.1683 -0.0606
15061W        W30678   8.001   0.607  12.005  0.4150 -0.1560  0.3286
15062W        W30679   6.240  14.725   3.321  0.0170 -0.0001 -0.1810
15063W        W30680  17.185   8.927   4.257  0.1043 -0.0516 -0.1731
15064W        W30681   2.303   1.682   4.261  0.0450  0.1227 -0.1810
15065W        W30682  16.445   3.470   0.178  0.3132 -0.3840 -0.1856
15066W        W30683   0.260   0.788   2.272 -0.1646 -0.1544  0.1446
15067W        W30684   6.497  10.687   2.058 -0.2559 -0.2125 -0.1599
15068W        W30685  18.011   0.711   1.005  0.1351 -0.4050  0.2512
15069W        W30686   8.421   2.584  10.151  0.0675  0.1209  0.2151
15070W        W30687   3.544   1.995   0.109  0.1617 -0.1896  0.1294
15071W        W30688   2.235   1.916  13.579  0.1829 -0.0545  0.3162
15072W        W30689   5.118  11.892   0.591  0.0399 -0.0796  0.1525
15073W        W30690   3.131   7.026  15.744  0.1389  0.1274  0.0296
15074W        W30691   0.439  15.420   1.197 -0.2188  0.1773  0.3884
15075W        W30692  13.175   8.611  13.197 -0.1022 -0.0455 -0.0321
15076W        W30693  18.143  16.201   1.210  0.1096 -0.2684 -0.0739
15077W        W30694  14.483   0.214  13.199  0.1073 -0.3091 -0.2982
15078W        W30695  17.469  17.291  13.993 -0.0742  0.2603  0.1176
15079W        W30696  13.201   3.876   5.639 -0.1958  0.0970 -0.2736
15080W        W30697   4.966  18.168   3.480  0.0933  0.0453  0.0283
15081W        W30698   9.923  14.084   4.681  0.0446  0.2110  0.1162
15082W        W30699   2.015  18.234   0.854  0.3355  0.1712 -0.0464
15083W        W30700  12.266   3.628   4.832  0.3764  0.0696  0.2181
15084W        W30701  14.106   4.661   5.503 -0.2314  0.0726  0.0890
15085W        W30702  13.587   5.717  13.500  0.1702  0.0982  0.1500
15086W        W30703   3.434  16.590   3.739 -0.0447 -0.0724 -0.1201
15087W        W30704  12.154  18.571   3.731  0.1456  0.0136  0.2995
15088W        W30705  14.597   2.371   5.414 -0.1547 -0.3247 -0.0261
15089W        W30706  13.564   0.015  11.727 -0.0228  0.0590 -0.0208
15090W        W30707  13.847  13.010  12.763  0.1954  0.1540  0.0833
15091W        W30708   1.072   0.623   3.580  0.2205  0.4282 -0.5362
15092W        W30709  14.125   4.928  14.769  0.1084  0.0241  0.5459
15093W        W30710   1.160  16.148   1.802 -0.4801 -0.1778  0.0362
15094W        W30711  11.371   4.788  12.972 -0.1113  0.2686 -0.2324
15095W        W30712  18.323   1.022   2.631 -0.2756  0.1519 -0.1488
15096W        W30713  11.162   4.140  11.372  0.1809  0.3690 -0.0473
15097W        W30714  10.985   5.998  14.541 -0.1464 -0.1115  0.1699
15098W        W30715   9.469   6.301   1.866 -0.1762 -0.1290 -0.0732
15099W        W30716  12.257  14.553   2.255  0.1804 -0.0522  0.1953
15100W        W30717  11.495  11.025   1.446  0.0596 -0.0412 -0.0173
15101W        W30718  12.849   6.287   2.975 -0.3133 -0.2754  0.1312
15102W        W30719   2.228   8.856   5.139 -0.1181 -0.1145 -0.0894
15103W        W30720   2.599   6.110   3.220 -0.0262 -0.1014  0.1225
15104W        W30721  15.904   3.388  15.094 -0.2537  0.2754 -0.1113
15105W        W30722   3.461   9.129   0.031  0.0782 -0.2283  0.3280
15106W        W30723   9.006   2.833   0.521  0.0331 -0.0984  0.0751
15107W        W30724   4.943   7.132  14.417  0.0010  0.1462 -0.1182
15108W        W30725   5.024   9.060  13.379  0.0995  0.1662  0.1693
15109W        W30726  13.595   7.029  13.751  0.1281  0.1529  0.1104
15110W        W30727   7.138   3.943   0.116 -0.2009 -0.0090  0.6494
15111W        W30728   0.674   7.737   2.128  0.2339 -0.2012  0.0494
15112W        W30729   0.577   4.975  11.976 -0.4094 -0.1434 -0.0138
15113W        W30730  17.673   1.684   3.640  0.4263  0.2739 -0.2507
15114W        W30731  11.395  16.511   4.706  0.1998  0.0949  0.0873
15115W        W30732  12.925  18.212  14.423 -0.1842 -0.1503 -0.1930
15116W        W30733  14.257  16.217  13.566  0.0552  0.0677 -0.0477
15117W        W30734  14.721  16.342  13.311 -0.0683  0.1614 -0.0070
15118W        W30735  15.866  13.762  12.891  0.0043  0.0116  0.3701
15119W        W30736  18.164  16.685  14.039 -0.1611  0.0199  0.0120
15120W        W30737  14.053  10.383   0.943  0.0554  0.2537 -0.1869
15121W        W30738   7.122   6.452   5.731 -0.1726 -0.1446 -0.0679
15122W        W30739  16.688   2.299   2.394 -0.1976  0.2055  0.0762
15123W        W30740   7.384  15.412   1.135 -0.0060  0.2586 -0.0918
15124W        W30741   3.545   1.787   4.934  0.3065 -0.0574  0.2050
15125W        W30742   7.406  11.823   0.203 -0.0337 -0.0195 -0.0585
15126W        W30743   8.623  14.353  12.796  0.0484  0.2158 -0.3953
15127W        W30744  18.446  12.351  10.697 -0.0005  0.1735  0.0595
15128W        W30745   5.973   5.615  14.331  0.1944  0.0379  0.0629
15129W        W30746   6.220  10.235  10.216 -0.3629 -0.1272 -0.2008
15130W        W30747  16.772   6.633  12.081 -0.0961  0.1701  0.0422
15131W        W30748  15.435  12.448   4.761  0.1388 -0.3117 -0.0676
15132W        W30749  17.364  13.079   1.813  0.2074 -0.0188 -0.0655
15133W        W30750   6.440   4.582   1.387  0.0974 -0.0833 -0.3962
15134W        W30751   1.394   9.490   0.145 -0.0946 -0.1391 -0.1531
15135W        W30752   0.109   0.751   1.762  0.3460 -0.3690  0.2010
15136W        W30753  11.452  13.341   4.832  0.1500 -0.0999 -0.0545
15137W        W30754   8.002  18.547   0.549  0.1040  0.1199  0.1579
15138W        W30755  17.967   0.815   2.397 -0.1444 -0.0120 -0.2198
15139W        W30756   1.310  15.849   1.338  0.0718 -0.0482 -0.0684
15140W        W30757   8.939   7.576  12.752 -0.1106 -0.2692 -0.2895
15141W        W30758  12.037  13.563   4.648  0.0175  0.4857 -0.0493
15142W        W30759   9.124   4.841  13.626 -0.1385 -0.1852  0.0757
15143W        W30760  14.680   5.717  14.808  0.3501 -0.0163  0.0975
15144W        W30761  18.254  15.317   5.223  0.0892 -0.1187  0.1514
15145W        W30762   1.515   6.563   3.931 -0.2532  0.1679  0.0251
15146W        W30763  16.168   5.337  14.407 -0.0319  0.1391 -0.0291
15147W        W30764   9.564   3.800   1.367 -0.0858  0.3056  0.4410
15148W        W30765  15.620   8.146  13.145 -0.0308 -0.0094 -0.0094
15149W        W30766   2.063   5.144  12.339 -0.0824  0.3543 -0.0095
15150W        W30767  13.347  14.553  12.182  0.1828 -0.1496  0.3559
15151W        W30768   2.969  17.186  13.075 -0.4552  0.0455 -0.0539
15152W        W30769   3.355   3.793   3.553 -0.0282  0.0255  0.1186
15153W        W30770  16.754  13.103   0.092  0.0944  0.0462  0.1979
15154W        W30771  15.955   3.211  15.795 -0.1290  0.0557 -0.2801
15155W        W30772  18.101   6.194  14.026 -0.1695  0.2174  0.1591
15156W        W30773  11.660   5.243   2.080  0.1273 -0.1928 -0.0579
15157W        W30774   1.962   2.886   3.154  0.0169  0.1976  0.0874
15158W        W30775   4.175  10.974   0.527 -0.2446  0.0547  0.0296
15159W        W30776   4.972   7.915  13.766  0.2985 -0.2375 -0.0659
15160W        W30777  12.741  13.796  14.447 -0.2196 -0.3121  0.0428
15161W        W30778   0.364  14.841  15.406 -0.0487 -0.0347 -0.2315
15162W        W30779   5.008   5.362  15.594  0.1677 -0.1795  0.1708
15163W        W30780   8.614  17.484   3.440  0.2532 -0.3263  0.2059
15164W        W30781   6.839   1.403  12.210 -0.3092 -0.1601  0.4182
15165W        W30782  11.506  14.366  11.862 -0.3420  0.1907  0.0033
15166W        W30783  13.452   7.582   5.903 -0.0478  0.0754 -0.1037
15167W        W30784  17.297   7.857  12.218  0.3795 -0.0104 -0.2407
15168W        W30785  16.424  17.472   3.121  0.1164 -0.1867  0.3819
15169W        W30786  12.113  14.597   3.113  0.3024  0.0332  0.0397
15170W        W30787   9.288   0.229   0.720 -0.2225  0.3121  0.1552
15171W        W30788  16.151   3.663  14.107  0.2009 -0.1546  0.2778
15172W        W30789   1.029   6.474  14.464 -0.1351 -0.2777  0.1629
15173W        W30790   7.781   3.400  14.046  0.5922  0.0502 -0.1671
15174W        W30791   2.294  16.192  11.333 -0.1277  0.1807  0.0942
15175W        W30792  10.147   0.127  12.627 -0.0750 -0.1515 -0.2818
15176W        W30793   5.723  17.519   2.133  0.0509 -0.2413  0.0959
15177W        W30794   6.228   8.532  15.610 -0.0925 -0.0579  0.1909
15178W        W30795  15.424  17.255  10.999 -0.3725  0.0243  0.0695
15179W        W30796  16.656  12.827   4.198 -0.3900 -0.1124  0.0816
15180W        W30797   7.788  14.213   4.922  0.1664  0.2508 -0.0111
15181W        W30798  12.456  15.400  12.104 -0.3436 -0.3028  0.1049
15182W        W30799   7.250   2.275   1.627  0.0819 -0.0255  0.0070
15183W        W30800   8.321   3.733   2.999 -0.3438 -0.0391  0.3200
15184W        W30801   2.626   2.613  11.112  0.2250 -0.1035 -0.0482
15185W        W30802   2.029  16.990   3.988 -0.0033 -0.0410  0.1678
15186W        W30803   9.589   8.011  14.774  0.0915  0.1770  0.0080
15187W        W30804   3.799   9.536  15.709 -0.0555  0.1060 -0.1245
15188W        W30805  10.246  12.063   2.238  0.3242 -0.2438  0.1074
15189W        W30806   7.984   9.598  14.494 -0.3224 -0.3796  0.2543
15190W        W30807   8.132  16.089   2.094 -0.1601 -0.1627  0.0986
15191W        W30808  10.920  12.970   3.387  0.1312  0.1460 -0.2290
15192W        W30809   5.013   7.787  10.703 -0.0958 -0.1287 -0.2387
15193W        W30810   6.750  10.200  13.001 -0.0215  0.0228  0.1514
15194W        W30811   1.782   5.318  15.108  0.0090  0.0589  0.2494
15195W        W30812  16.646   4.650  15.127  0.1527  0.2724 -0.3009
15196W        W30813  15.956  13.466   2.288 -0.1982  0.0944  0.0042
15197W        W30814   3.402  14.671   3.267 -0.1056  0.0420  0.1149
15198W        W30815  14.744   3.899   1.633  0.1913  0.2319  0.0170
15199W        W30816  11.245   5.516   2.105 -0.1802  0.0106 -0.0166
15200W        W30817   7.309   4.298   4.220 -0.0558  0.2093  0.4033
15201W        W30818   5.646   6.166  13.553  0.3176 -0.0053 -0.1390
15202W        W30819  11.397   6.914   3.481  0.0987 -0.1039  0.0240
15203W        W30820  14.641  13.080   1.864 -0.2092  0.1275 -0.0508
15204W        W30821   0.356  13.431   2.998  0.2009 -0.3494  0.1526
15205W        W30822  12.146   4.944  12.430 -0.0552 -0.1442 -0.2702
15206W        W30823   3.456   4.573   5.251  0.0583 -0.1520  0.1178
15207W        W30824   9.081  11.658   1.759 -0.3287 -0.1143 -0.1312
15208W        W30825  14.939   3.432   1.611  0.0451 -0.0115  0.1897
15209W        W30826  15.606   9.693   0.467 -0.1541 -0.0913  0.0121
15210W        W30827   0.524   1.037  14.518  0.1940 -0.0529  0.0709
15211W        W30828  15.268   0.919   4.294  0.3508  0.0027  0.1959
15212W        W30829   6.133   0.690  13.662  0.1458  0.0969 -0.3275
15213W        W30830   4.978  15.787  12.791 -0.1159 -0.3066 -0.0033
15214W        W30831  18.303  18.004   2.481 -0.1871  0.0283 -0.0505
15215W        W30832   8.769  17.914   3.124  0.1790  0.1401 -0.0323
15216W        W30833  10.066  13.649   4.853 -0.1686  0.0611 -0.0516
15217W        W30834   4.517  13.225   4.742 -0.1050 -0.1598  0.0663
15218W        W30835   8.496  11.539   4.907  0.2679 -0.0489 -0.3192
15219W        W30836   2.302   6.959  12.946  0.5133 -0.2257  0.1691
15220W        W30837  10.745  11.469  11.813 -0.1437 -0.0924 -0.1544
15221W        W30838   9.109  11.065   3.846  0.1517 -0.0648  0.0171
15222W        W30839  11.317  14.668  13.299  0.1133 -0.1208 -0.1544
15223W        W30840  11.604   2.137   3.636 -0.1507 -0.1738 -0.0760
15224W        W30841  18.551  16.544   0.036 -0.0287 -0.2598  0.1563
15225W        W30842  16.988  10.940   4.901  0.1617  0.0934  0.3635
15226W        W30843   0.406   2.312  13.212 -0.2821 -0.1640  0.1693
15227W        W30844   4.565   5.628  12.991 -0.0183 -0.2250 -0.2529
15228W        W30845  12.818   7.444   1.130  0.1984 -0.0121  0.1073
15229W        W30846   3.362  14.275   2.993  0.1818 -0.1849 -0.2315
15230W        W30847   9.804  15.758   2.493 -0.2064 -0.2921 -0.0727
15231W        W30848  17.583   5.985   0.890 -0.3272 -0.0757 -0.2314
15232W        W30849  14.413  11.974   1.964 -0.1195 -0.1902  0.0528
15233W        W30850  14.367   7.674   2.738  0.3282  0.1961  0.0745
15234W        W30851   0.584  10.321  12.791  0.0661 -0.1450  0.4394
15235W        W30852   6.141   8.241   2.660  0.0227 -0.1743  0.0730
15236W        W30853  11.536   9.352   1.405 -0.3853 -0.0774  0.2346
15237W        W30854   8.998  14.758   1.878 -0.0831 -0.1460 -0.0882
15238W        W30855  12.811  15.200   5.420 -0.2119  0.0632  0.0447
15239W        W30856  12.151   5.043   5.963  0.0177  0.0160 -0.1295
15240W        W30857  16.225  13.526   2.885 -0.1803 -0.2244  0.1253
15241W        W30858   0.938  10.200   2.072 -0.1514  0.0891  0.1450
15242W        W30859   0.013  11.431   0.499 -0.1989 -0.0573  0.0924
15243W        W30860   7.721  10.474   5.110  0.1281  0.1613  0.1841
15244W        W30861   5.159  14.054  15.014 -0.0056 -0.3441 -0.1860
15245W        W30862  12.560   8.447  14.297 -0.1527 -0.3429 -0.0408
15246W        W30863   7.910   8.272  13.387  0.0571  0.2430 -0.4427
15247W        W30864  11.889  11.407  10.958  0.0436 -0.0386 -0.0605
15248W        W30865   6.420  16.418   5.484 -0.1247  0.0153 -0.1939
15249W        W30866   2.248  12.674   2.896 -0.1010  0.0442  0.1778
15250W        W30867  13.752   5.490   3.114 -0.0687  0.1369 -0.1110
15251W        W30868  16.260  15.602   1.822  0.0135  0.1187 -0.0866
15252W        W30869  16.687   9.640   1.854 -0.0627  0.0409  0.0643
15253W        W30870   7.140   7.394   4.767 -0.0725  0.0845 -0.0590
15254W        W30871   2.652   3.010  15.139 -0.1825 -0.0820 -0.2156
15255W        W30872  14.932   9.891   0.272  0.2085  0.0401  0.0709
15256W        W30873   0.338   3.661   4.320 -0.0229 -0.3584  0.1011
15257W        W30874   5.061  14.028   3.240  0.3299  0.1288  0.1857
15258W        W30875   2.431   4.554  11.827  0.1987  0.1704  0.3003
15259W        W30876   2.837  13.091  11.449  0.2076  0.4049  0.0395
15260W        W30877  14.335   7.224  11.348  0.5131  0.1983 -0.0596
15261W        W30878   3.007   7.918  13.808  0.0513 -0.0759  0.1934
15262W        W30879   9.599  18.403   0.791 -0.0991  0.0050  0.1628
15263W        W30880  14.953  14.213   3.096 -0.0012  0.2198 -0.0050
15264W        W30881   4.971  14.521  14.802  0.1177 -0.1101  0.4044
15265W        W30882  16.494   8.209   0.361  0.3155 -0.1572  0.1842
15266W        W30883   8.002   0.152   2.954  0.3962  0.1386 -0.3414
15267W        W30884   2.774   9.853   2.754 -0.1288  0.2122  0.3177
15268W        W30885  16.470  11.798  13.846 -0.1117  0.0590  0.0630
15269W        W30886  11.748  17.567   2.262 -0.1345 -0.0430  0.1387
15270W        W30887   5.345  12.869  12.728 -0.1694 -0.2015 -0.0839
15271W        W30888   9.026  13.664  11.392  0.1783  0.1794 -0.0543
15272W        W30889  16.718  13.294  14.383  0.1808 -0.1005  0.1102
15273W        W30890   3.378   3.951  15.544  0.0844 -0.0563 -0.0294
15274W        W30891   8.730   6.272  13.962  0.1769 -0.1365  0.1619
15275W        W30892  15.817   0.603  15.448 -0.0414 -0.1556  0.0449
15276W        W30893  17.534   2.588   2.799 -0.1461  0.0587  0.0898
15277W        W30894   0.090  16.558  13.673 -0.5461 -0.0540  0.0120
15278W        W30895  10.353  12.202  13.030 -0.0615  0.3950  0.4075
15279W        W30896  17.360  13.709  11.107  0.0346 -0.2521 -0.0578
15280W        W30897   1.296  14.074  12.354 -0.2994  0.1370 -0.1063
15281W        W30898   6.752   8.254   1.913  0.1624  0.1116 -0.0742
15282W        W30899  10.504   3.081   5.822  0.2098  0.0024 -0.1285
15283W        W30900  10.736  11.384  13.053  0.3080  0.2131 -0.3159
15284W        W30901   3.943  16.539   2.576 -0.0126  0.1289  0.0912
15285W        W30902  16.447   2.062  12.686  0.3466 -0.1325  0.1375
15286W        W30903  12.745   9.267   3.071 -0.2175  0.0926  0.1625
15287W        W30904   1.352  17.261  11.926 -0.1071 -0.0075 -0.1652
15288W        W30905   2.012   4.760   3.663 -0.1101 -0.0544 -0.0691
15289W        W30906   1.838  13.077   1.528 -0.1067 -0.1100  0.0660
15290W        W30907  16.755  11.065  12.689  0.1131 -0.1146 -0.0205
15291W        W30908   6.571  12.821   2.012  0.1142  0.0644  0.1339
15292W        W30909   0.829   4.743  13.942  0.0275 -0.0400 -0.1573
15293W        W30910  11.344   3.988  13.914 -0.0443  0.2123 -0.0959
15294W        W30911   7.740   3.643  13.186  0.0095 -0.0230  0.1080
15295W        W30912  12.692   7.448   4.403 -0.1372 -0.2455 -0.1532
15296W        W30913  13.325  12.206   0.450  0.1312 -0.0092 -0.1559
15297W        W30914   9.636   6.590   0.109 -0.1176 -0.3330  0.1092
15298W        W30915   5.120  16.151  14.424 -0.5244  0.1339 -0.1288
15299W        W30916   0.624  18.306   4.328  0.4057  0.1622 -0.1042
15300W        W30917  16.221   7.834  11.403 -0.1802 -0.1259  0.0322
15301W        W30918  18.235   6.913  11.021 -0.3023 -0.3264 -0.0833
15302W        W30919   0.705  11.135  11.150  0.0120  0.0825 -0.1701
15303W        W30920   3.294   1.683   0.947 -0.0331  0.3955  0.3295
15304W        W30921  12.170  12.057  12.728 -0.2499 -0.0160 -0.0235
15305W        W30922  12.263   8.986   3.121  0.2683  0.1051 -0.0953
15306W        W30923   1.906  11.934  12.429  0.0398  0.3500  0.4702
15307W        W30924   9.133  14.694   5.677 -0.1531 -0.2396 -0.2885
15308W        W30925   7.952   9.155   4.455  0.1980  0.0302 -0.0978
15309W        W30926  14.849  17.321  13.646  0.0777 -0.1843  0.0094
15310W        W30927  10.677   8.185   5.359  0.1241  0.0391  0.0489
15311W        W30928   8.805   1.987   4.941  0.0760  0.1699 -0.1583
15312W        W30929   6.251  11.894   3.454 -0.2042  0.1803  0.1590
15313W        W30930  13.041  18.380   2.961 -0.0300  0.0326 -0.1477
15314W        W30931   7.074  13.359   4.285 -0.0586 -0.1237 -0.0404
15315W        W30932   5.241   2.421   3.944 -0.3786 -0.0481  0.2018
15316W        W30933   6.228   8.636  11.891 -0.0279  0.3095  0.1335
15317W        W30934  14.333  12.880   0.804  0.0002 -0.0439  0.2316
15318W        W30935   5.325  12.439   1.089 -0.1996  0.1081 -0.0439
15319W        W30936   6.274  13.226  13.430 -0.1785 -0.0688  0.0194
15320W        W30937   5.535   4.869  13.398  0.3318  0.3924  0.1586
15321W        W30938  18.113  14.616   1.303  0.0708  0.1478 -0.2647
15322W        W30939  17.589  10.833   3.075  0.1735 -0.1292 -0.2669
15323W        W30940  15.732   4.814   0.981 -0.1682  0.1512  0.0883
15324W        W30941  11.599  14.709  14.364 -0.0199 -0.2622  0.1823
15325W        W30942   3.681  13.790   4.307  0.2252  0.2265 -0.2894
15326W        W30943   2.100   0.876   2.558  0.0206 -0.0995  0.1413
15327W        W30944  17.034   5.719   1.718 -0.2559 -0.0171  0.2113
15328W        W30945  16.729   6.348  14.526 -0.2694 -0.2499 -0.1091
15329W        W30946   9.300  12.175  15.310 -0.0900  0.2651  0.3520
15330W        W30947   9.364   1.714   2.808 -0.1107  0.0014 -0.1015
15331W        W30948   5.640   0.990  13.734 -0.0091  0.1594  0.0110
15332W        W30949  10.056  15.954  14.722 -0.1292  0.1242 -0.1769
15333W        W30950  14.596   7.356   3.050  0.0994  0.1337 -0.2617
15334W        W30951   2.918   3.426   3.998  0.0654 -0.1736  0.2778
15335W        W30952   4.915  14.208   2.320  0.1192 -0.2108  0.0015
15336W        W30953   4.984  16.553  15.532 -0.2063  0.1440 -0.3060
15337W        W30954  13.798   8.090  11.984  0.2567  0.4261 -0.2479
15338W        W30955  12.941  11.306   4.689  0.2030  0.0994 -0.2276
15339W        W30956  18.075  14.826   2.783  0.0109  0.2708  0.3333
15340W        W30957  13.042   7.065  12.597  0.1558  0.4849  0.0535
15341W        W30958   1.248   9.652  11.029 -0.3080 -0.0259  0.0923
15342W        W30959  11.721  10.182  14.407 -0.0766  0.2010  0.4486
15343W        W30960  10.060   0.806  12.691 -0.4862  0.2056 -0.0091
15344W        W30961  18.099  14.114  15.052 -0.0143  0.0975  0.2006
15345W        W30962   8.852  17.224  11.184  0.0580 -0.0575 -0.1540
15346W        W30963  16.345   4.309   0.358 -0.3155  0.0142 -0.0938
15347W        W30964   0.729  12.886  15.724  0.2286  0.0637 -0.0708
15348W        W30965  10.121  17.011   3.438 -0.1970  0.0037 -0.3626
15349W        W30966  12.750  13.618   3.733  0.2125 -0.0346  0.2461
15350W        W30967  14.369   7.037   2.772 -0.1696 -0.4982  0.0520
15351W        W30968   3.423  17.735  12.533 -0.0209  0.3446  0.2338
15352W        W30969  13.763   5.427  10.420 -0.0729 -0.0824  0.0530
15353W        W30970   3.611  13.396  12.917 -0.2160  0.2435  0.0903
15354W        W30971   6.433   3.660  13.871 -0.1505  0.0384  0.1660
15355W        W30972   1.169  15.333  15.486 -0.0531  0.0518 -0.1853
15356W        W30973  15.686  13.230  11.376 -0.0537 -0.1840  0.1661
15357W        W30974   4.016  18.645  14.189  0.0578  0.1602  0.0762
15358W        W30975   5.183   7.808   3.178 -0.2116 -0.0193  0.3452
15359W        W30976   6.009   1.857  12.646  0.0697 -0.2214  0.3647
15360W        W30977   3.265   0.929   3.326  0.2079  0.2625  0.0801
15361W        W30978  16.517  14.904  15.759 -0.0182  0.1028  0.1110
15362W        W30979   0.356  15.388   2.758 -0.0788  0.1367 -0.0050
15363W        W30980  15.278  16.090  12.243 -0.2286 -0.2899  0.1374
15364W        W30981   9.833  12.942   2.421 -0.2786  0.0166 -0.0997
15365W        W30982  10.618  14.395   1.158  0.0922  0.2690 -0.0098
15366W        W30983   9.251  10.017  13.790 -0.0955 -0.2618  0.0484
15367W        W30984  10.275  11.627   2.592 -0.1768 -0.1208 -0.1513
15368W        W30985   5.603   4.129   1.442 -0.2867 -0.1736 -0.3052
15369W        W30986   7.244  10.112  14.729 -0.1184  0.3048 -0.0457
15370W        W30987  17.629   6.651   4.630 -0.0612  0.1013  0.0094
15371W        W30988  17.170   1.309   5.826 -0.2083 -0.1048 -0.2010
15372W        W30989  10.880   3.902   4.747 -0.0142 -0.0968  0.1978
15373W        W30990   4.705   9.424  13.215  0.0025  0.0093 -0.3710
15374W        W30991  14.512  14.228   3.472 -0.3225  0.2304  0.1204
15375W        W30992  10.533   9.993   4.937  0.1201  0.2283  0.0676
15376W        W30993  12.176  12.732   2.402 -0.1992  0.0132  0.1339
15377W        W30994  14.317   3.435  13.463 -0.2505 -0.1761 -0.0565
15378W        W30995  10.512   6.816  15.700 -0.0184 -0.1374  0.0207
15379W        W30996   6.118   3.670   2.976 -0.0948  0.0232 -0.0820
15380W        W30997  10.542  16.621  15.457  0.1521  0.1326 -0.0845
15381W        W30998   2.527  14.578  12.571 -0.2468  0.4406  0.0517
15382W        W30999   6.768   3.344   5.640 -0.2235 -0.0508 -0.3247
15383W        W31000   2.838   1.697   0.469  0.0070 -0.0276  0.2614
15384W        W31001   0.295  13.145  13.720 -0.2831  0.1884 -0.0270
15385W        W31002   7.089   4.591  14.601  0.0918 -0.1138  0.0598
15386W        W31003   9.159  10.229  11.715  0.0254 -0.3761  0.0535
15387W        W31004  13.653   4.897   0.282 -0.2049 -0.2264 -0.0711
15388W        W31005  15.552   6.067   2.575  0.0153  0.1507  0.0685
15389W        W31006  10.604  16.061   3.834  0.2017 -0.3120 -0.0259
15390W        W31007   9.551  17.515  12.875 -0.2950  0.1524 -0.0842
15391W        W31008  15.087  11.001  14.397  0.0193 -0.0402 -0.1606
15392W        W31009   1.531   3.855   3.973  0.2897  0.1505 -0.1526
15393W        W31010   5.213   6.622   3.747 -0.0857 -0.2548 -0.3083
15394W        W31011  18.213  15.190  15.677 -0.0103 -0.2266  0.0474
15395W        W31012   0.354  11.513  14.099 -0.2114 -0.1384  0.1839
15396W        W31013   7.831  15.838  10.464  0.2348 -0.1608 -0.0088
15397W        W31014   1.525  12.457   3.806  0.1046 -0.2603  0.3442
15398W        W31015   8.054   9.354   9.861  0.0282  0.0423 -0.3673
15399W        W31016  13.715  12.063  15.014 -0.1729 -0.0373 -0.1491
15400W        W31017  17.227   4.160  11.410  0.0352 -0.0091  0.2269
15401W        W31018  10.661   7.318   2.902 -0.0958 -0.2240 -0.1759
15402W        W31019   4.309  10.637   3.042  0.2238  0.1815  0.0151
15403W        W31020  14.445   8.209   4.248 -0.2177 -0.0542 -0.0942
15404W        W31021  10.425   1.710   6.312  0.4343  0.2959 -0.0266
15405W        W31022  15.390  12.495  11.041  0.2052  0.1071  0.3092
15406W        W31023  16.601   8.090  11.621  0.2399  0.1911 -0.3077
15407W        W31024   2.297   4.143  15.166 -0.0456 -0.1688 -0.0027
15408W        W31025   2.137   5.003   4.123  0.1807  0.0301 -0.0803
15409W        W31026  16.105   2.081  14.999 -0.0246 -0.0816  0.2006
15410W        W31027  10.205   3.122  10.731 -0.1031 -0.1331  0.0402
15411W        W31028   3.298   3.140   3.691  0.0288 -0.0913 -0.1804
15412W        W31029   5.040  17.255  15.156  0.2426  0.0295 -0.1734
15413W        W31030   6.863  15.672  13.881 -0.0558 -0.6964 -0.0638
15414W        W31031   8.401  16.099  13.857 -0.1013 -0.1979 -0.3177
15415W        W31032  13.320  10.068   4.793  0.0157 -0.1428  0.0193
15416W        W31033  12.636  16.763   2.456  0.0309 -0.0216  0.2045
15417W        W31034  13.227  10.507   0.457 -0.0011 -0.0053  0.1399
15418W        W31035  14.674   8.331  10.878 -0.0814 -0.0523  0.2253
15419W        W31036   3.129   9.070  11.672 -0.0873  0.3704  0.1976
15420W        W31037  11.838   1.196   4.678  0.1809  0.0560  0.2350
15421W        W31038  13.995  13.763  14.943 -0.5576 -0.0035 -0.1984
15422W        W31039  10.034   4.625   1.787 -0.0625  0.0063  0.4128
15423W        W31040   3.681   9.229  14.051 -0.1707 -0.2620  0.2463
15424W        W31041  15.213   0.072   5.181  0.2094  0.2315 -0.0434
15425W        W31042  15.330  14.138   3.438  0.2472 -0.1349  0.2096
15426W        W31043  10.710  15.906   4.744 -0.0721  0.2264 -0.1371
15427W        W31044  10.507   2.735   2.880 -0.0245 -0.1246 -0.0768
15428W        W31045  16.140   7.076   9.955  0.0865 -0.1175  0.0277
15429W        W31046  17.384   8.934  14.684  0.1435 -0.2564 -0.2807
15430W        W31047   5.044  11.303   1.132 -0.2552 -0.0050  0.0951
15431W        W31048   1.429  16.325  15.706  0.1171  0.2233 -0.5794
15432W        W31049   9.039   4.399   4.692 -0.0452 -0.4118 -0.3270
15433W        W31050   1.989   9.733  10.463  0.2031  0.0518  0.0286
15434W        W31051   9.641   4.968  14.503 -0.0219  0.3019 -0.1874
15435W        W31052  14.817   8.742  10.625 -0.0842 -0.0558  0.1074
15436W        W31053  15.316  16.299   5.003  0.2350  0.2862 -0.0181
15437W        W31054  10.237  10.907  14.054 -0.1602 -0.0928 -0.3085
15438W        W31055   7.446   2.290  15.503 -0.1122 -0.2056  0.0199
15439W        W31056   6.623  16.511   4.899  0.1937 -0.0930 -0.2523
15440W        W31057  11.233   8.760   4.234 -0.0287 -0.2109 -0.0077
15441W        W31058   3.995  15.699   1.162 -0.2664  0.0709 -0.1342
15442W        W31059   0.436   4.859  14.632 -0.0295  0.1623  0.4229
15443W        W31060   0.506  18.135   0.452 -0.3929 -0.1353 -0.0475
15444W        W31061   9.768  10.808   2.576 -0.2356 -0.0424 -0.0577
15445W        W31062   9.540   7.888  13.405 -0.0223  0.0575  0.2100
15446W        W31063   4.330   3.754   1.314 -0.0070  0.0678  0.1389
15447W        W31064  15.749   0.660   0.148 -0.1614  0.1169  0.0299
15448W        W31065   6.447   5.352   3.153  0.4544 -0.3944 -0.2385
15449W        W31066   2.839   7.596  14.563 -0.1780 -0.1698  0.3351
15450W        W31067   8.371   0.513  11.647  0.2221  0.2142  0.1194
15451W        W31068   9.295   7.258   0.438 -0.3406 -0.1956  0.0875
15452W        W31069   2.910   4.751  10.760 -0.0426 -0.0871  0.0352
15453W        W31070   0.279   5.562   1.272 -0.2172 -0.0946  0.3174
15454W        W31071   0.700   2.463  12.845 -0.0592 -0.1730 -0.2029
15455W        W31072   1.661   5.692   4.954 -0.0714  0.0644  0.1886
15456W        W31073  15.284   1.434   3.476 -0.1035 -0.0916 -0.1138
15457W        W31074  12.124  14.782   3.996 -0.1838 -0.1974  0.0155
15458W        W31075   6.070  12.130  11.020  0.0817  0.1121 -0.1001
15459W        W31076   3.463  10.129   1.523  0.0200  0.0805 -0.2670
15460W        W31077  16.397  13.710   2.420  0.0274 -0.3010 -0.0459
15461W        W31078  16.299  10.593  13.282  0.2755  0.3472 -0.2595
15462W        W31079   6.920   5.995  12.682 -0.0778  0.0544  0.4377
15463W        W31080   1.426   8.833   2.723  0.0760  0.1382 -0.2794
15464W        W31081   7.504  12.449   3.192 -0.2522  0.1796 -0.0393
15465W        W31082   8.204   7.915  12.819  0.1791 -0.1120 -0.0046
15466W        W31083   8.282   9.074   4.935  0.0346  0.1561  0.2836
15467W        W31084  16.736   7.361  11.660 -0.0210 -0.0227  0.0233
15468W        W31085   9.824  18.026   3.760 -0.1042  0.1081  0.1167
15469W        W31086   0.915   2.169   0.128  0.2202 -0.1879 -0.1831
15470W        W31087  13.132   2.391   3.488  0.1820 -0.2305 -0.1212
15471W        W31088   8.822  11.058   3.303  0.0359  0.2656  0.1260
15472W        W31089  16.531  14.464   1.922  0.2785  0.1751 -0.0873
15473W        W31090   9.968   1.499  12.224  0.1473  0.0605  0.1086
15474W        W31091  15.216   1.626  14.898 -0.0057  0.0588  0.0337
15475W        W31092   6.914  16.808  10.847 -0.2110 -0.2132 -0.0979
15476W        W31093   3.358   0.299   1.761  0.3329 -0.0667  0.3469
15477W        W31094  13.511   9.237   2.531 -0.2665  0.1546  0.1738
15478W        W31095  11.217   3.483  15.763  0.2388 -0.0726  0.1519
15479W        W31096  11.567   6.870  13.984 -0.3525 -0.0534  0.3072
15480W        W31097   4.250  13.601   0.597 -0.1437  0.1452  0.0116
15481W        W31098  16.288   4.668   2.900  0.0219 -0.1359 -0.1055
15482W        W31099  15.306  14.802  14.708  0.3087  0.3163 -0.0721
15483W        W31100  17.631  16.445   1.075 -0.1849  0.0831  0.1176
15484W        W31101  13.186  10.321  14.232 -0.2169  0.1015  0.1052
15485W        W31102   2.011   0.200  11.171 -0.2106 -0.1197 -0.0492
15486W        W31103   5.723  12.500   3.481 -0.0374 -0.0591 -0.0685
15487W        W31104   8.782   7.657   0.186 -0.4662 -0.0328  0.2136
15488W        W31105   2.992   7.982   4.113  0.2469  0.2254 -0.2240
15489W        W31106  14.811  15.895  12.107  0.2933 -0.0403 -0.3054
15490W        W31107  10.562  10.401  13.257 -0.0510  0.4424  0.0401
15491W        W31108   0.324  17.371  14.101 -0.1964  0.1911  0.0606
15492W        W31109  14.092   0.530   3.419 -0.0904  0.0162  0.2988
15493W        W31110   2.029   3.202  13.976 -0.0453  0.0506  0.0131
15494W        W31111  13.685   9.107   2.094  0.0174  0.0388 -0.2831
15495W        W31112   0.039   4.690  15.270  0.0225 -0.1246  0.2230
15496W        W31113  12.517  10.915  13.789 -0.1161  0.0118 -0.2315
15497W        W31114  10.501   1.066   4.683 -0.1405 -0.3382  0.2875
15498W        W31115   3.943   4.447   3.432  0.0993 -0.0504  0.0167
15499W        W31116   0.395  13.874  12.085  0.0229  0.2626 -0.0327
15500W        W31117   3.141  18.601  11.124  0.0729  0.2306  0.3738
15501W        W31118  17.723   0.321  15.410 -0.1756 -0.3333  0.2448
15502W        W31119   9.100   8.369   0.181 -0.2058 -0.0696 -0.1274
15503W        W31120   6.096   4.893   4.573 -0.1393  0.0751  0.2054
15504W        W31121   5.476   6.524   2.701 -0.0945  0.1109 -0.3240
15505W        W31122   2.819   0.950   4.230  0.1621  0.3064 -0.1412
15506W        W31123   2.525   3.098  13.867 -0.0916 -0.2748  0.1008
15507W        W31124  12.919  13.622  12.017  0.0902  0.0642  0.2009
15508W        W31125  10.125   8.343   4.561 -0.3246 -0.1459 -0.1050
15509W        W31126  16.089   4.401   4.323  0.1123  0.0058 -0.1488
15510W        W31127   4.346   2.923  11.941  0.2169 -0.4145 -0.1510
15511W        W31128   9.249  11.709   2.266  0.0539 -0.1785  0.1329
15512W        W31129   1.594   5.109  13.202  0.4122  0.0677  0.1859
15513W        W31130   8.847  14.045  11.825  0.2413  0.1464  0.0708
15514W        W31131   8.006  12.209  13.812  0.1585  0.3966  0.1093
15515W        W31132  15.015   8.814   5.263 -0.1306  0.1120 -0.3840
15516W        W31133   1.398  16.420   1.397  0.1856  0.2741  0.2056
15517W        W31134  13.767   4.212   4.211 -0.1852  0.2285 -0.0138
15518W        W31135   5.135   5.781   4.922  0.0477  0.1681  0.1787
15519W        W31136  13.350   6.431   0.595 -0.2345 -0.1624  0.0322
15520W        W31137   3.096   2.338   4.965 -0.2153  0.0539  0.0204
15521W        W31138   6.701   9.363  11.542 -0.0453 -0.0517 -0.2341
15522W        W31139   3.484   2.279   4.611  0.3809  0.2731 -0.1895
15523W        W31140   4.535  13.075  15.704 -0.0355  0.1946  0.0078
15524W        W31141   6.382   7.809   3.540 -0.0192 -0.2491  0.1810
15525W        W31142   3.563   2.852  10.012 -0.1265 -0.5853  0.1727
15526W        W31143   5.679  13.022  13.841  0.1722 -0.1449 -0.0630
15527W        W31144  14.201   7.746  15.330 -0.0320 -0.1860 -0.0191
15528W        W31145  16.054  18.454   0.482 -0.0219 -0.0397 -0.2382
15529W        W31146   4.871   2.167  14.617 -0.1479  0.0263  0.1221
15530W        W31147   7.268  16.266   2.411 -0.1459 -0.1340  0.3872
15531W        W31148  11.946   8.843  11.352 -0.0344  0.3137  0.0887
15532W        W31149   1.439  11.439   1.961  0.2062  0.0680 -0.1497
15533W        W31150  13.454  13.065  12.442 -0.1246 -0.2733 -0.1772
15534W        W31151  12.455   1.264  12.588 -0.1127  0.2940 -0.2266
15535W        W31152   9.981  15.067   2.166  0.0457  0.0107  0.1307
15536W        W31153   3.485  12.154  11.684  0.4981 -0.0859 -0.3250
15537W        W31154  12.633  12.774   4.267  0.1424  0.2441 -0.0989
15538W        W31155   0.139  10.736  10.476 -0.1246 -0.1161 -0.0207
15539W        W31156  10.506  13.488  11.544 -0.0366 -0.1614  0.1196
15540W        W31157  16.801   9.796   0.817 -0.1424 -0.0080 -0.3394
15541W        W31158   5.624  16.183  13.031 -0.1913 -0.1294 -0.1780
15542W        W31159  11.976   1.597  13.208  0.0219 -0.2857  0.0131
15543W        W31160   6.731   7.395  13.339  0.0007 -0.0021 -0.3068
15544W        W31161   0.008   7.947  13.257 -0.1014 -0.3803  0.0154
15545W        W31162  10.372   4.774  14.738 -0.1491 -0.0799  0.3419
15546W        W31163  10.743   1.272   1.864  0.4654 -0.2353  0.2048
15547W        W31164   6.784  10.762   5.138 -0.0523  0.1848 -0.0575
15548W        W31165  12.340   9.218  13.359  0.1445  0.2723 -0.0840
15549W        W31166   0.241   5.073   4.334  0.1156 -0.0108  0.2356
15550W        W31167  15.726   9.688   1.727 -0.0573 -0.1266  0.0169
15551W        W31168  17.583  15.972   0.286 -0.0096  0.0266 -0.1144
15552W        W31169   1.001   2.889  10.854 -0.0244  0.3646 -0.3682
15553W        W31170  14.692  11.117   2.062  0.0220  0.1724  0.1664
15554W        W31171   5.057  15.424   3.383  0.1355  0.0386  0.0713
15555W        W31172   1.315   2.742  13.234 -0.1026 -0.4897  0.1619
15556W        W31173  15.562  10.797   1.949 -0.1389  0.0943  0.1800
15557W        W31174   2.428   8.040   4.066 -0.0049 -0.3337 -0.5111
15558W        W31175  14.072  10.683  14.225  0.0831  0.0741 -0.2162
15559W        W31176  12.628  15.940  13.992 -0.0889  0.2117  0.2581
15560W        W31177   6.364   6.808   3.757 -0.2527 -0.0034  0.1734
15561W        W31178  10.153  15.853  13.646 -0.1023  0.3352 -0.1679
15562W        W31179  12.859   7.708  14.943 -0.1906  0.0151  0.1477
15563W        W31180   0.770  10.262  13.315  0.0009  0.1683 -0.0626
15564W        W31181  16.997   2.590  11.480 -0.2768  0.2619  0.0076
15565W        W31182   0.427  15.019   4.725 -0.1620 -0.3107 -0.0784
15566W        W31183  10.797  11.747  14.753  0.2671  0.2738 -0.6300
15567W        W31184   0.224   3.497  10.784  0.0315 -0.1464  0.0610
15568W        W31185   8.570  15.935  12.340 -0.3358  0.0197 -0.2448
15569W        W31186  11.871   8.734   4.850 -0.1710 -0.0133  0.2591
15570W        W31187   5.187   3.825  13.157 -0.0072 -0.0944  0.0673
15571W        W31188   9.882   8.363   2.354  0.0957  0.3172  0.0035
15572W        W31189   3.085   3.811  11.799 -0.1159  0.0364 -0.1937
15573W        W31190  16.639  17.893   1.801 -0.0547  0.1573 -0.2717
15574W        W31191  11.480  17.981   4.043  0.2440 -0.0267  0.1181
15575W        W31192   5.831   6.671  14.707 -0.0493 -0.0338  0.0230
15576W        W31193  13.938   1.662   1.646  0.1135 -0.1951  0.6191
15577W        W31194   0.485  12.188   1.082  0.0797 -0.1092 -0.1142
15578W        W31195   2.608  15.895  11.574  0.2502 -0.2209 -0.1256
15579W        W31196   1.008   1.672  12.964 -0.0168  0.0583  0.1377
15580W        W31197   8.541   5.163   0.593  0.2293  0.1685  0.3302
15581W        W31198   7.470   2.357   4.426 -0.2705  0.1064 -0.0295
15582W        W31199   3.125   1.311  10.998  0.0350  0.0212  0.0216
15583W        W31200   3.860  10.205   0.610  0.0970  0.1746  0.0362
15584W        W31201   6.980   5.717   5.645 -0.1001 -0.0658 -0.2953
15585W        W31202  14.161  11.409   5.558  0.0960  0.0414 -0.4859
15586W        W31203   4.504   6.536   4.920  0.2031  0.1819  0.0835
15587W        W31204  13.050  12.441   4.263  0.0201  0.0621  0.2832
15588W        W31205   1.523   7.428   1.189 -0.3202 -0.1251  0.0428
15589W        W31206   0.598  11.486   2.294  0.1714 -0.4640  0.0790
15590W        W31207  10.362  17.219   1.974 -0.1796  0.0693  0.2332
15591W        W31208   3.097  14.279   2.483 -0.2770 -0.0241  0.2364
15592W        W31209  14.800   4.350  13.936 -0.0441  0.3213  0.2353
15593W        W31210  13.229   9.785  10.598  0.1228  0.2178 -0.0078
15594W        W31211  14.630  12.201   2.366  0.0814  0.1578 -0.0012
15595W        W31212  14.197  13.114  13.118  0.0206  0.0268 -0.0960
15596W        W31213   9.497   9.657  10.977  0.2112 -0.2215 -0.4443
15597W        W31214   9.131   8.056  14.006 -0.2698 -0.0892  0.0959
15598W        W31215   3.852   5.063   0.568  0.2322 -0.1201  0.2153
15599W        W31216  10.664  16.278   4.291 -0.1029 -0.0331 -0.1857
15600W        W31217   7.855   4.945   2.572 -0.1785  0.1014 -0.1441
15601W        W31218   5.799   8.844  12.210 -0.4048 -0.0951  0.2932
15602W        W31219  15.145  13.378   0.946  0.0775 -0.0004 -0.2673
15603W        W31220  10.450  15.554   4.524 -0.0406  0.3204  0.0053
15604W        W31221   7.463  10.392  11.800  0.0392  0.0038  0.0915
15605W        W31222   5.702  13.432  11.107 -0.1195 -0.0754 -0.0809
15606W        W31223  18.161  17.513  12.691  0.1410 -0.1593  0.1993
15607W        W31224  14.413   9.932  12.944 -0.1593  0.1684 -0.2820
15608W        W31225  18.287   9.120  10.996  0.2488  0.1768 -0.1911
15609W        W31226   2.026  12.056   5.147  0.0010 -0.1330 -0.3475
15610W        W31227  11.392  16.622  12.236  0.0986  0.1993 -0.1095
15611W        W31228   3.892   9.601  12.784 -0.1678  0.2061 -0.0923
15612W        W31229   9.478   2.118  12.258  0.1020 -0.1623 -0.1529
15613W        W31230  13.885  17.258   0.716 -0.0786 -0.1907  0.0513
15614W        W31231  14.005   5.615  15.428  0.1603  0.2612 -0.3347
15615W        W31232   4.149   1.457  14.781 -0.0041  0.1161 -0.0158
15616W        W31233  10.075  14.214   1.602 -0.1573 -0.0854 -0.0981
15617W        W31234   8.021   4.458   4.824  0.0351 -0.0321 -0.1480
15618W        W31235   4.834   3.588   0.113 -0.1116 -0.0757  0.0619
15619W        W31236   8.868  14.972  11.477  0.0419  0.2458  0.0242
15620W        W31237   8.478  10.858   1.385  0.0338  0.0022  0.1329
15621W        W31238  16.720  10.784   5.272 -0.0751 -0.1075 -0.0028
15622W        W31239  18.161  15.630   5.654  0.0100 -0.1878 -0.0465
15623W        W31240  11.514   7.876   2.264 -0.4197  0.0077 -0.2195
15624W        W31241  10.683   6.415  11.467  0.0259  0.0755  0.0012
15625W        W31242   8.824   7.370  11.800  0.2046  0.1649  0.0157
15626W        W31243  16.131   2.324   1.533  0.0720  0.2003 -0.0062
15627W        W31244  18.332   6.356   3.246 -0.1493 -0.2383  0.3886
15628W        W31245   1.668   2.125   1.957  0.4649  0.1521 -0.3294
15629W        W31246  14.976  16.822  11.333  0.1123 -0.1180 -0.3283
15630W        W31247  12.834  15.642   3.253  0.1419  0.1251  0.2024
15631W        W31248   6.986  11.555  10.081  0.0257  0.0717  0.0052
15632W        W31249   2.890   4.312   4.607 -0.0271 -0.0801  0.1109
15633W        W31250   9.712   7.733  12.956  0.1275  0.0483  0.0440
15634W        W31251   8.074  10.649  13.603 -0.1142  0.0323 -0.0257
15635W        W31252   0.572   0.422   3.385 -0.5268  0.0627  0.0594
15636W        W31253   5.927  18.561  15.668  0.1617 -0.1331  0.1045
15637W        W31254   9.727  17.707   2.431 -0.1311 -0.0906  0.1230
15638W        W31255  14.904  13.993  11.418  0.0223 -0.0501  0.0060
15639W        W31256  13.708  15.597   1.303  0.0885 -0.0870 -0.2584
15640W        W31257  17.725  12.197  14.421  0.3636  0.2026  0.0032
15641W        W31258  11.393  14.519   2.632 -0.0483  0.0930 -0.2173
15642W        W31259  11.767   6.727   5.460  0.3104 -0.1406  0.5112
15643W        W31260  12.764  17.307  11.036  0.0750  0.0823 -0.1942
15644W        W31261  11.389  13.482  11.080 -0.1485 -0.1751  0.0405
15645W        W31262  11.998   9.627   0.671  0.1408  0.1422 -0.0498
15646W        W31263   7.218  14.805   0.107 -0.0256  0.2105  0.0531
15647W        W31264  17.940  14.266   1.924 -0.5229  0.1071  0.1403
15648W        W31265   3.049  17.398   1.273 -0.0096  0.0357 -0.1655
15649W        W31266   8.981  14.638  11.848  0.1643  0.4196  0.0848
15650W        W31267  13.192  13.904   5.010  0.1663  0.1976 -0.1186
15651W        W31268  18.541   8.413  14.187 -0.0737 -0.0654  0.2785
15652W        W31269   0.132   6.870  12.311 -0.1181 -0.2340 -0.0386
15653W        W31270   7.575   8.483  11.537  0.0218  0.0391 -0.0902
15654W        W31271  15.446  18.453   5.542 -0.1762 -0.2345  0.2414
15655W        W31272   3.482  13.943   0.848 -0.2690  0.2847  0.1250
15656W        W31273  17.873  14.874   3.393  0.4258 -0.0246 -0.2748
15657W        W31274   2.970  10.576  11.040  0.0687  0.1631  0.2486
15658W        W31275   6.227  16.581  13.800  0.2132  0.0680 -0.1785
15659W        W31276   8.998   8.110   3.169  0.0599 -0.0684 -0.1626
15660W        W31277   9.164  18.127  12.992 -0.2216 -0.2520  0.0406
15661W        W31278   5.960  18.191   4.505  0.3529  0.3653 -0.0460
15662W        W31279   8.773  11.661  12.639  0.2029  0.1038 -0.1649
15663W        W31280   0.116  13.713  10.641  0.0021  0.1207 -0.0735
15664W        W31281  14.794  10.039   2.660  0.1733  0.0261  0.1369
15665W        W31282  10.387   3.328   1.516 -0.1281  0.1374 -0.0137
15666W        W31283   2.963   4.539   5.053 -0.2772 -0.0407  0.3126
15667W        W31284  15.086  16.422   0.216 -0.2622 -0.0676 -0.0191
15668W        W31285  12.009  18.401  10.956 -0.0558  0.3621  0.1548
15669W        W31286  11.804   8.904  11.916  0.2863  0.2818  0.2101
15670W        W31287   6.631  14.514  15.573 -0.3981 -0.0037 -0.2940
15671W        W31288   7.524  15.148  12.900  0.2427 -0.0592 -0.0680
15672W        W31289   9.016   3.997   4.129  0.0932 -0.2540 -0.0454
15673W        W31290   3.056   1.676   4.807 -0.1743 -0.1379  0.1729
15674W        W31291  16.319  13.959  11.878 -0.1451  0.2628  0.0319
15675W        W31292  16.904  11.282  11.622  0.0387 -0.0978 -0.1821
15676W        W31293   5.110  16.369   1.988  0.0719  0.0531  0.1238
15677W        W31294   7.839  13.416  10.607 -0.1363 -0.0692  0.2733
15678W        W31295  16.143   4.434   1.686  0.1512 -0.0223 -0.2360
15679W        W31296  10.603   8.570   3.269  0.0089  0.1019  0.1088
15680W        W31297  11.105   6.881  14.888 -0.0985  0.1697 -0.0185
15681W        W31298  14.958  14.477   0.132  0.2007 -0.1439  0.0311
15682W        W31299   2.168   9.918  15.529  0.1342  0.0937  0.0843
15683W        W31300  12.307  18.376  12.436  0.1487  0.1355  0.2125
15684W        W31301   2.096   2.943   5.877  0.2486 -0.2529  0.3820
15685W        W31302  10.929   4.730  11.440 -0.0466  0.1458  0.2303
15686W        W31303  14.942   1.067   3.969  0.0067  0.1477 -0.3380
15687W        W31304  14.871   6.439  15.439 -0.6165  0.4763 -0.3315
15688W        W31305  10.740  12.650  14.644  0.0611 -0.4723  0.2057
15689W        W31306   9.813   1.453   1.869  0.1350  0.0725 -0.0952
15690W        W31307  10.906   4.070   2.459 -0.1345  0.0337 -0.2090
15691W        W31308   4.952   5.603  12.387  0.0922  0.0046  0.3862
15692W        W31309   0.799  11.553  12.105  0.1612 -0.4015  0.0086
15693W        W31310  14.064   7.238  12.294  0.0008  0.1209 -0.0184
15694W        W31311  11.340  12.284   4.130 -0.2094 -0.0164 -0.2355
15695W        W31312   5.098  14.476  11.641  0.2806 -0.1324  0.1392
15696W        W31313   8.696  15.127  15.094 -0.3983  0.1089  0.1396
15697W        W31314   3.403  15.589  12.433 -0.4557 -0.0331 -0.0668
15698W        W31315   6.189  15.215   3.984 -0.3602 -0.0098 -0.4347
15699W        W31316   9.615   1.415   3.689  0.0322  0.0794  0.1204
15700W        W31317   5.772  10.519   2.225 -0.3725 -0.0347 -0.1015
15701W        W31318  11.051   6.830   0.734 -0.0154  0.0081 -0.2521
15702W        W31319   5.819  13.604  14.367 -0.0843 -0.1775  0.4019
15703W        W31320   8.513  14.049   2.174 -0.2375 -0.0264  0.0161
15704W        W31321  18.454   4.605  15.685 -0.0038 -0.0080 -0.2072
15705W        W31322   5.573  12.184  10.944 -0.0407 -0.2084 -0.0179
15706W        W31323   3.755   7.137   0.192 -0.0405  0.0709  0.0944
15707W        W31324  17.386   5.684  11.648  0.1376 -0.3215 -0.1474
15708W        W31325   3.515   0.108  11.969 -0.0711 -0.4024  0.1237
15709W        W31326  11.421   0.466  15.228  0.1834  0.0585  0.0438
15710W        W31327  14.728  15.528  13.803  0.0739 -0.1023  0.1744
15711W        W31328  12.593   6.799  14.328 -0.1406 -0.1200 -0.5130
15712W        W31329   7.076  11.283  12.327 -0.1099  0.0578  0.1421
15713W        W31330  18.507  15.737   4.703 -0.1056  0.0255  0.0301
15714W        W31331   7.340  13.946   4.930  0.1242  0.1721  0.0565
15715W        W31332  13.941  14.447   0.062  0.0652 -0.1266 -0.0038
15716W        W31333   8.779   3.251  13.835  0.1064  0.3176  0.2299
15717W        W31334   9.020   9.814   0.357 -0.2724 -0.1013  0.2517
15718W        W31335  11.025  12.338   2.666  0.1837  0.1725 -0.0751
15719W        W31336  13.287   5.134   2.536 -0.2810  0.0946 -0.1681
15720W        W31337   4.900   5.344   5.408 -0.0924  0.1064 -0.2220
15721W        W31338  11.380  10.658  10.891 -0.1251  0.1665  0.0198
15722W        W31339   6.550   4.845   3.070 -0.1605  0.1175  0.0595
15723W        W31340   1.617  15.833  13.368 -0.0939 -0.0764 -0.1683
15724W        W31341  18.422   5.844   1.417 -0.3297 -0.0921  0.2072
15725W        W31342  13.748  13.354  11.515  0.1835 -0.1947 -0.1362
15726W        W31343  14.017  13.352   3.701  0.0444  0.3752 -0.0550
15727W        W31344  11.501  14.763   4.395  0.2897 -0.2164 -0.0523
15728W        W31345  10.710   2.631   3.943 -0.2299 -0.0397  0.0075
15729W        W31346   2.934   3.757   1.336  0.0651  0.2445 -0.0578
15730W        W31347  13.614   3.637  14.680  0.1350 -0.2910  0.1076
15731W        W31348  14.777   7.045  13.620 -0.0111  0.2216  0.1978
15732W        W31349   4.361   4.505   1.797 -0.5240 -0.0553 -0.3114
15733W        W31350   9.538  13.968   2.938  0.1274 -0.0464  0.0952
15734W        W31351   4.479   8.945  12.449 -0.1148  0.1490 -0.1695
15735W        W31352   4.944   8.569   4.279  0.0864 -0.3002  0.1432
15736W        W31353   7.581  15.625   3.405  0.0271  0.0208  0.0846
15737W        W31354   8.936  14.707   3.267 -0.1022 -0.2242 -0.1287
15738W        W31355   1.465   5.067   3.530  0.1575 -0.0570  0.1972
15739W        W31356   9.986  15.581  13.264  0.1042 -0.1422 -0.1813
15740W        W31357  16.300  11.547   4.348 -0.0073  0.1730  0.1554
15741W        W31358   4.783   0.800  12.635  0.4044 -0.4427  0.0034
15742W        W31359   6.423   4.526  13.960 -0.2356  0.1389  0.2568
15743W        W31360  11.500  17.741   0.225  0.0142  0.1857  0.5030
15744W        W31361  12.528   1.713   3.208  0.3649  0.0915 -0.2679
15745W        W31362  15.752   6.960  13.310 -0.0544 -0.0709  0.1996
15746W        W31363  12.662  12.478  14.254  0.0516 -0.2025 -0.0152
15747W        W31364   6.114   8.826  13.352 -0.2172 -0.1015  0.1736
15748W        W31365   9.700  11.755  11.238 -0.1979  0.1309 -0.0358
15749W        W31366   2.554   3.868  10.718  0.0766 -0.1942  0.0336
15750W        W31367  10.083   8.771  14.873 -0.1415  0.0238  0.1131
15751W        W31368   8.283  18.203   0.392  0.2255  0.3343  0.1307
15752W        W31369   6.623  17.138   1.271 -0.0152  0.0282  0.0168
15753W        W31370  10.194  15.088   3.049 -0.1050  0.1502  0.0021
15754W        W31371  10.845  15.925  15.088  0.1607 -0.0955 -0.0028
15755W        W31372  11.959  18.459  11.803 -0.1552  0.1655  0.0118
15756W        W31373  17.490  15.810   4.818 -0.0958  0.1794  0.2599
15757W        W31374  11.280   5.303  12.274 -0.1662  0.4516 -0.0201
15758W        W31375  13.152   6.684  15.377  0.0740  0.0959  0.1383
15759W        W31376  14.498  18.509  11.661 -0.1017  0.0403 -0.0296
15760W        W31377   9.511  12.447  10.256 -0.3383  0.4072 -0.1064
15761W        W31378   1.087   0.708   0.539  0.1115 -0.2321 -0.1164
15762W        W31379  14.540  15.388   3.439  0.0619 -0.0486  0.2045
15763W        W31380   9.059  10.748  12.612 -0.0759  0.2170  0.2109
15764W        W31381   8.194   1.436  12.638 -0.2977 -0.1607 -0.3132
15765W        W31382   0.524   4.509  14.986  0.6881 -0.0820  0.3603
15766W        W31383  17.013   0.084  13.678  0.1247 -0.4362 -0.0599
15767W        W31384  10.038   4.915   4.459 -0.0706 -0.2609  0.4346
15768W        W31385  14.426  15.275   1.082 -0.1394 -0.0202 -0.0911
15769W        W31386   6.974   7.673  11.560  0.0623 -0.0682 -0.1367
15770W        W31387  17.517   9.266   1.415 -0.2860 -0.3420  0.1828
15771W        W31388  14.833   6.384   4.144 -0.0620  0.2618  0.0670
15772W        W31389  10.164  14.272  14.729 -0.3055 -0.2059 -0.0368
15773W        W31390   7.832   5.975   0.337 -0.0477 -0.1783  0.1805
15774W        W31391  18.188   5.134   1.975 -0.1485  0.1297 -0.0002
15775W        W31392  17.282   2.823   2.271  0.0316 -0.2356 -0.2954
15776W        W31393   4.690   3.682   1.696  0.2283  0.1362  0.2868
15777W        W31394   7.632   2.816   5.593 -0.1733 -0.0814  0.2120
15778W        W31395  18.396   8.875  11.417 -0.1271  0.2135 -0.0849
15779W        W31396   3.829   0.755  14.222  0.0093 -0.2120 -0.0597
15780W        W31397   4.643   9.465  11.196 -0.1114  0.4190 -0.1684
15781W        W31398  14.151   7.039   2.007 -0.1042 -0.0101 -0.1909
15782W        W31399  16.777   6.756   4.294 -0.2441  0.0138 -0.0851
15783W        W31400   6.075   0.585   1.519 -0.1120  0.0002 -0.0880
15784W        W31401   4.388   5.677   4.348 -0.2370 -0.1566  0.2123
15785W        W31402  14.269  12.221   1.525 -0.0847  0.1043 -0.2769
15786W        W31403  11.712   9.365  12.236  0.1358  0.1476  0.4239
15787W        W31404   5.212   3.020  14.701 -0.2408 -0.3679 -0.3223
15788W        W31405  16.093  12.781   3.671 -0.0003 -0.0492 -0.0126
15789W        W31406  17.610   1.498  12.071  0.2033 -0.3784 -0.0548
15790W        W31407   0.386  17.446   1.149  0.0659 -0.0108 -0.1637
15791W        W31408   0.277  11.263  11.896  0.1790  0.2035  0.1134
15792W        W31409  13.743   3.641   1.075 -0.0188  0.1500 -0.0356
15793W        W31410   6.467   3.531  13.014  0.0619  0.0775  0.0485
15794W        W31411   1.150   4.649   3.805 -0.0552 -0.1870  0.2471
15795W        W31412  13.223  15.799   1.180  0.1482 -0.0907 -0.1832
15796W        W31413  17.534   1.891  11.232 -0.2218 -0.2336 -0.2306
15797W        W31414  11.419  17.710  11.454  0.2468  0.1267 -0.2790
15798W        W31415  18.643   4.123   1.333  0.1634 -0.3541 -0.0168
15799W        W31416  11.233  10.298  14.548  0.3557  0.0513  0.1453
15800W        W31417   3.782   9.599  13.380 -0.0323  0.0217  0.1349
15801W        W31418  12.787  13.047  15.112 -0.0232  0.1817 -0.0177
15802W        W31419   0.902   4.229   4.029 -0.1607 -0.0389  0.0705
15803W        W31420   4.083  18.435  12.757 -0.1225  0.0979 -0.2017
15804W        W31421   7.053   8.701  12.898  0.0926 -0.0252  0.3959
15805W        W31422   7.663  12.366  15.174  0.2223 -0.0064 -0.1103
15806W        W31423   2.015  14.542  12.760  0.0341 -0.0253  0.4848
15807W        W31424   3.128  15.213  15.215 -0.1385  0.0260  0.0567
15808W        W31425  12.876   3.485   6.113  0.0237  0.2452  0.2058
15809W        W31426  13.954   6.262   2.212 -0.2800  0.2699 -0.2433
15810W        W31427   0.608   5.171   3.116  0.0530 -0.0378 -0.0152
15811W        W31428  11.935  18.303  15.534 -0.0309 -0.1918  0.1915
15812W        W31429   9.809   7.117   2.646 -0.1846 -0.1044  0.2192
15813W        W31430   4.933   9.876   1.471  0.0427 -0.3800 -0.1879
15814W        W31431  10.000  10.878   4.460 -0.2914  0.0471 -0.5708
15815W        W31432  10.562  14.905  10.670 -0.2587  0.0463  0.1711
15816W        W31433   6.899   2.122  15.694 -0.1314  0.0349 -0.2277
15817W        W31434   7.412   0.561   1.740  0.1165  0.2843 -0.0095
15818W        W31435   2.662   5.738   4.715 -0.2188 -0.3600 -0.1878
15819W        W31436   3.661  10.499   1.242 -0.0907  0.0907 -0.0004
15820W        W31437   3.477   8.017  14.290 -0.0057 -0.3230  0.1075
15821W        W31438   3.903   3.198   0.616  0.2573 -0.0476 -0.0391
15822W        W31439   4.572   8.907   4.922  0.0705  0.1782 -0.2491
15823W        W31440  17.905   0.199  13.186 -0.2183  0.0547  0.0031
15824W        W31441   0.024   9.758   1.316 -0.1228 -0.0764  0.0572
15825W        W31442   3.643   7.186  12.863 -0.0295 -0.0203  0.0097
15826W        W31443   2.864   3.816  15.588 -0.1330 -0.3772  0.1410
15827W        W31444  17.557  14.116   4.512  0.3171 -0.0396  0.2138
15828W        W31445   7.646   3.851   4.453  0.2937 -0.2093  0.0238
15829W        W31446  10.364   1.948  15.274 -0.0891  0.0433 -0.2619
15830W        W31447   5.151   0.655   3.533  0.0760  0.1861 -0.0724
15831W        W31448  16.030  11.387  11.050  0.3068  0.2950 -0.2242
15832W        W31449   6.598  18.008  12.293 -0.0108  0.1259 -0.1408
15833W        W31450  14.367   4.359  12.568  0.2283 -0.0755 -0.2827
15834W        W31451  11.900   0.846   3.965 -0.2377  0.0301 -0.0189
15835W        W31452  13.338   3.218   5.298 -0.0041 -0.0775  0.1296
15836W        W31453  18.078   4.800  14.519 -0.2647  0.0074  0.0883
15837W        W31454   4.214  12.586   2.518  0.0162  0.2376  0.0928
15838W        W31455  13.250  10.535  13.557  0.4321  0.0847 -0.1761
15839W        W31456  17.848   4.410  12.778  0.0451  0.1025  0.1217
15840W        W31457  12.119   5.905  12.361  0.0531 -0.1895  0.1292
15841W        W31458  18.327   6.125  14.538 -0.1360 -0.0091  0.0026
15842W        W31459  10.476   0.508  14.060 -0.3304  0.0761  0.0835
15843W        W31460   2.566   1.122  11.091  0.0323 -0.1508 -0.1049
15844W        W31461   7.452   8.844   3.748 -0.2366 -0.0466 -0.0738
15845W        W31462   5.190   0.550  14.759 -0.2626 -0.0238 -0.1896
15846W        W31463  14.489   6.055   3.243 -0.0720 -0.0468  0.3796
15847W        W31464  16.894  16.739   2.752  0.1874  0.4883 -0.4753
15848W        W31465   2.660   1.730  12.801 -0.1320 -0.2286  0.1148
15849W        W31466   5.039  18.539  15.397 -0.1011  0.2089  0.0849
15850W        W31467  16.051  10.288  12.327 -0.3229  0.0002  0.0141
15851W        W31468  13.665  10.840  12.846 -0.0948 -0.1324 -0.0376
15852W        W31469   6.939   7.281   1.926  0.0631  0.1455  0.0457
15853W        W31470  15.155   8.273  10.621  0.3826 -0.0649  0.0240
15854W        W31471  17.885   7.663  14.709 -0.0480  0.2454  0.1579
15855W        W31472   0.972  16.999  12.152 -0.2144 -0.2559 -0.0007
15856W        W31473  13.293   7.545   5.408  0.2877 -0.0217 -0.2306
15857W        W31474  10.828   8.635   0.006  0.1034  0.4418 -0.2859
15858W        W31475   6.220   7.944   3.072 -0.0787 -0.0360  0.0390
15859W        W31476  17.889   2.406   3.040 -0.0677 -0.0164  0.2472
15860W        W31477   8.431   0.876  11.173 -0.1141 -0.2431  0.1081
15861W        W31478   5.496  17.854  14.305 -0.1119 -0.2582  0.0025
15862W        W31479   5.593   7.111   1.747  0.2025 -0.1525  0.1988
15863W        W31480  14.400  16.104   2.323 -0.0175 -0.0023 -0.3982
15864W        W31481   3.818  10.452  11.934  0.2451 -0.0111  0.2029
15865W        W31482  14.683   4.141   3.742 -0.0383 -0.1141 -0.1231
15866W        W31483   0.144   9.309   1.793  0.0559  0.0999  0.4252
15867W        W31484   6.535  11.959   1.979  0.3477  0.0454 -0.0246
15868W        W31485   9.419   1.362  13.669 -0.2093 -0.0077  0.1159
15869W        W31486  11.789   6.462   4.010 -0.2270 -0.1972 -0.1804
15870W        W31487  15.327   2.224  15.692 -0.1526 -0.2054 -0.2997
15871W        W31488  14.740  15.893  12.566 -0.0809 -0.2502 -0.2876
15872W        W31489  12.416   3.718   1.527 -0.4060  0.3584  0.0246
15873W        W31490   4.530   5.012   1.690  0.2136 -0.0175 -0.2998
15874W        W31491   0.885  17.298  12.940  0.2552 -0.0379 -0.0182
15875W        W31492  12.740   5.231   2.692  0.3606 -0.2302  0.2666
15876W        W31493  13.092  15.481   4.092 -0.0350  0.1051  0.0067
15877W        W31494   0.313  14.374   2.549  0.0966  0.4773  0.4415
15878W        W31495  14.709   8.623   5.737 -0.5078  0.1902  0.4441
15879W        W31496  13.109   9.425  14.479 -0.1575 -0.4121 -0.2681
15880W        W31497  10.753   5.521  14.448  0.1044  0.1477 -0.0905
15881W        W31498   0.759   0.208   5.275 -0.2217 -0.0831 -0.1380
15882W        W31499  15.042  16.426  14.738  0.0841  0.3212  0.1022
15883W        W31500   1.987   1.943  11.395  0.1344  0.2883  0.2627
15884W        W31501  12.621   8.001   4.202 -0.1512 -0.2123  0.1140
15885W        W31502  10.805   7.799  15.229  0.0241 -0.3002 -0.1020
15886W        W31503   4.954   6.818   3.378  0.0031  0.0763 -0.0025
15887W        W31504   6.993   4.583   2.248  0.0629  0.0122 -0.1748
15888W        W31505   8.074   4.887   5.184 -0.0089 -0.0751 -0.2379
15889W        W31506  16.010  15.715  13.086 -0.0967 -0.3060 -0.0070
15890W        W31507  10.003   0.782  14.019  0.0474  0.1760  0.0107
15891W        W31508   0.493  15.161  14.560 -0.2665 -0.3252  0.3528
15892W        W31509  10.375  12.449   4.958  0.0053 -0.0969 -0.1338
15893W        W31510  16.825  17.091   2.255 -0.0650 -0.0010 -0.1657
15894W        W31511  12.508   2.841   1.340  0.2363  0.0686  0.0877
15895W        W31512  17.888   8.228  15.375  0.1248 -0.1458 -0.2834
15896W        W31513   9.778  10.820  12.764 -0.2315 -0.1946 -0.0926
15897W        W31514   9.584  15.213  13.007  0.0504  0.2614 -0.0117
15898W        W31515   6.084   0.593  12.889  0.4567  0.0592 -0.2965
15899W        W31516  13.572  11.091   3.646 -0.2582  0.1161  0.2285
15900W        W31517  14.136  16.314   3.519  0.0169 -0.1818  0.1493
15901W        W31518   6.949  14.824   0.558  0.4677  0.4203 -0.2273
15902W        W31519  10.785  16.103   0.757 -0.1118  0.0050 -0.1258
15903W        W31520  16.785  12.229   1.106 -0.2897  0.0284 -0.2351
15904W        W31521  10.974   0.621   5.442 -0.0922  0.5314  0.2088
15905W        W31522   2.094   1.073  14.073 -0.1268 -0.2352  0.1048
15906W        W31523   2.103  10.875  13.805 -0.3758 -0.1508  0.3076
15907W        W31524   5.397   1.880  13.391 -0.0892  0.1326 -0.0602
15908W        W31525  17.652   0.849  15.258  0.0312  0.1018  0.2629
15909W        W31526  17.138  11.892   2.765  0.0359 -0.0668  0.0949
15910W        W31527   8.751   3.881   0.942  0.1583 -0.0625  0.2995
15911W        W31528  11.992  12.437  13.073 -0.0017  0.0484 -0.0694
15912W        W31529  14.736   9.964   4.642 -0.0572 -0.0228 -0.1135
15913W        W31530   2.496   3.554   5.241 -0.0106  0.2513  0.2434
15914W        W31531   2.821   2.584   2.805 -0.1184  0.0278 -0.0464
15915W        W31532   9.370  13.481   2.974  0.1323 -0.1608  0.0649
15916W        W31533  13.013  16.713   2.763 -0.0435 -0.3327  0.2371
15917W        W31534   5.853   0.062  13.830  0.0602  0.0805 -0.1430
15918W        W31535   0.951  11.650  14.877  0.2504 -0.0685  0.0049
15919W        W31536   5.795   9.600   3.227  0.0416 -0.2139  0.1137
15920W        W31537  10.756   5.901  15.313  0.1720 -0.2346  0.1766
15921W        W31538  17.524   4.543   0.878 -0.0068  0.4724  0.1136
15922W        W31539   5.354   4.495   3.660 -0.1176  0.2637 -0.0491
15923W        W31540   1.684  11.505  12.562 -0.0354  0.2042  0.0457
15924W        W31541  17.049  15.905   2.168  0.0661  0.1156 -0.2040
15925W        W31542   0.450   6.828  11.076 -0.0484  0.1876 -0.1456
15926W        W31543  15.636  17.881   2.062  0.1813  0.4601  0.1657
15927W        W31544   9.425   5.430   1.854 -0.2368 -0.1560  0.1331
15928W        W31545  14.349  17.087   5.040  0.2488 -0.3522 -0.0445
15929W        W31546   6.105  13.432  12.261 -0.0450 -0.0801  0.0774
15930W        W31547   6.898  10.681  12.245 -0.1777  0.0944 -0.0742
15931W        W31548  17.152   9.838  11.828  0.2226 -0.1319 -0.2443
15932W        W31549   6.986   2.389  14.225  0.2202  0.4777  0.1796
15933W        W31550  16.320   3.232   1.297 -0.2852 -0.1522  0.1096
15934W        W31551   2.776   9.743   3.706  0.1708  0.1070  0.1017
15935W        W31552   3.516   5.038   5.450 -0.0230 -0.1187 -0.0837
15936W        W31553   6.984   2.600   5.020 -0.2212 -0.0908 -0.1493
15937W        W31554   8.633   1.280   5.241  0.1801 -0.0751 -0.1908
15938W        W31555   8.635  11.737   9.624  0.0104 -0.0047 -0.1379
15939W        W31556  14.737   5.965  11.191 -0.0891  0.2767 -0.0361
15940W        W31557   5.300  11.882   1.156 -0.2040 -0.0988  0.0056
15941W        W31558   4.453   7.034   1.299  0.3529 -0.1483  0.0138
15942W        W31559   0.417  18.225   3.299  0.0250 -0.1088 -0.2806
15943W        W31560  13.499  18.301   5.193  0.1956  0.0110  0.1698
15944W        W31561  10.838   7.780   0.243  0.0362  0.3690  0.0308
15945W        W31562   8.039  11.335   3.954  0.1060 -0.0492 -0.1627
15946W        W31563   3.567   2.165  14.908  0.2201  0.0406  0.2578
15947W        W31564   7.241  17.029  13.151  0.1373  0.1634 -0.2633
15948W        W31565   7.491  16.868   1.661  0.1387  0.0236  0.2652
15949W        W31566  15.056   7.170   4.509  0.2983  0.0429 -0.0989
15950W        W31567   6.033  13.955  10.975 -0.0119  0.0031 -0.1574
15951W        W31568  13.730   1.090  13.513 -0.1480 -0.2051 -0.0820
15952W        W31569  15.995   3.407   0.941  0.2273 -0.3916  0.0528
15953W        W31570  16.737  14.105  13.106  0.2417  0.3289  0.0790
15954W        W31571  11.264  12.443  13.040 -0.1484 -0.0977  0.2435
15955W        W31572  16.483  12.721  13.365  0.2976 -0.1619 -0.2613
15956W        W31573   2.085   3.879   0.219 -0.2557 -0.1708 -0.1595
15957W        W31574   8.224   4.385  15.718 -0.0368  0.2962  0.2290
15958W        W31575  18.591   1.130  11.104 -0.1153  0.0423 -0.5000
15959W        W31576  15.109   5.589   0.750 -0.1434  0.3058 -0.1775
15960W        W31577   5.501  15.846  12.677  0.0059 -0.2136 -0.2176
15961W        W31578   2.506   3.385   4.227 -0.3091 -0.2257 -0.0618
15962W        W31579   7.741   1.136  11.034  0.1092  0.1266  0.0246
15963W        W31580  15.815  12.840   0.904 -0.1020  0.1645 -0.1497
15964W        W31581   3.580   0.052  11.373  0.0437 -0.1028  0.0948
15965W        W31582  17.743   0.291   3.853 -0.0522 -0.1236  0.2271
15966W        W31583   5.090  16.789   1.144 -0.3477 -0.1221  0.1313
15967W        W31584  13.623   5.731   3.504 -0.1149 -0.1233  0.0351
15968W        W31585   6.872   4.471  13.649  0.2600 -0.2714 -0.1282
15969W        W31586  12.491  13.340   1.506 -0.3666  0.0954 -0.0166
15970W        W31587  18.092   0.308   5.666 -0.3092 -0.0929  0.1400
15971W        W31588  12.479   3.033   3.874 -0.2210 -0.1951 -0.0313
15972W        W31589  12.914  11.269   1.819 -0.0495  0.1579 -0.0488
15973W        W31590   2.454   0.603  11.677 -0.2740 -0.1143  0.0124
15974W        W31591   7.313   6.690   3.866 -0.1230 -0.1141  0.4441
15975W        W31592  11.721   2.186  14.262 -0.0054  0.4805  0.0422
15976W        W31593  16.738   0.198  15.754  0.0790 -0.1815  0.1035
15977W        W31594   3.641   9.613   3.777  0.1049 -0.0803 -0.0354
15978W        W31595   0.213   7.673   2.218 -0.0236 -0.1312 -0.0271
15979W        W31596  12.203   7.251  14.044  0.0864 -0.0365 -0.2377
15980W        W31597   0.635   3.338   2.773  0.0661 -0.2678  0.2357
15981W        W31598  10.990   1.740  15.588  0.0492 -0.2453  0.0692
15982W        W31599  15.674   5.404  15.522 -0.1517 -0.1896  0.3876
15983W        W31600   5.607  12.146  15.136  0.0322  0.0672  0.1722
15984W        W31601   8.708   7.935  11.982  0.4333  0.1360  0.2993
15985W        W31602   5.306   4.380  13.153 -0.2429 -0.3183 -0.0725
15986W        W31603   3.408  10.805   1.550 -0.1715  0.5178 -0.0873
15987W        W31604  11.913   3.698   2.280 -0.3060 -0.1073  0.2028
15988W        W31605   5.520  17.147   1.957 -0.0825 -0.1838  0.1676
15989W        W31606  10.093  11.101  12.289 -0.0355 -0.1176 -0.2301
15990W        W31607   2.565   4.899   3.306  0.3832  0.2769  0.1792
15991W        W31608   2.182  15.622   3.957 -0.1537  0.3714 -0.1588
15992W        W31609   2.323  12.988  14.320 -0.1100  0.1966  0.1848
15993W        W31610   6.221   3.706   0.563 -0.3752 -0.2548  0.1368
15994W        W31611   1.047   6.817   1.660 -0.1222  0.3552 -0.0979
15995W        W31612   2.423   8.723   2.460  0.1348 -0.0930  0.0246
15996W        W31613   0.624  10.257   2.544  0.1695  0.0177  0.1502
15997W        W31614  15.088  14.253   2.195  0.0205 -0.0061  0.0138
15998W        W31615   6.911   7.531   3.507  0.0399  0.1972 -0.2847
15999W        W31616  15.235  14.644   5.128  0.3118 -0.0026  0.0396
16000W        W31617   9.392  12.589   0.358 -0.0999 -0.3617  0.1238
16001W        W31618  12.503   3.523  12.384 -0.1547  0.2076 -0.2248
16002W        W31619  17.179   7.043  13.371 -0.0975  0.0640 -0.2946
16003W        W31620  11.711   3.002  11.272 -0.0053 -0.0541  0.4169
16004W        W31621  16.189  13.024   4.106 -0.1701  0.4125  0.1375
16005W        W31622   6.165   3.161  13.169 -0.1414  0.3501  0.2154
16006W        W31623  11.926   5.700   1.908  0.0742  0.2398 -0.3946
16007W        W31624   3.052  10.241   4.250  0.0841 -0.3258  0.0797
16008W        W31625   4.235   2.379   2.886  0.3256 -0.2022  0.1080
16009W        W31626   2.099  13.199  13.418 -0.0586  0.1169 -0.1064
16010W        W31627  14.368   2.704   0.062 -0.0285 -0.0623 -0.0938
16011W        W31628   2.807  14.580   1.708 -0.0627  0.1859  0.0547
16012W        W31629   8.468   8.942  14.056  0.1709  0.1581  0.0369
16013W        W31630  10.823   5.715   0.014 -0.2753 -0.0347  0.1375
16014W        W31631  13.033   1.586   2.647  0.0644 -0.1012  0.0543
16015W        W31632   0.603   2.217   3.535 -0.1455 -0.1083  0.2536
16016W        W31633  13.449   2.441  13.350 -0.0778 -0.1342 -0.1426
16017W        W31634  10.974  16.727   4.459 -0.1055  0.3327 -0.1001
16018W        W31635  14.928   7.831  10.872 -0.2047  0.0389 -0.2446
16019W        W31636   3.248  13.100  10.618  0.1633  0.1155  0.1110
16020W        W31637   5.230   3.406   0.417  0.0629 -0.2674  0.0936
16021W        W31638   3.790   7.650   3.155  0.1811 -0.1025  0.1913
16022W        W31639   0.418  11.683  11.704  0.4408  0.1794  0.0882
16023W        W31640  15.441   8.593   1.818  0.1893  0.2171 -0.1971
16024W        W31641  11.348  17.185   2.848 -0.2896  0.2171 -0.0740
16025W        W31642   0.129  10.577  14.510  0.1321 -0.0697 -0.1452
16026W        W31643   4.278  10.995  14.110 -0.1452  0.0117  0.0328
16027W        W31644   2.146   5.671   1.656 -0.5572 -0.2277  0.0205
16028W        W31645  10.889  15.805  11.129  0.0648 -0.3750 -0.6382
16029W        W31646   7.583  11.935  13.766 -0.0560 -0.0664 -0.0802
16030W        W31647   6.809  16.877  14.450 -0.2360 -0.1458  0.1513
16031W        W31648  18.077   1.355  15.069 -0.1191 -0.2309  0.1238
16032W        W31649  10.299  16.750   5.006 -0.2331 -0.0592 -0.3919
16033W        W31650   6.416   5.997   1.888  0.1375  0.1936  0.0670
16034W        W31651   6.171  12.061  14.280  0.3484  0.0297 -0.0700
16035W        W31652  15.763  11.102   1.389  0.0111 -0.1939 -0.0918
16036W        W31653  13.469  13.314   3.392  0.4132 -0.2304  0.0663
16037W        W31654  14.702  12.522  13.746  0.2637 -0.0998  0.2294
16038W        W31655   6.796   7.063   4.627  0.1836 -0.2034 -0.0748
16039W        W31656  15.473   9.048  13.115 -0.0119  0.1954  0.0402
16040W        W31657  15.847   7.120  11.544  0.2507  0.0493  0.0856
16041W        W31658   4.613   4.826  11.914 -0.0087 -0.1811 -0.1997
16042W        W31659   6.915   7.147   0.131  0.1106  0.0531 -0.1978
16043W        W31660  18.275   2.459  12.904  0.1444  0.1693 -0.0976
16044W        W31661   2.167   1.710  14.739 -0.1706  0.0497 -0.1470
16045W        W31662   3.815   1.442  11.424 -0.0645 -0.1502  0.0150
16046W        W31663  13.063   7.172  11.297 -0.0425  0.0502 -0.2195
16047W        W31664  11.128  14.639  13.768 -0.1362  0.3541 -0.1941
16048W        W31665  13.037   0.408  13.314  0.3549 -0.2430 -0.0327
16049W        W31666   6.564  16.481  11.815 -0.3124  0.0199 -0.2052
16050W        W31667  11.256  16.240  10.713 -0.0313  0.1253  0.1149
16051W        W31668   1.975   7.701   3.755  0.0735 -0.1442 -0.0498
16052W        W31669   7.819   6.301   1.521 -0.3886 -0.3931 -0.0865
16053W        W31670   5.501   7.547  13.147  0.1175 -0.1919 -0.0041
16054W        W31671   8.819   5.775  15.762  0.2324  0.0318 -0.0876
16055W        W31672  14.595  16.733  11.654  0.3174  0.1130  0.4966
16056W        W31673   6.424   7.838   4.105 -0.0456 -0.4376  0.1200
16057W        W31674  10.505   9.478  11.752 -0.4930  0.0118  0.2122
16058W        W31675  13.243   7.798  12.427 -0.1007  0.2043  0.1040
16059W        W31676   3.545   1.983  11.265 -0.0928 -0.1115 -0.1877
16060W        W31677  17.877  13.872   4.785  0.1943 -0.0248  0.0596
16061W        W31678   2.551   3.628   2.585 -0.0725 -0.0623  0.1678
16062W        W31679  11.505  12.479   1.718 -0.0123  0.0653  0.0542
16063W        W31680  18.544  11.945   2.660 -0.2443  0.4156 -0.1480
16064W        W31681  17.395   8.072  12.750 -0.1646 -0.0682 -0.1747
16065W        W31682  13.465  14.705  11.165  0.1150 -0.1889 -0.0622
16066W        W31683   4.943   6.637   0.236  0.2624 -0.1582  0.0331
16067W        W31684  16.686  17.734   4.381 -0.1027  0.2367 -0.1365
16068W        W31685   2.374   7.526   5.297 -0.1068  0.1392 -0.2307
16069W        W31686   2.509  15.648   4.382 -0.0807  0.1978 -0.0971
16070W        W31687   6.149   3.163   2.812  0.0252 -0.0909 -0.1765
16071W        W31688  18.203   8.026   0.893 -0.1338 -0.0431 -0.2180
16072W        W31689   7.641  14.242   2.878 -0.2160 -0.2802 -0.2286
16073W        W31690   9.818  14.457  10.913 -0.0718  0.2301  0.0294
16074W        W31691  12.985  15.487   2.748  0.0383 -0.0917 -0.0732
16075W        W31692   5.377   8.185  13.667 -0.2367  0.1173 -0.0611
16076W        W31693  17.728  11.894  12.895 -0.1605 -0.0793  0.2568
16077W        W31694   4.599   5.720  15.730  0.0053 -0.3023 -0.2473
16078W        W31695   5.128  15.922   5.555 -0.1900 -0.1665 -0.4566
16079W        W31696  17.738   2.462  15.635  0.0773  0.0315  0.1302
16080W        W31697  16.665   1.062   1.630 -0.0083  0.1316 -0.0144
16081W        W31698   9.625   7.540  14.666 -0.0747  0.1145  0.1507
16082W        W31699   6.535  13.888   3.670  0.2693  0.1779 -0.2122
16083W        W31700   6.911  12.531  13.528 -0.0051 -0.1951  0.0507
16084W        W31701  17.617   2.151  12.159 -0.1310 -0.1744  0.0180
16085W        W31702  11.950   7.888   4.152  0.1047 -0.1599  0.0579
16086W        W31703   6.889   3.406  14.005 -0.0146  0.1084 -0.1606
16087W        W31704   6.496  13.481  12.944  0.0055  0.0322  0.2348
16088W        W31705  13.411   6.534  13.573  0.2305  0.3015 -0.1614
16089W        W31706  10.265   6.530  14.431  0.2053  0.2316  0.1146
16090W        W31707  11.564   4.071   4.156  0.2762  0.3618 -0.2383
16091W        W31708   8.303  15.135  13.628  0.0081 -0.0488 -0.3661
16092W        W31709  13.412  11.127   1.586  0.1026  0.1126  0.0496
16093W        W31710  16.721  17.818  12.184 -0.1935 -0.1664  0.0986
16094W        W31711   5.794  16.026   3.277 -0.1933 -0.2226 -0.2029
16095W        W31712   1.947   0.683  13.630 -0.2257 -0.2669 -0.1051
16096W        W31713  13.095   7.618  13.392  0.2696  0.0874  0.0346
16097W        W31714  17.508  18.121   0.728 -0.1407 -0.1759  0.0489
16098W        W31715  16.260   7.550   3.142  0.1597 -0.1885 -0.1676
16099W        W31716   4.075   1.318  15.537  0.1312 -0.0118 -0.0841
16100W        W31717  11.703   3.787   1.735  0.1242  0.0063  0.0076
16101W        W31718  10.300   7.403   5.338 -0.0631  0.1263 -0.3015
16102W        W31719  13.196   6.777   4.129 -0.1083  0.1806 -0.0166
16103W        W31720  11.890   4.594   5.289  0.0186 -0.1845 -0.0618
16104W        W31721   0.304  10.360   2.984 -0.0897 -0.2771  0.1758
16105W        W31722   2.278  12.840  11.454  0.1220  0.2359 -0.1613
16106W        W31723  16.028  10.539   2.138 -0.5361 -0.0872 -0.2430
16107W        W31724   0.001  15.325   4.891 -0.1191 -0.1921  0.1565
16108W        W31725   7.631  12.542   4.148 -0.4414 -0.0980  0.0255
16109W        W31726  12.062   2.298   5.043 -0.0768 -0.1386  0.2568
16110W        W31727  11.120  14.451  15.274 -0.2214  0.2595 -0.3530
16111W        W31728  16.916  12.924  13.523  0.3731 -0.1750 -0.2173
16112W        W31729   0.729  16.351  10.460 -0.0290 -0.2870 -0.0633
16113W        W31730  12.949  12.486   9.850 -0.0784 -0.0504  0.0653
16114W        W31731  12.947   1.467   4.913  0.0490  0.2366 -0.4030
16115W        W31732  13.335  14.988   3.979  0.1419 -0.5119  0.0048
16116W        W31733   3.238  13.168  11.764  0.1155 -0.1746  0.1050
16117W        W31734   1.756  15.373  11.834 -0.0296 -0.0663 -0.0663
16118W        W31735   8.114  17.454   3.461 -0.2111 -0.0698 -0.0339
16119W        W31736   9.580  13.293   3.387 -0.1048  0.0571 -0.1741
16120W        W31737   5.236  17.400   3.937 -0.1081 -0.2165  0.5689
16121W        W31738  13.701  18.618   3.030 -0.1251 -0.1344  0.3775
16122W        W31739   7.600  14.718   3.668  0.2062  0.2110  0.3258
16123W        W31740   3.479  13.717   3.697  0.0908 -0.1782 -0.1259
16124W        W31741  12.075  12.944  10.879  0.0789 -0.1239 -0.3381
16125W        W31742   6.789  14.362   5.096 -0.1728  0.2072 -0.2408
16126W        W31743   8.310   2.747   4.992  0.1283  0.4758 -0.1875
16127W        W31744   3.492  14.074  11.590 -0.0551 -0.3663 -0.1601
16128W        W31745  14.456   2.983   2.249 -0.1396  0.2224 -0.0536
16129W        W31746   3.594   4.470  13.820  0.1639 -0.1147 -0.0058
16130W        W31747   1.609  13.565   2.990  0.1764  0.1032  0.3048
16131W        W31748  11.600   3.302   4.187 -0.1011  0.1834  0.1412
16132W        W31749  18.622   3.936  11.605  0.2001  0.0733 -0.5541
16133W        W31750  17.695  15.523   4.447 -0.1163  0.1879 -0.0392
16134W        W31751   9.122   6.664   4.590  0.0993  0.1708  0.3044
16135W        W31752  13.366  15.502  11.967  0.2027 -0.1290 -0.1510
16136W        W31753  17.056  16.388   4.984 -0.4654 -0.0977  0.0918
16137W        W31754  10.906  15.598   0.675 -0.2459  0.0145  0.1431
16138W        W31755  15.376   9.100  14.292  0.0567 -0.4160  0.0153
16139W        W31756  18.081  13.482  14.381 -0.1444 -0.2315 -0.0487
16140W        W31757   5.830   4.455  13.181 -0.2581 -0.1822 -0.0175
16141W        W31758  14.280   1.608   3.286  0.0162 -0.0867 -0.4974
16142W        W31759   2.336  13.532  13.127  0.1912  0.0986  0.0329
16143W        W31760   4.529  18.308   4.719 -0.1332  0.2088  0.1333
16144W        W31761  14.563  15.503  12.305 -0.0527  0.0805 -0.0187
16145W        W31762  11.611   8.744  13.631  0.0318  0.0184 -0.0973
16146W        W31763   6.158   1.747  15.269  0.1287  0.0899  0.1059
16147W        W31764  17.074  10.224  10.438  0.0111  0.1712 -0.0453
16148W        W31765   9.495   3.794  14.249  0.3020  0.3423  0.1470
16149W        W31766  18.051  10.400   4.224  0.0869  0.2301 -0.1224
16150W        W31767   4.046  17.737  13.555  0.0601 -0.1290 -0.2826
16151W        W31768  15.402   9.597  11.009  0.1853  0.3596 -0.0429
16152W        W31769   1.222   0.015  11.822 -0.0035  0.1441  0.3688
16153W        W31770   4.853  11.713   1.378 -0.1038 -0.0546 -0.0575
16154W        W31771  13.895   8.508   3.495 -0.1080 -0.0616  0.2304
16155W        W31772   0.009  13.674  12.366 -0.1429  0.1105 -0.0022
16156W        W31773   5.401  14.829   5.067 -0.0288 -0.2678 -0.1156
16157W        W31774  12.504   1.704   1.093  0.2217  0.0606 -0.2439
16158W        W31775  10.495   1.339   1.040  0.1015 -0.1810  0.0290
16159W        W31776  17.907   7.215  15.662 -0.2984 -0.4507  0.0994
16160W        W31777   6.745  18.058   4.857  0.2018  0.0309 -0.2739
16161W        W31778   6.060   2.022  14.256  0.3337 -0.0273  0.2093
16162W        W31779  12.390  12.009   0.697  0.0490  0.2989 -0.5243
16163W        W31780  11.168  18.552  15.676  0.0143 -0.0410 -0.0640
16164W        W31781   4.362  15.592  12.037 -0.0303 -0.1580 -0.4044
16165W        W31782  14.757  18.501  14.204 -0.0057 -0.3771 -0.2967
16166W        W31783  11.343   0.069  14.369  0.0127  0.3024 -0.3026
16167W        W31784   5.324  15.002   3.441 -0.1216 -0.1285 -0.0355
16168W        W31785   6.972  14.722  10.962 -0.0539 -0.2983  0.0370
16169W        W31786  12.965  14.539   4.104  0.0173  0.0503 -0.0196
16170W        W31787  17.716   0.420   6.039  0.0410  0.1936  0.0352
16171W        W31788  16.415  10.175   1.290 -0.2001  0.0046  0.3356
16172W        W31789   7.788   4.532   4.247 -0.1157 -0.0479 -0.1028
16173W        W31790   7.230  13.768  15.091  0.0168 -0.2406 -0.2128
16174W        W31791  13.329   3.223   4.216  0.1747  0.1691  0.1848
16175W        W31792   2.510   7.532   2.326  0.1198 -0.1415  0.1481
16176W        W31793  12.760  18.373  11.667  0.1060 -0.1052  0.2754
16177W        W31794   1.399  14.384  10.496 -0.0868 -0.3926 -0.1789
16178W        W31795   5.759   0.250   4.316  0.1177 -0.2751 -0.1002
16179W        W31796   2.638   8.944  11.814  0.1682  0.2653  0.1185
16180W        W31797  15.306   7.488   4.178  0.0774  0.0217  0.0944
16181W        W31798   0.718   0.078   1.670 -0.1324 -0.3078 -0.1796
16182W        W31799   8.860  17.820   4.310  0.2070  0.1998  0.0685
16183W        W31800   3.407   5.704   2.800 -0.0857 -0.1197 -0.0617
16184W        W31801  11.926   2.616  14.430  0.0826 -0.1813 -0.0364
16185W        W31802   4.043   6.418   0.386  0.1726  0.0848 -0.0066
16186W        W31803  17.171   9.482  13.913  0.0691  0.1220 -0.1033
16187W        W31804   5.321   2.479  13.955  0.2373  0.0519  0.0366
16188W        W31805   8.231   1.375  11.546 -0.0347 -0.0304 -0.0642
16189W        W31806  15.321   7.398  10.701  0.5435  0.1152  0.0977
16190W        W31807   6.992   0.903   3.812  0.0129  0.0402  0.2244
16191W        W31808  12.655   7.882  13.537  0.0263 -0.5853  0.0134
16192W        W31809  16.056  10.461   5.263 -0.1028 -0.1954  0.0823
16193W        W31810  10.080   5.159   2.680 -0.0585 -0.3565  0.2151
16194W        W31811   8.067  16.846   1.461 -0.4392 -0.0732 -0.1914
16195W        W31812  18.118   1.912   3.019  0.2412  0.1997 -0.0697
16196W        W31813   9.171   6.287  14.645  0.0979  0.1208  0.0012
16197W        W31814  12.742   3.331   2.157  0.0417 -0.1046  0.1345
16198W        W31815  18.637   1.387  11.743  0.0781  0.1841 -0.1678
16199W        W31816   9.485  10.624  15.296 -0.3677  0.0707 -0.1070
16200W        W31817  13.737   3.981  15.571 -0.1108 -0.1811 -0.1833
16201W        W31818   0.499  14.745  12.140  0.0270 -0.2580  0.2502
16202W        W31819   7.081  10.307   0.826 -0.1600 -0.0359 -0.0217
16203W        W31820   7.656  15.097   5.378  0.0110 -0.0109  0.1386
16204W        W31821   5.947  12.508  14.900  0.0513 -0.1847 -0.0134
16205W        W31822  10.560  18.442  14.177  0.1777  0.0788  0.2399
16206W        W31823  16.350  18.139   2.703 -0.2267  0.3078 -0.1221
16207W        W31824  10.909  13.543   4.071 -0.3738 -0.3187  0.1531
16208W        W31825   7.175   4.717  12.972 -0.0357  0.1615  0.2120
16209W        W31826   9.320   6.659   1.438  0.1552 -0.3254 -0.1357
16210W        W31827  17.439   8.164   0.408 -0.0608 -0.2978  0.0813
16211W        W31828   5.471  14.525  14.956  0.0804  0.3569 -0.0921
16212W        W31829  16.524   1.909   1.558  0.0494  0.1278 -0.1337
16213W        W31830   9.743   9.497  11.429 -0.3569 -0.3270  0.2567
16214W        W31831  12.819   9.878   4.873  0.0955  0.0537  0.1080
16215W        W31832   4.283  10.685   4.061 -0.0701 -0.2377 -0.0473
16216W        W31833   9.058  11.429  10.683 -0.1731 -0.0182  0.1171
16217W        W31834   0.628  10.761   6.125  0.1215  0.3709 -0.2574
16218W        W31835   9.666  17.185   4.286 -0.2652 -0.1873 -0.0414
16219W        W31836   9.970   7.551   5.682 -0.0015  0.0067  0.1349
16220W        W31837  17.803  15.406   0.914 -0.2468 -0.0257 -0.0183
16221W        W31838  12.161  13.215   4.202  0.1812  0.1736 -0.2417
16222W        W31839   3.500  10.394  14.379 -0.4497  0.0924  0.3679
16223W        W31840  11.408   0.889   2.438 -0.2936 -0.2645  0.3532
16224W        W31841  14.987  15.002  13.862 -0.0693  0.3580 -0.2073
16225W        W31842   4.328   4.228  11.806 -0.2722  0.1450 -0.2554
16226W        W31843   1.664  10.439  11.610  0.0565 -0.0500  0.0294
16227W        W31844   7.311  15.973   1.802  0.0589 -0.1415  0.2468
16228W        W31845  13.261   0.995   4.613  0.2669 -0.1645 -0.0099
16229W        W31846   6.965   0.179   5.268 -0.2677  0.0848 -0.2224
16230W        W31847  16.413  14.806  15.155  0.1380  0.1137 -0.0502
16231W        W31848   1.676  15.287  13.561  0.3596 -0.0410  0.2827
16232W        W31849  11.382  12.503  15.736  0.1671 -0.2775  0.1940
16233W        W31850  17.012  10.625   1.825  0.0529  0.1366  0.1291
16234W        W31851   8.980   8.421   1.155 -0.2287  0.1332  0.0933
16235W        W31852   6.541   8.078  15.274  0.1583  0.1267  0.0123
16236W        W31853  15.483  13.540  11.934 -0.1868 -0.1281 -0.3022
16237W        W31854  13.335   2.923  13.260 -0.0239 -0.2837  0.2713
16238W        W31855   2.963  16.217  15.080  0.0880 -0.4075  0.0161
16239W        W31856  14.668   6.952   4.818 -0.4126  0.0830  0.0304
16240W        W31857   1.994  10.764   3.469 -0.2736  0.1476 -0.0022
16241W        W31858   8.964   9.584  14.806  0.1138  0.0922  0.0232
16242W        W31859   2.719  13.784  12.706  0.1119 -0.0390 -0.3602
16243W        W31860   5.082  17.120  15.689  0.2015 -0.0871 -0.0842
16244W        W31861   3.340   1.527  11.398 -0.0864 -0.0967  0.3376
16245W        W31862  14.986   0.033   4.677  0.1627 -0.0746  0.2191
16246W        W31863  10.532  13.976   0.343  0.0033 -0.5051 -0.1658
16247W        W31864  11.057   0.641  11.890  0.0720  0.0353  0.0850
16248W        W31865  17.565   5.061  11.735 -0.1433  0.1034  0.0820
16249W        W31866  11.794   0.847   0.412  0.1822 -0.1120 -0.0278
16250W        W31867   9.530  16.204  10.849  0.4881 -0.4962  0.0403
16251W        W31868   2.416   3.154   0.365 -0.2438  0.2028 -0.0542
16252W        W31869  12.290   1.977  15.091  0.0594  0.0503 -0.2241
16253W        W31870   8.833  15.042  12.169 -0.0524 -0.0622 -0.0367
16254W        W31871   0.204   5.593   3.473 -0.4775 -0.0101 -0.1561
16255W        W31872  11.149  13.371  14.106  0.1075  0.1497  0.1095
16256W        W31873  18.523   1.534  12.365 -0.0215  0.0500  0.0430
16257W        W31874  14.923   9.992  11.821  0.4463 -0.3932 -0.1420
16258W        W31875  10.535   4.117   3.402 -0.1836  0.0209  0.3752
16259W        W31876   0.014  18.290   5.603  0.0717 -0.0924  0.0023
16260W        W31877  10.517  12.164  10.264 -0.0234  0.0883  0.0895
16261W        W31878   6.072   8.755   1.929  0.1147 -0.0779  0.2977
16262W        W31879  14.754  14.364  14.486  0.1785  0.0606 -0.0423
16263W        W31880  14.481   4.163   6.258 -0.3255  0.0418 -0.0341
16264W        W31881   9.044  16.004  12.566 -0.0641 -0.2877 -0.0813
16265W        W31882  18.552   1.433   0.789  0.1072 -0.1650 -0.0125
16266W        W31883  11.641  10.942  13.915 -0.0804  0.0401 -0.1596
16267W        W31884   7.875  12.733   4.618  0.1311 -0.0330 -0.1324
16268W        W31885   6.507  14.901  14.172 -0.0633  0.0156  0.0221
16269W        W31886   1.886  15.952   4.487 -0.0957  0.1073 -0.0470
16270W        W31887   3.616   7.965  15.493  0.3086  0.0970  0.0746
16271W        W31888   5.890  16.651  14.177 -0.0999 -0.0709 -0.4472
16272W        W31889  11.952   6.305   0.637  0.3420 -0.1531  0.2600
16273W        W31890   9.585   6.435  15.396 -0.2954 -0.0909 -0.0211
16274W        W31891  16.168  16.396   4.885 -0.2090  0.0480  0.1388
16275W        W31892   5.082   7.580   1.293 -0.0848 -0.0156 -0.0796
16276W        W31893  14.703  14.880  11.762  0.0928 -0.2632 -0.1306
16277W        W31894  15.672  18.487   3.140  0.1579 -0.3691  0.0144
16278W        W31895  12.254   0.801  14.851  0.1363 -0.0429 -0.0759
16279W        W31896  14.820  15.014  14.694 -0.4698 -0.0026  0.3477
16280W        W31897   0.611  14.429  15.249 -0.2475 -0.1476  0.0865
16281W        W31898   0.490   5.074   0.298 -0.1946 -0.0589 -0.1016
16282W        W31899  15.902  18.038   2.442  0.2966  0.1255  0.1128
16283W        W31900  16.929  12.131   4.646 -0.0603 -0.1114 -0.1820
16284W        W31901  10.022   6.337   4.416  0.2170  0.0110 -0.0883
16285W        W31902   9.860   3.624  14.942 -0.5316  0.1638  0.3576
16286W        W31903   4.736   2.289   4.426  0.1631  0.0141 -0.1032
16287W        W31904   9.178  15.700   4.656 -0.2359  0.1579  0.1766
16288W        W31905  14.082   5.666  12.531 -0.0173 -0.2389 -0.0310
16289W        W31906   5.913  13.912   1.090 -0.0952 -0.0676 -0.0263
16290W        W31907  14.765   0.474   4.957 -0.3408 -0.1428 -0.0907
16291W        W31908  15.800  14.369  14.145  0.2717  0.1612  0.1360
16292W        W31909   4.076  14.724   3.981 -0.0924 -0.1419 -0.3962
16293W        W31910   8.943  16.419   4.075 -0.1942  0.0148  0.0832
16294W        W31911  16.040  10.530  12.819  0.2950 -0.1393  0.4640
16295W        W31912   4.490  15.424  11.506  0.0996  0.0854 -0.1245
16296W        W31913   5.961   6.884   5.562  0.4436 -0.0893  0.0377
16297W        W31914   1.071  17.965   5.400  0.0844  0.1633  0.1511
16298W        W31915   6.519  17.579   4.973 -0.2996  0.4313  0.0883
16299W        W31916   2.772  15.959  11.084  0.1711  0.0277 -0.2260
16300W        W31917   2.118  13.756   2.966  0.4467  0.1686 -0.0333
16301W        W31918   4.544   9.941  11.003 -0.0852  0.2144  0.2194
16302W        W31919  13.273   8.762   1.882 -0.0460  0.1979 -0.0908
16303W        W31920   7.771  16.194  11.603 -0.2102 -0.0931 -0.1938
16304W        W31921   5.594   4.175   5.141 -0.3745 -0.1640 -0.0551
16305W        W31922  10.681   5.140  13.563  0.1486 -0.1933 -0.0025
16306W        W31923   4.727   8.448   4.722 -0.0031  0.0709 -0.4323
16307W        W31924   3.436  12.914  14.559 -0.3283  0.0429 -0.0386
16308W        W31925  17.011   8.293  11.347 -0.0594  0.2800  0.1621
16309W        W31926   0.570   8.652  12.639 -0.0669 -0.0530  0.2444
16310W        W31927  11.773   5.890   0.859  0.0926  0.2665 -0.1247
16311W        W31928  15.516   4.392   1.185  0.1756  0.2910  0.0096
16312W        W31929  13.556  17.453   0.360  0.0163 -0.2321  0.1131
16313W        W31930   6.703  11.998  15.345  0.0271 -0.1621 -0.2446
16314W        W31931   4.265  12.249   0.984 -0.2719  0.0252  0.1468
16315W        W31932   0.744   4.945   0.670 -0.0225 -0.0158  0.0106
16316W        W31933   1.242   2.418   4.155 -0.3390 -0.0292  0.2943
16317W        W31934   4.658   2.307   4.901  0.3130 -0.2591 -0.0281
16318W        W31935   5.972  10.713   1.831 -0.1642 -0.1052  0.0200
16319W        W31936   0.725   0.609  11.095 -0.0130  0.0670  0.2625
16320W        W31937   9.561   4.262   2.334  0.0994  0.0954 -0.1163
16321W        W31938  13.789  13.205   0.631  0.0478  0.0038 -0.1165
16322W        W31939   6.190  16.911   2.773  0.0994 -0.1629 -0.0877
16323W        W31940  12.230  17.239  15.711 -0.0256  0.2050  0.2166
16324W        W31941   5.236   4.572   3.164 -0.2629 -0.0560  0.2384
16325W        W31942  11.612  17.669  14.512 -0.0506 -0.1414  0.0200
16326W        W31943   6.200  17.315  11.785 -0.1640  0.1188 -0.1867
16327W        W31944   4.157   5.504  10.300  0.3065  0.3043 -0.1421
16328W        W31945  12.559  15.928  14.951  0.1480 -0.0331 -0.4257
16329W        W31946  14.825   0.419  12.106 -0.0060 -0.1069  0.2190
16330W        W31947  14.503  17.464   5.964  0.0523 -0.0273  0.0674
16331W        W31948   7.117  11.256  10.934 -0.1008  0.0798  0.0624
16332W        W31949   0.984  11.397   4.389  0.1319 -0.1699 -0.1282
16333W        W31950   0.762   8.373   2.043  0.1056  0.2252  0.1657
16334W        W31951   8.351   5.816  11.173  0.0122 -0.1533  0.0558
16335W        W31952   6.254  10.915  15.035  0.1022 -0.1195 -0.1381
16336W        W31953  15.530  11.999   0.150  0.1769  0.0392  0.0601
16337W        W31954   9.812   3.013   2.029 -0.0193 -0.0703  0.1076
16338W        W31955   2.909   9.688  11.124 -0.1292 -0.3682 -0.3652
16339W        W31956  11.533   6.087  15.220  0.2173  0.1318  0.1786
16340W        W31957   6.288  14.007  12.173  0.0557 -0.0121 -0.0770
16341W        W31958  11.623   1.216   1.944  0.0466 -0.1056 -0.2851
16342W        W31959   6.541   8.233  13.472  0.1215  0.0583  0.0317
16343W        W31960   5.718  12.365  11.393  0.0469  0.2553  0.2446
16344W        W31961   3.417   8.515   5.346  0.1882 -0.1021 -0.0236
16345W        W31962  11.804   1.698   2.104 -0.1787  0.1850 -0.0318
16346W        W31963   0.517   0.689   4.884  0.3703 -0.1231  0.1414
16347W        W31964   0.270   1.279  13.529  0.3017  0.0612  0.0778
16348W        W31965  12.554  18.193   3.980 -0.3036  0.3069 -0.0405
16349W        W31966  10.029   5.437   3.270  0.0167  0.3685 -0.0832
16350W        W31967   8.496   4.823  15.604  0.1364 -0.0567 -0.0363
16351W        W31968   1.677   5.247   0.302 -0.0693  0.1725  0.0399
16352W        W31969  15.860  18.242  14.924  0.0012  0.1353 -0.4283
16353W        W31970  11.289   9.257   2.979 -0.0077  0.1847  0.0654
16354W        W31971  13.135  13.105   0.253  0.0144  0.1276 -0.1321
16355W        W31972   7.931   3.461  10.183 -0.1964  0.3977 -0.0769
16356W        W31973   2.290   8.351  11.120  0.5597 -0.1213  0.1224
16357W        W31974   6.957  10.452   3.760 -0.0352  0.0090 -0.0760
16358W        W31975   2.096   8.185   3.774 -0.1972  0.0110  0.0162
16359W        W31976   4.939   9.691  12.495  0.0034 -0.3058 -0.1315
16360W        W31977   0.958   7.128  10.784  0.1945 -0.2406  0.1837
16361W        W31978  13.688   2.308  12.918 -0.2127  0.4796  0.1663
16362W        W31979   5.963  13.440  13.862 -0.2128  0.3970 -0.0398
16363W        W31980   5.869   2.337   1.829  0.4264 -0.1396 -0.1697
16364W        W31981   4.782  10.506   2.454 -0.0962 -0.0128 -0.1286
16365W        W31982   2.797  18.322  10.297  0.0972  0.4185  0.3282
16366W        W31983   9.110  16.778  13.095 -0.2449 -0.0834 -0.3278
16367W        W31984   5.481  15.643   4.006  0.2489  0.1611  0.1999
16368W        W31985   7.147   6.663   2.175  0.0938  0.0835  0.2740
16369W        W31986   2.729  11.616  15.719  0.0408  0.2401  0.0425
16370W        W31987   5.794   4.170  14.848 -0.4333 -0.1961 -0.3791
16371W        W31988  10.294   1.056  15.039  0.0762  0.0560  0.0465
16372W        W31989  16.640   7.740  14.572  0.2024  0.0136 -0.0699
16373W        W31990   4.091  16.288  11.138 -0.1103  0.2416 -0.3160
16374W        W31991  17.137   7.268  13.903  0.0437  0.0440  0.0650
16375W        W31992   0.258   5.707   2.511 -0.1406 -0.0357 -0.0522
16376W        W31993   4.599   3.967   3.870  0.0799  0.1313  0.2861
16377W        W31994   4.685   5.899   6.213  0.1189  0.2373  0.0952
16378W        W31995   5.631  14.821  11.293 -0.0541  0.1011  0.2052
16379W        W31996   5.540   6.928   3.947 -0.1831  0.0699 -0.1846
16380W        W31997   3.047  13.767  12.338  0.0066 -0.0493  0.0608
16381W        W31998  17.270   8.015   3.968 -0.1598  0.4656 -0.1542
16382W        W31999   1.113  16.326  11.635 -0.2209 -0.0471  0.2747
16383W        W32000  14.370  17.472   2.151  0.2415 -0.4345  0.0706
16384W        W32001   5.840   9.885  13.812  0.0200  0.0168  0.0777
16385W        W32002   8.923   3.488   4.458 -0.2952  0.2472  0.4911
16386W        W32003  13.575  15.694  15.536  0.2412  0.0197 -0.2347
16387W        W32004  13.132  13.372   1.702  0.0439 -0.0494  0.0836
16388W        W32005  10.292   8.732   0.880  0.3196  0.3210 -0.1757
16389W        W32006   8.103   2.956   4.563 -0.1130 -0.1641  0.1024
16390W        W32007   8.334   2.407   6.638 -0.0809 -0.0786  0.0182
16391W        W32008  18.172   9.794  11.675 -0.1317 -0.1098 -0.0004
16392W        W32009   4.992  12.409  13.331 -0.2908 -0.1666 -0.0418
16393W        W32010  15.888  14.114   0.337  0.0016 -0.1950 -0.0677
16394W        W32011   8.661  17.074  13.756 -0.1081  0.0612 -0.2428
16395W        W32012  10.108  12.080   2.807  0.1075 -0.2380 -0.1169
16396W        W32013   6.271   1.283   1.286  0.1451  0.5269 -0.0702
16397W        W32014  18.104   3.945   5.351 -0.0305 -0.2744  0.1403
16398W        W32015   6.574  18.177  15.759  0.1702 -0.1649  0.0929
16399W        W32016   9.494  14.068   5.057 -0.1391  0.3519  0.0122
16400W        W32017   1.448  11.679   0.209 -0.2103 -0.3020  0.1925
16401W        W32018   6.967  15.189  14.215  0.2394  0.2162 -0.1018
16402W        W32019  16.517  10.295  14.639 -0.0863 -0.3455  0.0154
16403W        W32020   7.619  11.947   3.280  0.2650 -0.0442  0.2937
16404W        W32021   8.391   7.153   5.019  0.4043  0.0989  0.1133
16405W        W32022  15.237   5.909   2.180 -0.0219  0.1071 -0.0895
16406W        W32023   0.464   4.120  13.350  0.3645 -0.0056  0.0045
16407W        W32024  15.762  13.049  12.207  0.0155 -0.0420 -0.0551
16408W        W32025   8.564  11.491  15.750  0.1191 -0.0409 -0.1173
16409W        W32026   9.277   1.223  12.609  0.0237 -0.0850  0.3103
16410W        W32027   6.269   5.997  15.746 -0.1141 -0.0770 -0.0187
16411W        W32028   4.653  16.917  14.285  0.0196 -0.0282 -0.0743
16412W        W32029  12.084   8.649   5.931 -0.4206 -0.2820  0.5399
16413W        W32030   9.006  10.910   1.106 -0.0142 -0.0181  0.1026
16414W        W32031   3.715  16.998  12.994 -0.3138 -0.1352 -0.0434
16415W        W32032  15.147  17.150  12.988 -0.4205  0.1144  0.1569
16416W        W32033   1.097   7.671   1.284  0.0222  0.2938  0.0662
16417W        W32034   2.531  16.423  14.840  0.1228  0.3336  0.0441
16418W        W32035  15.089  17.625   5.403 -0.2704  0.0712  0.0577
16419W        W32036   4.722   2.538  11.370 -0.3608  0.1109 -0.1429
16420W        W32037   7.069  10.371  11.463  0.2477  0.0168 -0.0696
16421W        W32038   0.134  14.301   5.176 -0.0033 -0.1357  0.0883
16422W        W32039  10.281  10.421   0.849  0.3696  0.1234  0.3867
16423W        W32040  15.553   0.532  14.023  0.2298  0.1348  0.1920
16424W        W32041  12.565  13.629   1.140  0.1931 -0.1159  0.1617
16425W        W32042  11.384   0.375  15.729 -0.2735 -0.1640  0.2924
16426W        W32043   2.239   7.770   3.308 -0.0664  0.0140 -0.3218
16427W        W32044   5.007   1.670  14.604  0.0392 -0.3954 -0.2517
16428W        W32045   8.702  11.293   2.743  0.0749  0.1319  0.1697
16429W        W32046   2.033   8.125  14.337 -0.0229  0.1887  0.1395
16430W        W32047  16.747   5.277  12.536  0.1147  0.0983  0.2273
16431W        W32048  12.233   6.398  14.308 -0.1325 -0.1403 -0.0131
16432W        W32049   2.524   3.656   0.477  0.0707  0.1941  0.0199
16433W        W32050   3.348  11.208   9.402  0.0741 -0.3994 -0.1002
16434W        W32051   3.829  11.268  14.102 -0.1310  0.1159  0.3721
16435W        W32052  10.193   2.398  11.859  0.0574  0.3592 -0.1311
16436W        W32053  18.062  15.878   1.839 -0.0267  0.0610  0.0346
16437W        W32054  17.180  10.074  13.110  0.2223  0.0849 -0.2205
16438W        W32055   9.574  11.608   1.844  0.2693  0.3593 -0.1729
16439W        W32056  17.670   9.173  13.805  0.2905  0.0788  0.0124
16440W        W32057   0.227  18.269   5.070 -0.0501 -0.0241 -0.1627
16441W        W32058   3.709  13.247   3.843  0.1523 -0.1089 -0.2039
16442W        W32059   2.491  17.251  13.131  0.1161  0.0745 -0.0903
16443W        W32060   0.435  17.980   1.165  0.0729  0.3836 -0.2506
16444W        W32061  12.982   3.140  12.870  0.1341  0.2030 -0.1870
16445W        W32062  12.828  13.479  15.389  0.0406 -0.2608  0.0273
16446W        W32063  12.306  10.644   1.211 -0.2899  0.0780  0.1236
16447W        W32064   4.101  18.025   0.715 -0.0228  0.2805 -0.0815
16448W        W32065  10.592  16.686   0.215  0.2089  0.0737 -0.1951
16449W        W32066  10.377  16.635  10.974 -0.1607  0.3070 -0.2378
16450W        W32067   2.398  18.513  12.102 -0.2933  0.1410  0.0337
16451W        W32068   3.947   9.305   3.572 -0.0752 -0.1784 -0.1996
16452W        W32069  15.788  13.238   5.006 -0.1945  0.0252  0.0699
16453W        W32070  16.613  13.001   3.061  0.2507 -0.0318  0.1624
16454W        W32071   2.086   3.458   0.744  0.2195 -0.4138 -0.4275
16455W        W32072   0.852  13.630   1.843 -0.0498  0.3825 -0.2285
16456W        W32073  11.982   3.516   3.278  0.2114 -0.0501  0.0792
16457W        W32074  12.179  16.379   3.358  0.2564 -0.1131 -0.0371
16458W        W32075   6.581  12.718   0.983  0.0010  0.1575  0.0424
16459W        W32076  16.107  15.498   0.202  0.1275  0.0641  0.2116
16460W        W32077  13.685   0.801  14.763 -0.1151  0.4571 -0.2390
16461W        W32078  11.612   2.524   5.204  0.3416  0.0137 -0.3300
16462W        W32079  13.298  10.438  12.576 -0.1675  0.2096 -0.2043
16463W        W32080  16.689   0.698  11.183 -0.2664 -0.1049  0.0729
16464W        W32081   9.043  17.846  15.626 -0.2388 -0.1488 -0.0698
16465W        W32082   3.725   5.187   1.087 -0.1016 -0.0196  0.0990
16466W        W32083   6.221  16.177   1.322  0.0069 -0.2262  0.3410
16467W        W32084   3.142  16.102  13.550 -0.0740 -0.2087 -0.3937
16468W        W32085  12.134  14.407   1.016 -0.0422  0.0355 -0.1153
16469W        W32086  15.547  12.741   3.044  0.2205 -0.0350 -0.2239
16470W        W32087  10.920  18.084  12.451 -0.2070 -0.2686  0.0699
16471W        W32088  16.705   8.911   0.734 -0.4509  0.0015  0.0688
16472W        W32089  11.147  10.777   4.466  0.3267 -0.0399  0.3532
16473W        W32090   7.869   3.023   2.497 -0.1818 -0.1947 -0.0493
16474W        W32091   4.031  12.540  15.040 -0.2361  0.0624 -0.1670
16475W        W32092  12.079  10.022  10.876  0.0060 -0.2872 -0.1403
16476W        W32093  16.026   3.331  13.788 -0.1583 -0.4160  0.0158
16477W        W32094  18.160  14.845  14.521 -0.0421  0.1270 -0.0538
16478W        W32095   9.589   2.609   1.296 -0.0154  0.1343  0.2645
16479W        W32096  14.883   2.793   6.230  0.2660 -0.0633 -0.1198
16480W        W32097  11.519   2.566   6.658 -0.0105  0.0949  0.1334
16481W        W32098   4.032  14.331  14.857  0.0294 -0.1073  0.2643
16482W        W32099   5.300   2.072  15.512 -0.2504 -0.0794 -0.0579
16483W        W32100  16.847  15.472   3.329 -0.1910 -0.0906  0.0031
16484W        W32101  16.118  12.150   3.620  0.2182 -0.1973  0.0071
16485W        W32102  14.260  15.910  12.276  0.1282 -0.2273 -0.2049
16486W        W32103  13.455   1.675   1.140  0.0017  0.1484 -0.3165
16487W        W32104  12.381  16.215   4.515  0.1336  0.0349  0.0923
16488W        W32105  10.233   9.008  11.786 -0.2985  0.1857  0.1747
16489W        W32106  14.055   6.653  15.028 -0.1557  0.1640 -0.3372
16490W        W32107   6.345   8.313   3.859  0.1149 -0.3672  0.1014
16491W        W32108   8.430   7.064   4.103  0.0070 -0.5751  0.0837
16492W        W32109   2.479  12.497   0.157  0.0358  0.0833 -0.0664
16493W        W32110   5.698  10.223   0.458 -0.0831 -0.3524  0.1391
16494W        W32111  11.233  15.408   3.134 -0.2998 -0.0802 -0.1923
16495W        W32112  16.234   3.504  15.485  0.0143 -0.5070 -0.1877
16496W        W32113  13.215   0.696  15.482 -0.0291 -0.2002 -0.0787
16497W        W32114   8.039   1.738   4.837 -0.0865  0.1311  0.0770
16498W        W32115   8.105  11.611  11.829 -0.0474  0.0698 -0.2154
16499W        W32116   5.520  13.716   1.365 -0.0063  0.0398  0.1599
16500W        W32117   6.410  13.622  14.249  0.0620  0.0477 -0.3946
16501W        W32118  16.309  15.839  11.568  0.0811  0.3408  0.0468
16502W        W32119   6.371   0.480  10.765  0.0134  0.1307 -0.0526
16503W        W32120   4.758   6.095  12.318  0.0037  0.1462  0.1891
16504W        W32121   3.294   5.824   2.337  0.1038 -0.1304  0.1832
16505W        W32122  16.574   3.296   3.643 -0.1109 -0.2301  0.2395
16506W        W32123   6.781  11.824  12.788 -0.3156  0.0930 -0.2065
16507W        W32124  11.699  15.036  11.093  0.0867 -0.0706 -0.0850
16508W        W32125   8.887  15.021   4.575  0.2869  0.0301  0.0754
16509W        W32126  10.317   9.483   2.186 -0.2569  0.1679 -0.0713
16510W        W32127  10.786  10.500   0.711 -0.1669 -0.1708 -0.2254
16511W        W32128  14.319   7.318   4.963  0.0215  0.0382 -0.2051
16512W        W32129   7.881   3.560   5.228  0.2159 -0.1543  0.3335
16513W        W32130  16.124   6.454  15.783  0.1658  0.0850 -0.1572
16514W        W32131   1.802  12.413  12.694 -0.0272 -0.1524 -0.0230
16515W        W32132   4.768  12.787   9.535 -0.1738  0.1300 -0.1238
16516W        W32133   5.279  10.490   0.573 -0.1316 -0.0893 -0.3323
16517W        W32134   7.525   8.024  10.822 -0.2797 -0.0313 -0.1987
16518W        W32135  10.316   4.363   3.036  0.0591 -0.0281  0.2887
16519W        W32136   8.616  11.695  10.627  0.2316 -0.2546 -0.1108
16520W        W32137   8.087   6.413   0.277  0.2581  0.1549 -0.1764
16521W        W32138   7.594  11.767  11.581 -0.0724  0.1766  0.1708
16522W        W32139  10.164   8.115   1.907 -0.0854  0.1803  0.3869
16523W        W32140  15.654   0.734   5.459  0.1481  0.2436 -0.1059
16524W        W32141  16.662  16.328  14.740  0.1047  0.3376  0.4358
16525W        W32142  12.200   2.134   0.998 -0.3209  0.1277 -0.0515
16526W        W32143   3.975   1.335   0.173 -0.0325  0.0180 -0.1914
16527W        W32144  12.624   4.423  14.028 -0.1039 -0.0387 -0.0143
16528W        W32145  14.864   8.117  12.636 -0.0139 -0.1007  0.1663
16529W        W32146   3.424   9.117   3.901  0.1529 -0.0632  0.2215
16530W        W32147   9.708  16.744   3.572  0.2872  0.0031 -0.1548
16531W        W32148  15.728  17.217   3.776 -0.0668  0.0813  0.0128
16532W        W32149  12.386   1.627   4.225 -0.1348 -0.0226 -0.0060
16533W        W32150   9.414  11.601  15.344  0.1390 -0.0885 -0.3502
16534W        W32151   2.429   9.419   3.501 -0.0765 -0.3059 -0.3425
16535W        W32152  14.755   4.884  11.236  0.3562  0.2769 -0.0562
16536W        W32153   8.264   1.852   5.754  0.2531 -0.1845 -0.2470
16537W        W32154  11.658   4.693   0.753  0.0886 -0.0569  0.0416
16538W        W32155  12.355  13.706  14.140 -0.0440 -0.1453 -0.2112
16539W        W32156  14.299   1.524   1.238 -0.2429  0.1300 -0.0292
16540W        W32157   8.612   3.213  15.190 -0.0981 -0.1298 -0.0539
16541W        W32158   0.539   5.000  15.089  0.0990 -0.1141 -0.2323
16542W        W32159   4.237   1.414   1.960  0.1476  0.3373  0.0266
16543W        W32160   1.193   8.660  14.059 -0.1583 -0.2869  0.1229
16544W        W32161   7.633  16.170   2.143 -0.1501 -0.0543  0.1132
16545W        W32162  14.678  12.175  15.472 -0.2039 -0.3257  0.0011
16546W        W32163  11.803  13.444   0.078 -0.1230 -0.0087  0.3330
16547W        W32164  11.651  12.234  13.397  0.3779 -0.2838  0.0137
16548W        W32165   2.818  16.812  14.679  0.1618 -0.0216 -0.0553
16549W        W32166   2.021  12.478  15.182 -0.2159 -0.0261 -0.0454
16550W        W32167   0.220  17.345   0.458  0.0627  0.2656 -0.0660
16551W        W32168  15.763  12.871  14.436 -0.1852 -0.1794  0.0437
16552W        W32169   9.665  13.486   4.183  0.1399 -0.1373 -0.1197
16553W        W32170   7.055  17.784  12.522 -0.2146  0.1986 -0.1191
16554W        W32171   2.619   1.194   0.493 -0.0401  0.3116  0.2965
16555W        W32172   5.794   2.607   0.999 -0.0037  0.0021  0.2670
16556W        W32173   6.647   4.417   2.807  0.0013 -0.2842 -0.1268
16557W        W32174  16.003   4.871  13.562  0.2480 -0.1087  0.0495
16558W        W32175  15.378  13.252   4.284  0.1275  0.6030 -0.1290
16559W        W32176  16.072   4.829   2.442 -0.2923 -0.3596 -0.1127
16560W        W32177   4.241   1.442   3.294  0.3264 -0.0417 -0.1445
16561W        W32178  11.226   8.081  11.293 -0.0001  0.1497  0.0031
16562W        W32179   2.967  15.821   3.388  0.2370  0.1622  0.1842
16563W        W32180   5.315   8.801   1.275 -0.0660  0.3046  0.0190
16564W        W32181  18.578  17.386  15.779  0.1375 -0.0923  0.2477
16565W        W32182   5.693  12.245  14.284  0.1242  0.0243  0.4264
16566W        W32183   3.404  18.204  14.945  0.0907 -0.0353 -0.0070
16567W        W32184  10.802   4.314   2.898 -0.2599 -0.5358  0.1068
16568W        W32185  14.444   8.664   1.828 -0.2764 -0.2247 -0.1560
16569W        W32186   8.802  10.102   0.031  0.1601 -0.1034  0.2564
16570W        W32187  12.551   6.719  10.182  0.0259 -0.1689 -0.1818
16571W        W32188   3.670   1.001  15.550  0.1523 -0.1060 -0.2419
16572W        W32189   7.319   9.498  13.658  0.3678 -0.2993  0.0742
16573W        W32190   9.756  18.494   2.064  0.1860 -0.3182  0.3239
16574W        W32191  14.891   8.265   1.308 -0.0348  0.0766  0.0842
16575W        W32192   2.203   6.796  14.811 -0.2421  0.0332  0.1367
16576W        W32193   2.731   0.092  11.818  0.0348  0.0600  0.0576
16577W        W32194   8.917  15.295  13.872  0.1704 -0.2261  0.0804
16578W        W32195   5.549  18.279  15.387 -0.1080  0.2251  0.0969
16579W        W32196   3.130   8.138   2.797 -0.0097 -0.4748  0.0435
16580W        W32197   6.808  18.336  15.336  0.2490  0.0998  0.0663
16581W        W32198   8.349   7.157   2.394 -0.0624  0.1103 -0.1370
16582W        W32199   2.738  15.704  13.487 -0.6421  0.2563 -0.0145
16583W        W32200  10.173   1.557  11.741 -0.1824  0.1736 -0.1097
16584W        W32201  10.339  10.700  15.503  0.0719  0.2601 -0.0578
16585W        W32202  12.601  14.344   3.337 -0.0720  0.0992 -0.1315
16586W        W32203   7.199   3.841  10.436 -0.3715 -0.0119 -0.1760
16587W        W32204  17.430  12.133   4.576  0.0683 -0.0211 -0.4664
16588W        W32205  18.249  13.340  13.185 -0.1864  0.1269 -0.1052
16589W        W32206   8.267   7.168  12.344 -0.2696 -0.0947 -0.2024
16590W        W32207  14.085   8.570  13.229 -0.1257  0.2758 -0.2567
16591W        W32208   8.623  10.147   0.658  0.2324 -0.2687  0.1430
16592W        W32209   9.209   5.438  13.323  0.0354  0.0201  0.1638
16593W        W32210   7.791  15.675  15.185 -0.1840 -0.1005  0.0046
16594W        W32211   0.768   7.456   0.438  0.0425  0.0704  0.2047
16595W        W32212  15.309  13.093   5.746  0.1085 -0.3546  0.0199
16596W        W32213   1.893  10.908   0.541  0.0309  0.0092 -0.1016
16597W        W32214   1.656  13.237  12.521  0.1469  0.2953 -0.0059
16598W        W32215  14.259   4.334   0.668 -0.1540  0.1342 -0.1471
16599W        W32216  16.489  11.379  13.116  0.1886  0.2080  0.3047
16600W        W32217   9.865  15.866   4.524 -0.1327 -0.0194  0.2564
16601W        W32218  12.745  15.904   4.391  0.2369  0.1855 -0.0771
16602W        W32219  10.719  11.699   4.334 -0.0929  0.2849 -0.3520
16603W        W32220  10.012   2.351  14.973  0.2445  0.1805 -0.1796
16604W        W32221   9.280  15.166   4.952 -0.0933 -0.1033 -0.1749
16605W        W32222  10.581  16.354   5.268  0.0595  0.0200  0.1169
16606W        W32223  15.345   3.954  12.521  0.2815  0.1207  0.0539
16607W        W32224   2.702  15.617   2.599 -0.3069 -0.2288  0.1771
16608W        W32225  13.597  16.939  14.359  0.1176 -0.2641  0.0948
16609W        W32226   7.052  15.515   3.014  0.3125  0.1222  0.2734
16610W        W32227   8.476   7.795   0.724 -0.4607  0.1349 -0.1502
16611W        W32228  10.054   1.639   5.285  0.0088 -0.0298 -0.2045
16612W        W32229   4.757  17.499  11.726 -0.0298 -0.3209  0.2428
16613W        W32230  16.734  12.590  12.950 -0.4079 -0.0325  0.0775
16614W        W32231  16.409  13.680   1.399  0.1500  0.0716  0.1506
16615W        W32232  10.618  11.216   1.299 -0.2733 -0.1727 -0.0098
16616W        W32233  14.399   5.050   5.678 -0.1646  0.2278  0.1823
16617W        W32234   9.303  16.437  12.652 -0.1498 -0.1574  0.3697
16618W        W32235   7.833   3.982  15.375  0.2569 -0.1489 -0.1456
16619W        W32236   3.532  14.062  12.319  0.0273  0.0061  0.0897
16620W        W32237  11.888   2.270   4.062 -0.1671  0.3723  0.4844
16621W        W32238   7.357   1.378   5.424  0.1669 -0.2778  0.0311
16622W        W32239   9.779   1.796  15.003 -0.0624 -0.0363 -0.0918
16623W        W32240   1.274   1.044   5.022  0.0261  0.1023 -0.0129
16624W        W32241  15.402  17.910  13.123  0.1873  0.1069 -0.4505
16625W        W32242  17.336  10.350   0.270 -0.2066  0.0728 -0.2093
16626W        W32243   3.100  15.568   2.954  0.3079  0.6392  0.1649
16627W        W32244  14.987  12.696   1.242  0.1696 -0.1126  0.1680
16628W        W32245   1.305  17.598  13.189 -0.1135 -0.1736  0.0439
16629W        W32246  12.812  11.473   4.249 -0.1141  0.5006  0.1581
16630W        W32247   9.610  15.401   0.265 -0.1441 -0.2443 -0.2786
16631W        W32248  13.032   8.502   2.575  0.1618 -0.2573 -0.1893
16632W        W32249   5.384   4.793  12.416  0.2047  0.3047 -0.0516
16633W        W32250   6.549  11.982  11.179 -0.2287  0.0216 -0.0614
16634W        W32251   0.983   5.908  12.015  0.2166 -0.0819  0.1816
16635W        W32252   1.987   8.884  10.331  0.0630  0.2959 -0.2082
16636W        W32253   1.307   9.378   2.695 -0.3574  0.1451  0.0305
16637W        W32254   1.728  14.485  12.022  0.0660 -0.2498  0.5612
16638W        W32255   6.598  13.080   0.218  0.0346 -0.0072 -0.1705
16639W        W32256  13.448   7.738   2.037  0.1233 -0.0559 -0.1624
16640W        W32257  17.882  14.060   3.925 -0.2046  0.1811  0.0304
16641W        W32258   7.596   0.744  11.678 -0.0851 -0.4108  0.1971
16642W        W32259  12.695   8.129  15.303 -0.1919  0.0322 -0.0730
16643W        W32260   7.151   4.179  12.820  0.0580  0.0599  0.2169
16644W        W32261   1.028  14.964   2.937 -0.1606  0.0511  0.5723
16645W        W32262   4.525   5.723  11.471 -0.1469 -0.3295  0.1975
16646W        W32263  16.114   6.907  12.890 -0.0114 -0.2177 -0.0045
16647W        W32264   9.781   3.376   1.477 -0.2532 -0.1184 -0.0694
16648W        W32265   6.229   5.319  11.501 -0.1611  0.2862 -0.2705
16649W        W32266  13.547  17.470  14.152 -0.0475 -0.0854 -0.0115
16650W        W32267  15.483  16.851   2.890 -0.0462 -0.2271  0.2167
16651W        W32268  10.965  10.656  12.818 -0.1432  0.0864  0.0453
16652W        W32269   4.976  11.076   4.502  0.2077 -0.0388 -0.1623
16653W        W32270  16.985   3.550  14.227  0.2717  0.0194 -0.3938
16654W        W32271   3.825  10.789  15.485 -0.2869  0.1479 -0.1637
16655W        W32272  10.705   1.887  13.315 -0.2309 -0.0080  0.0073
16656W        W32273  17.317  14.980  13.206 -0.0049  0.3286  0.0483
16657W        W32274   8.405  14.723   9.219 -0.0800  0.0328  0.0375
16658W        W32275   3.436  15.544   3.479 -0.1621  0.1095 -0.3161
16659W        W32276   3.796   9.419  10.424  0.0152  0.0894  0.0615
16660W        W32277   9.713  12.076   2.518  0.1683  0.0561  0.2519
16661W        W32278  14.974  11.325  14.042 -0.2365  0.1605 -0.1093
16662W        W32279  10.106   7.398  13.047 -0.2050  0.0211 -0.0018
16663W        W32280   3.931   6.340  14.056  0.4623  0.2599  0.2298
16664W        W32281   0.813   4.957   4.603  0.0741 -0.3985  0.2569
16665W        W32282   4.333   2.113  13.194 -0.1021 -0.0133 -0.3356
16666W        W32283  18.452   6.159  11.258  0.3724 -0.0756  0.0315
16667W        W32284   8.342  13.924  15.716  0.1363 -0.2277 -0.0691
16668W        W32285   5.793  12.766  13.016 -0.1190  0.5373 -0.0658
16669W        W32286   7.514  11.058  14.841 -0.3550 -0.0802 -0.2624
16670W        W32287   8.683   9.348  12.616  0.0186 -0.0172 -0.1645
16671W        W32288   9.760   0.626   3.837  0.2153  0.3667 -0.1317
16672W        W32289   1.808   8.480  14.651 -0.1904  0.2444 -0.1763
16673W        W32290   8.213  10.291   3.559  0.2849  0.0840  0.0436
16674W        W32291   0.541  13.323   0.448  0.0625 -0.0033  0.2163
16675W        W32292  16.970  14.084   3.036  0.0945 -0.2318 -0.2750
16676W        W32293  18.587   4.863   4.727 -0.2141 -0.1439 -0.0617
16677W        W32294   1.556  12.423   5.119  0.1129 -0.1650  0.2548
16678W        W32295  15.992   2.745   1.391  0.5197 -0.1596  0.0528
16679W        W32296  17.415  17.391  14.504  0.0007  0.0362 -0.0227
16680W        W32297   7.338   6.378  13.994  0.1208  0.2127 -0.1924
16681W        W32298   0.189   4.899  11.618  0.0705  0.0519  0.0945
16682W        W32299   4.611  15.856   0.088  0.0125 -0.3891  0.0854
16683W        W32300   7.379  10.276  15.203  0.0282  0.0528  0.2867
16684W        W32301   3.430  15.744  12.928  0.1593 -0.0618  0.0182
16685W        W32302   3.786   8.490   2.197  0.0336  0.2158 -0.0388
16686W        W32303   0.770   6.961  13.053  0.2655  0.1366 -0.1058
16687W        W32304   5.996   4.924  13.055  0.0321 -0.0555 -0.0137
16688W        W32305  18.080   6.111  14.990 -0.0189 -0.1013 -0.2204
16689W        W32306   9.590   4.391  11.337 -0.0480 -0.2796 -0.1213
16690W        W32307   5.534   8.157  15.456  0.0459 -0.3156 -0.2222
16691W        W32308  13.007  12.795   4.644 -0.0804 -0.0323  0.2738
16692W        W32309  13.998  13.855   0.111 -0.1121 -0.0834 -0.1220
16693W        W32310  17.126  10.515  11.443  0.0211 -0.2140  0.0748
16694W        W32311   4.368  14.623  13.927 -0.0376  0.0702 -0.2394
16695W        W32312  13.145   2.055   0.540 -0.2239 -0.0486 -0.2492
16696W        W32313  18.138   1.069  13.174  0.1135  0.1685 -0.3483
16697W        W32314   6.798  18.436   2.409  0.2242  0.0064 -0.1429
16698W        W32315  11.120   9.446   3.740  0.2628  0.1956 -0.1438
16699W        W32316   2.812  13.499  13.168  0.0113  0.0156  0.0429
16700W        W32317   4.064  10.640  14.431  0.1961 -0.1199  0.2281
16701W        W32318   2.685   6.146   0.366  0.0511  0.0900  0.1368
16702W        W32319   7.434   0.127   1.496 -0.3110  0.0966 -0.3548
16703W        W32320   9.513  17.513   4.938  0.2632 -0.2760 -0.1117
16704W        W32321  15.326   4.205  12.042  0.3407  0.3801  0.1250
16705W        W32322  12.517   0.378  15.759 -0.4427  0.3087 -0.0959
16706W        W32323  14.373  11.781   4.469 -0.0030  0.0003  0.1106
16707W        W32324  12.919   2.525   0.696  0.2269 -0.2142 -0.0913
16708W        W32325   5.148   7.379  14.861  0.2938  0.2996  0.0460
16709W        W32326  14.553   9.409  12.868  0.4382 -0.0013  0.0125
16710W        W32327  17.714   9.345  14.651 -0.1425 -0.3509 -0.0772
16711W        W32328  12.284   8.207  13.440  0.0911 -0.1967 -0.2172
16712W        W32329   5.076  17.577  14.575 -0.2025  0.1950 -0.0333
16713W        W32330   9.678   5.463   5.607  0.0535 -0.0154 -0.0972
16714W        W32331   1.360   7.368  14.358  0.2000  0.0245  0.1545
16715W        W32332  10.192   0.535  11.339 -0.3200 -0.3522 -0.0146
16716W        W32333  14.553   9.335   2.169 -0.1528  0.1270  0.0605
16717W        W32334   2.050   3.349  11.728 -0.0933  0.1994  0.1020
16718W        W32335  12.510   0.167  12.444  0.0006 -0.4253 -0.0610
16719W        W32336  17.232  18.203  13.210  0.1408 -0.0075 -0.0178
16720W        W32337  15.816  11.506  12.019 -0.1248  0.1259 -0.3244
16721W        W32338   1.957   0.569   0.194  0.1749 -0.0272 -0.0749
16722W        W32339  13.117   2.406  14.198  0.1128  0.1185 -0.4667
16723W        W32340   5.788  10.456  12.495 -0.1354  0.0975 -0.0194
16724W        W32341   5.646   0.624  14.568 -0.1974  0.0334 -0.1413
16725W        W32342  10.078   0.406   0.403 -0.0478 -0.0475 -0.1461
16726W        W32343   1.255  12.020  15.681  0.2535 -0.1167 -0.1887
16727W        W32344  11.523   7.004   0.020 -0.0959  0.0121  0.2003
16728W        W32345   3.217  11.683  11.659 -0.0520  0.3215 -0.4283
16729W        W32346  11.790  16.496   0.256  0.0743 -0.1487 -0.2182
16730W        W32347   5.793   7.386  11.825 -0.0167  0.0473  0.0676
16731W        W32348  15.937  13.592   0.414  0.3017 -0.0591 -0.3090
16732W        W32349   1.427   3.768  13.468 -0.1425  0.0567  0.0862
16733W        W32350   8.715  13.385   1.515 -0.2752  0.0759 -0.1311
16734W        W32351   5.574   4.836   5.144 -0.1324  0.0393  0.0010
16735W        W32352   5.899   9.489  12.284  0.1931 -0.0506 -0.2608
16736W        W32353  17.589  16.259   3.868  0.2079 -0.0401 -0.2732
16737W        W32354  15.896  17.552   2.886 -0.2471  0.1523 -0.2541
16738W        W32355   4.452   5.344   3.920  0.0863 -0.1188  0.3223
16739W        W32356  11.596  12.998  11.895  0.0513  0.1739  0.2421
16740W        W32357   3.237   1.822  10.877 -0.4345  0.2157  0.0630
16741W        W32358   6.086   8.778  13.984 -0.1617 -0.0708  0.0453
16742W        W32359  13.342  18.646  14.571  0.2490 -0.0206  0.0260
16743W        W32360  17.591  14.614   4.082  0.6725 -0.1614  0.1112
16744W        W32361   2.559   1.263  13.019  0.1874  0.1002 -0.2325
16745W        W32362  16.484  18.337  13.821  0.3408  0.0522 -0.0056
16746W        W32363  16.159   6.084  13.095  0.2572 -0.0015  0.0486
16747W        W32364   2.062   3.382  11.248 -0.1257 -0.0098 -0.0754
16748W        W32365  18.505   4.296  12.006 -0.0996 -0.0441 -0.1899
16749W        W32366  11.824   3.981  13.573  0.1413 -0.0613  0.0027
16750W        W32367   3.913  14.653  14.448  0.3500  0.0249  0.0447
16751W        W32368  17.619  16.039   4.411  0.4831 -0.1726  0.1084
16752W        W32369   4.592   4.860  13.762  0.0125 -0.0038 -0.1713
16753W        W32370  17.244  16.978  12.788  0.1568  0.0663 -0.0529
16754W        W32371   9.690  12.810   1.530  0.0877 -0.1393 -0.1594
16755W        W32372  17.536  12.725   2.816  0.3627  0.2984  0.1496
16756W        W32373  16.041   1.765   6.669 -0.2569  0.2786  0.1177
16757W        W32374   3.250   7.874   1.806  0.1847 -0.2150  0.0015
16758W        W32375  16.876   6.092   0.247 -0.0847  0.1176  0.1587
16759W        W32376  10.781  17.619  12.217  0.0958  0.3359  0.1497
16760W        W32377  15.744  15.606  12.214  0.0361 -0.0402 -0.0423
16761W        W32378  13.436   9.199  14.848 -0.0345 -0.1284  0.3800
16762W        W32379   4.089   6.942  14.161  0.1594  0.2980  0.1519
16763W        W32380   4.642   7.053   0.072  0.2382 -0.0648 -0.1423
16764W        W32381   4.202   4.206   4.717  0.1896 -0.1151  0.1250
16765W        W32382  13.542  11.697  12.402 -0.1918  0.2109 -0.3119
16766W        W32383  13.722  12.652  12.482  0.0838  0.1420  0.2419
16767W        W32384   5.179   6.634  11.698  0.0078 -0.1547 -0.1963
16768W        W32385  16.870  15.149   4.102 -0.5296 -0.1084  0.1299
16769W        W32386   1.141  10.847   1.001 -0.1332 -0.0302 -0.0368
16770W        W32387   6.193   7.328   5.681  0.2538 -0.2904  0.3231
16771W        W32388  15.073  10.133  10.837  0.2075 -0.0246 -0.3133
16772W        W32389  10.512  12.768  12.343  0.0223 -0.1281 -0.2257
16773W        W32390   0.155   9.533  15.510 -0.0164 -0.3497  0.1763
16774W        W32391   6.259  18.203  13.131  0.4645 -0.1561  0.1432
16775W        W32392   4.235  17.121  12.808  0.0831 -0.1000 -0.0901
16776W        W32393   1.808   6.754   0.677 -0.4227 -0.0227 -0.0308
16777W        W32394   1.222  15.096  14.666  0.0365 -0.0659  0.0277
16778W        W32395   1.218   8.196   2.171  0.0309  0.0255 -0.2508
16779W        W32396   0.258   1.282   1.032  0.0089 -0.1546  0.2411
16780W        W32397   3.319   9.043  15.342 -0.2087  0.0668 -0.0042
16781W        W32398   7.430   8.627   0.795 -0.0212 -0.5037  0.0567
16782W        W32399  17.772  14.351   0.112  0.1375  0.1406  0.0154
16783W        W32400  15.987  14.997   0.088 -0.0048  0.0798  0.0097
16784W        W32401   4.145  18.150  11.849  0.3375 -0.3658 -0.3010
16785W        W32402  16.355  12.200  14.563  0.2107 -0.2326 -0.2560
16786W        W32403  12.408   4.333   4.465 -0.2879 -0.2834  0.0566
16787W        W32404  16.276   6.558  10.150 -0.0333 -0.3395 -0.2343
16788W        W32405  15.792   0.471  14.953  0.1053 -0.1033 -0.0283
16789W        W32406  10.939   9.458   3.307  0.1075  0.3699  0.3938
16790W        W32407  13.081   4.862   4.804  0.0466 -0.1217 -0.1311
16791W        W32408   9.612  18.255  13.518 -0.3460 -0.0662 -0.2560
16792W        W32409   0.779   9.398   4.442  0.0776  0.1302  0.0361
16793W        W32410  13.978   7.619   2.092  0.1173  0.2354 -0.1946
16794W        W32411  17.806   2.179   2.112  0.0997  0.3555  0.2863
16795W        W32412  15.309  11.256  10.500  0.3744 -0.0778 -0.0259
16796W        W32413   3.284   4.850  15.077  0.1086 -0.2322 -0.0180
16797W        W32414   2.509   0.035  13.211 -0.1226 -0.1749 -0.3386
16798W        W32415   1.708  15.881  15.703  0.0173 -0.2051 -0.3079
16799W        W32416   7.632  18.337   2.924  0.1734  0.2955 -0.1080
16800W        W32417   6.198  17.230  15.768 -0.4916 -0.1971  0.2053
16801W        W32418  16.271   0.604  14.163  0.1850 -0.2369 -0.0411
16802W        W32419   8.981   2.052   2.827 -0.3580  0.4303  0.0822
16803W        W32420  12.272   0.447  14.392  0.2317 -0.3076 -0.0605
16804W        W32421   6.335   1.922   3.757 -0.2269 -0.2927  0.4144
16805W        W32422   6.382   3.126   2.078 -0.2849  0.1785 -0.3507
16806W        W32423  11.893  11.160  13.485 -0.0779  0.4186 -0.0838
16807W        W32424  15.515   1.188  11.290  0.5447  0.2106 -0.3592
16808W        W32425  14.380  10.348   4.503 -0.4317 -0.0621 -0.0696
16809W        W32426  15.138   3.972  13.608  0.1409 -0.4304  0.1585
16810W        W32427   6.240   1.608   4.319  0.0955 -0.2998 -0.0668
16811W        W32428   1.104  13.141   1.764  0.2194 -0.3817  0.0365
16812W        W32429   4.745  13.423  11.170  0.0624  0.0558  0.1647
16813W        W32430   9.372  12.775  14.744 -0.0086  0.0463 -0.2521
16814W        W32431  17.813  15.878  12.658 -0.0526 -0.0153  0.2523
16815W        W32432   5.845   1.169   3.134 -0.1358  0.4946  0.4636
16816W        W32433   0.824   6.604   4.568 -0.1809  0.0746  0.1019
16817W        W32434  11.889  12.403   2.732  0.2454  0.4574  0.0019
16818W        W32435   3.422   0.539  11.329  0.2322 -0.1460  0.0065
16819W        W32436  16.797   9.097   2.892 -0.4452 -0.0319 -0.2959
16820W        W32437  17.947  15.612   3.116  0.0161 -0.1727  0.2138
16821W        W32438  11.873  17.258  13.089  0.0106  0.2245  0.3196
16822W        W32439  14.623  17.741   1.757  0.0082 -0.1356  0.0784
16823W        W32440   2.416  10.129  13.384  0.0271  0.1373  0.0466
16824W        W32441   8.459  14.150  12.254  0.1852 -0.0575  0.4044
16825W        W32442   2.389   2.663  11.734  0.0627 -0.1607  0.1582
16826W        W32443  15.973  17.158   4.281  0.0624 -0.1256  0.6583
16827W        W32444   1.121   8.971  12.669 -0.2270 -0.2445  0.0762
16828W        W32445  15.792   2.212   1.863 -0.0932 -0.0287 -0.2192
16829W        W32446   5.998  12.729   2.766  0.0451  0.1671  0.0661
16830W        W32447   2.905  18.245   2.399  0.0341  0.0507  0.1816
16831W        W32448  13.639  14.749  12.511  0.3623  0.3515 -0.0801
16832W        W32449  13.427  16.291  14.625 -0.4103  0.0717  0.2725
16833W        W32450   0.254   4.079   3.549 -0.1703  0.0516 -0.0042
16834W        W32451   4.124   0.188   4.576  0.0014  0.1862  0.1007
16835W        W32452   7.164   6.193   0.418 -0.0318  0.0099 -0.1877
16836W        W32453  14.350   7.106   0.146 -0.3006  0.1210 -0.0402
16837W        W32454  15.202  10.959  12.377 -0.2502  0.2443 -0.0917
16838W        W32455   6.633   4.404   6.419 -0.0788 -0.1147 -0.2769
16839W        W32456   3.636   9.059   0.801  0.1913 -0.2426  0.3826
16840W        W32457  13.850   3.150  12.272  0.0633 -0.0007 -0.4279
16841W        W32458   4.419  12.836  10.901 -0.0004 -0.0688  0.1019
16842W        W32459   2.084  10.731  13.278 -0.0780  0.1765 -0.2302
16843W        W32460  13.097   9.725   3.395  0.1171 -0.1210  0.0076
16844W        W32461  13.557  10.280  11.133 -0.2247 -0.1183 -0.0419
16845W        W32462  13.009   9.773   4.440  0.3510  0.2201  0.1071
16846W        W32463   1.034   9.832  14.717  0.1736  0.0107 -0.0238
16847W        W32464   1.851   0.133  15.213  0.0095  0.0277  0.1434
16848W        W32465  10.156   7.491   2.876  0.1319 -0.1409  0.1000
16849W        W32466   6.660   2.747   5.429 -0.1009 -0.0385 -0.1370
16850W        W32467  10.044  13.319  10.552  0.2161  0.1944  0.0327
16851W        W32468  11.301   6.661  11.903 -0.1854  0.0346  0.1324
16852W        W32469   1.652  10.740   1.817 -0.1231  0.3851  0.0881
16853W        W32470  12.618  14.628   3.760  0.2028  0.2058 -0.0499
16854W        W32471   1.191   5.084  14.125 -0.0148  0.0333  0.4547
16855W        W32472  12.266  14.839   1.286  0.0299  0.1878 -0.3903
16856W        W32473   6.649   1.053   1.568  0.0185  0.3125 -0.1461
16857W        W32474   8.350   4.798   0.294  0.1396 -0.1546  0.3432
16858W        W32475   1.600  17.313   3.580 -0.0352  0.4469 -0.0558
16859W        W32476  14.157   0.946  15.500  0.2178 -0.0485  0.0814
16860W        W32477   2.121  13.744  14.347 -0.0538  0.0822  0.0191
16861W        W32478   6.004   6.892   4.609 -0.0073  0.1865  0.1789
16862W        W32479  14.989   4.524  12.166 -0.1544 -0.2731 -0.0398
16863W        W32480  17.588  17.806  14.783  0.3984 -0.2182  0.1478
16864W        W32481   7.766   7.036  12.441  0.0489 -0.0793  0.0936
16865W        W32482   4.427   8.443   3.103 -0.3337  0.4159  0.0682
16866W        W32483   4.040   8.040  15.727 -0.1093 -0.0881 -0.3193
16867W        W32484  10.143  17.340   4.339  0.2648 -0.0854 -0.2667
16868W        W32485  12.731   4.004  12.323 -0.0517 -0.1966  0.2941
16869W        W32486   2.606  11.744  15.154 -0.0813  0.0349  0.1100
16870W        W32487   9.213   2.745  15.623 -0.0995  0.1261  0.0040
16871W        W32488   1.919  13.630  14.986 -0.0384 -0.0793 -0.4066
16872W        W32489   9.407   9.835  11.475 -0.0438  0.2314  0.3001
16873W        W32490  10.749   5.133  12.190  0.5852 -0.2082  0.1187
16874W        W32491   8.768   4.894  15.192  0.0701 -0.2560 -0.0203
16875W        W32492   9.400   4.904   3.083 -0.0793 -0.0471  0.0442
16876W        W32493  15.617   8.439   0.529 -0.0635 -0.0770  0.0473
16877W        W32494   6.231  12.343  11.450  0.3447  0.2001 -0.2911
16878W        W32495   0.148   5.285  14.459  0.0225  0.0720 -0.5551
16879W        W32496  12.934   5.206   2.177 -0.3946 -0.1371  0.0610
16880W        W32497  17.396   2.011  12.862 -0.2810 -0.2770 -0.2277
16881W        W32498  13.184   5.945   3.588 -0.1903 -0.1138  0.0513
16882W        W32499   0.844   8.163   1.253  0.0155 -0.0364  0.2361
16883W        W32500   6.001   2.833  12.678  0.0808 -0.0051 -0.0251
16884W        W32501   6.965  13.346  10.804 -0.3703  0.0363  0.2228
16885W        W32502  13.296  10.525   2.282  0.0480  0.2205  0.1501
16886W        W32503   2.547   8.151   1.722 -0.0814 -0.1833  0.0372
16887W        W32504   1.340   5.902  11.608  0.1160 -0.0223 -0.0607
16888W        W32505   2.817  18.247   0.057 -0.0951  0.2338 -0.2578
16889W        W32506   2.722  16.344   2.746 -0.3967  0.2311 -0.0031
16890W        W32507   3.973   0.019  10.591  0.0831 -0.0243 -0.0148
16891W        W32508  17.651  13.970  12.833 -0.0231  0.0318 -0.2568
16892W        W32509  12.666   6.432   1.833 -0.0221 -0.1728 -0.1847
16893W        W32510  17.702   0.607   6.829  0.2910  0.0813  0.0672
16894W        W32511  14.285   3.497   5.096 -0.2743  0.0521 -0.1077
16895W        W32512  14.033   0.163  13.426  0.2822 -0.0473 -0.2146
16896W        W32513   1.286  16.445   0.370  0.1743  0.1822 -0.1232
16897W        W32514   5.953  17.610  13.569 -0.1067  0.4805 -0.0268
16898W        W32515  16.751  13.121   4.567  0.0320  0.0771  0.1766
16899W        W32516  15.109   9.868  14.186 -0.3025 -0.2349 -0.1647
16900W        W32517   8.373   7.893  11.571  0.2050  0.3033 -0.1019
16901W        W32518   7.032  12.923   4.064  0.0973  0.0526  0.3346
16902W        W32519   9.391  18.617   4.332 -0.0092  0.1138  0.0702
16903W        W32520   4.629   3.303  11.920 -0.2453 -0.0675  0.3355
16904W        W32521   9.815  16.701   5.090  0.0079 -0.2125  0.0109
16905W        W32522   8.123   5.222   2.274 -0.1813  0.0044  0.4485
16906W        W32523   2.266   2.622   1.074 -0.2357 -0.0532  0.4567
16907W        W32524   8.106  18.404   2.667  0.1884 -0.1003 -0.0608
16908W        W32525  17.695  15.542   3.979 -0.2020  0.2251 -0.0991
16909W        W32526   1.494  13.838   5.285 -0.1412 -0.0847 -0.1261
16910W        W32527   5.209   1.489   2.472 -0.3809  0.1289  0.0466
16911W        W32528   1.883   4.203   3.777  0.2980  0.1037 -0.1084
16912W        W32529   2.945  11.934   3.983 -0.0020  0.0235  0.0855
16913W        W32530  16.874  11.738  13.146 -0.1053  0.1885 -0.1357
16914W        W32531   3.538   9.191  13.553 -0.0035 -0.0484  0.2457
16915W        W32532  16.691   9.770   1.336  0.0115  0.2299  0.3092
16916W        W32533   8.366   2.814   6.062 -0.1090 -0.0593 -0.0896
16917W        W32534  18.020   2.216   0.959 -0.1358  0.0420 -0.6035
16918W        W32535   6.569   5.470   4.108  0.0319  0.1328  0.1721
16919W        W32536   5.883   6.186   3.332  0.4058 -0.0837 -0.0182
16920W        W32537  10.680  11.592  15.319 -0.1221 -0.1377 -0.0397
16921W        W32538  10.405   8.760   4.706  0.1450  0.0754  0.0149
16922W        W32539  10.822  14.852  11.660  0.2557  0.0445 -0.1260
16923W        W32540   6.412   0.940  11.471  0.2361 -0.3344  0.3701
16924W        W32541   6.816  15.149  11.133 -0.2664 -0.2042  0.3491
16925W        W32542  15.843   5.634   2.536 -0.4227  0.4837  0.1095
16926W        W32543   5.878  16.332   5.364  0.1812  0.0771 -0.0780
16927W        W32544   2.070  18.107  10.707  0.4459 -0.1186  0.0859
16928W        W32545  11.030   5.526   0.493  0.0415  0.0738  0.2682
16929W        W32546  12.801  13.152  13.057  0.1961  0.1096 -0.0319
16930W        W32547   6.622  10.459   0.691 -0.0502  0.0797  0.2674
16931W        W32548   5.670   1.017   2.704  0.3903 -0.2302  0.3490
16932W        W32549   3.332   8.570   0.197  0.1150  0.1893 -0.3510
16933W        W32550   1.518   1.019   3.668  0.1078 -0.0111 -0.0603
16934W        W32551  15.225  15.896   4.040 -0.2189  0.2706 -0.1994
16935W        W32552   9.821   4.822  14.085  0.0326 -0.1596  0.1211
16936W        W32553  14.520   2.860   3.649 -0.1906 -0.2247  0.0121
16937W        W32554   1.503   9.446  11.468  0.1166  0.1170 -0.0853
16938W        W32555   1.822   6.381  13.717 -0.0791 -0.0926 -0.1563
16939W        W32556   1.494   9.847   4.530 -0.0764 -0.2168  0.1141
16940W        W32557  17.213   7.615  12.950  0.2008 -0.0521 -0.3091
16941W        W32558  13.482   6.447  11.107  0.0301  0.1559  0.0730
16942W        W32559   6.546   4.882  12.412 -0.0373 -0.1549  0.0341
16943W        W32560   3.569   2.163   2.280  0.0232  0.2906 -0.0416
16944W        W32561   6.923   8.861  13.969  0.0852 -0.0856  0.3740
16945W        W32562   1.208  15.557   1.871  0.0346 -0.1449 -0.0052
16946W        W32563   7.582   7.969   3.067  0.1986 -0.0279 -0.0157
16947W        W32564   2.676  18.428   3.727  0.0781 -0.3772  0.2317
16948W        W32565  14.374   6.095   4.725  0.0863  0.1110  0.3456
16949W        W32566  18.216   8.577   1.003  0.1753  0.0525  0.0210
16950W        W32567   3.661  11.065   1.205 -0.0961  0.3136 -0.2761
16951W        W32568   4.619  15.230  10.609 -0.0913 -0.0192  0.1754
16952W        W32569  11.451  13.270  13.645  0.1105 -0.2029  0.3081
16953W        W32570  13.662  17.789   0.765 -0.1248  0.0321 -0.0946
16954W        W32571   9.428   1.040   0.563  0.0458 -0.1890  0.0519
16955W        W32572  12.856   9.412   1.433 -0.0165  0.2705 -0.0255
16956W        W32573   4.095   1.890  11.357  0.1836 -0.2861 -0.0544
16957W        W32574  13.776  11.193  14.315  0.0879  0.0371  0.0891
16958W        W32575   3.475  18.089   2.612  0.4414  0.0103  0.1095
16959W        W32576   6.875   4.953   0.187  0.1753  0.3201 -0.0160
16960W        W32577   0.202   0.078   3.511 -0.1732 -0.1005 -0.0784
16961W        W32578   5.579  16.208   2.251 -0.1827 -0.2195 -0.2193
16962W        W32579   5.411   7.917  14.100 -0.0829  0.1526  0.0031
16963W        W32580   0.006  12.927  12.901 -0.1741  0.2861  0.1883
16964W        W32581  18.169  10.284   3.007 -0.1212  0.0464  0.1924
16965W        W32582   2.654   1.863   1.281 -0.1096 -0.1224  0.2099
16966W        W32583   0.765   0.511   2.767  0.1172  0.0232  0.0992
16967W        W32584  12.991  15.354   0.016 -0.0024  0.0890  0.1131
16968W        W32585   7.825   4.277   5.626  0.1425 -0.1258  0.2559
16969W        W32586   8.243   3.341   3.349  0.1181  0.0387  0.2720
16970W        W32587  10.385  16.661   4.550  0.2148 -0.0926 -0.2789
16971W        W32588   0.245  13.633  13.702  0.0245  0.1716  0.0851
16972W        W32589   7.250  11.652  10.584  0.1732  0.0802 -0.0277
16973W        W32590   5.718  18.331  14.054 -0.2394 -0.2215  0.1713
16974W        W32591   8.350   5.312   3.220  0.2086  0.1704 -0.0078
16975W        W32592   6.492  17.848   4.010 -0.0066  0.2900 -0.1052
16976W        W32593  14.112   8.022  14.453  0.2384 -0.0431 -0.0591
16977W        W32594   7.344   7.442   2.809 -0.0732 -0.0465  0.1189
16978W        W32595  18.378  11.416   4.195  0.1443  0.0013 -0.0804
16979W        W32596  14.426  15.978   3.762 -0.0433  0.3889 -0.0230
16980W        W32597  11.388   0.740   5.126 -0.3059  0.0762 -0.1741
16981W        W32598   3.996   5.916  14.654  0.0605 -0.2403 -0.2246
16982W        W32599  17.297   9.078  10.773  0.1991  0.3068  0.0593
16983W        W32600  11.503   4.523  14.892 -0.2020  0.0801  0.2586
16984W        W32601  10.618  12.832   0.750  0.2032 -0.4308 -0.0160
16985W        W32602  15.301   9.001   4.355 -0.5225  0.2315  0.0172
16986W        W32603   1.931  16.042   2.560 -0.1999  0.1194 -0.1377
16987W        W32604   9.127   3.648  11.157 -0.1607 -0.0676 -0.5397
16988W        W32605  12.930  11.520   2.846  0.0290  0.1051 -0.1381
16989W        W32606   1.914   2.402  13.604 -0.1475  0.2603  0.0609
16990W        W32607   1.165   6.199   4.466 -0.2894  0.1106  0.0804
16991W        W32608   2.430  11.806  14.078 -0.1791  0.0848 -0.1680
16992W        W32609   8.827  12.967  14.175  0.4104  0.1141 -0.2359
16993W        W32610  14.579   4.573   1.545 -0.1534 -0.1616 -0.1698
16994W        W32611  15.089  10.271  15.777  0.0329  0.0184  0.0267
16995W        W32612   8.551  13.802   3.874  0.0072 -0.0531 -0.1823
16996W        W32613  17.811  13.244   1.017  0.0848  0.1454 -0.0105
16997W        W32614  16.371   9.670  13.138 -0.3901 -0.2755 -0.1585
16998W        W32615  16.433  14.766  11.200 -0.2913  0.0016 -0.0334
16999W        W32616   7.595  14.316   0.115 -0.1520  0.1906  0.1139
17000W        W32617  10.446  16.235  14.990 -0.0805 -0.4406  0.1268
17001W        W32618  15.732  16.673  15.387 -0.0490 -0.3693 -0.2220
17002W        W32619   1.598   1.106  14.673  0.2038  0.1406 -0.1611
17003W        W32620   2.814  15.497   1.370 -0.2601  0.1262 -0.3536
17004W        W32621   3.662  14.498  15.334 -0.0004 -0.0416  0.0335
17005W        W32622  10.910  14.113   4.778  0.2170  0.3116 -0.1003
17006W        W32623  17.781  17.780  12.338  0.0051  0.3413 -0.0413
17007W        W32624   3.273   3.075   4.208 -0.1045  0.1123 -0.0902
17008W        W32625  13.797  11.959  15.486 -0.3431  0.0539  0.0288
17009W        W32626   6.507   1.712  12.409  0.1452 -0.0380  0.3205
17010W        W32627  15.467  13.031  11.771 -0.0999  0.2287  0.2663
17011W        W32628  12.231  16.662   0.535  0.2150 -0.1751 -0.2887
17012W        W32629   3.625   4.025  14.753  0.0481 -0.0466 -0.1088
17013W        W32630   7.288   4.346   5.689 -0.2765 -0.1481  0.2095
17014W        W32631   6.625  18.267   3.739  0.3365 -0.3281 -0.3135
17015W        W32632   5.184  15.827   0.017 -0.0797 -0.0081  0.1256
17016W        W32633   2.527   2.648  13.592  0.0335 -0.3017 -0.2646
17017W        W32634  14.785   6.160   3.723  0.0916 -0.0477 -0.0364
17018W        W32635   0.218   0.415  14.084  0.0436  0.0913  0.0339
17019W        W32636   1.557   8.038  14.660  0.0278 -0.0381 -0.2722
17020W        W32637  15.675   0.783  12.124 -0.0613 -0.3461 -0.2272
17021W        W32638  13.673   4.926  11.506  0.1192 -0.1483 -0.1096
17022W        W32639  11.266   0.817   0.940  0.0995 -0.0657  0.0790
17023W        W32640  12.647   5.791   3.333 -0.1691  0.2046 -0.0593
17024W        W32641   0.597   1.524   0.038 -0.2742  0.0383 -0.1766
17025W        W32642   3.855  17.162   4.829  0.0030  0.2331 -0.0654
17026W        W32643  17.606   2.440  12.570  0.4435  0.1434 -0.2575
17027W        W32644   2.572   0.923  14.153 -0.0226  0.1440  0.0047
17028W        W32645  18.407  10.695  12.952  0.0529 -0.1167  0.0088
17029W        W32646  15.724   0.692   2.807 -0.0077 -0.0438 -0.0205
17030W        W32647  15.719   2.391   0.590 -0.2845 -0.1939 -0.1659
17031W        W32648   9.250   6.996  15.608  0.0155  0.0579  0.0155
17032W        W32649  11.983   3.563   1.386  0.2138  0.1885 -0.0536
17033W        W32650   4.936  16.918   9.661 -0.2072  0.2469  0.1788
17034W        W32651  11.943  18.139   1.625 -0.1120  0.0588 -0.0821
17035W        W32652   2.501  16.008  15.122  0.2844  0.1557  0.1727
17036W        W32653   6.448   9.732  11.278 -0.2393  0.1588  0.2037
17037W        W32654   7.604   4.731  15.228  0.0062  0.0450  0.0971
17038W        W32655  16.920  15.785   4.959  0.3723  0.2239  0.3269
17039W        W32656   2.765   1.656  10.728  0.0303  0.2814 -0.0624
17040W        W32657   0.654   4.488   3.563 -0.3501  0.0491 -0.0988
17041W        W32658   8.821  10.611   3.694 -0.1069  0.0614  0.0452
17042W        W32659   4.590   0.413  12.932 -0.0218  0.1491 -0.0256
17043W        W32660   2.965  12.889   1.405 -0.0114 -0.0868  0.3427
17044W        W32661   0.744   7.609  12.454  0.0004  0.0219  0.2242
17045W        W32662   1.074   2.363   3.160 -0.1623  0.0386  0.1425
17046W        W32663  11.850  10.636   1.126 -0.0816  0.3625  0.2646
17047W        W32664   1.857   2.959  14.834 -0.1517  0.1546  0.2910
17048W        W32665   1.165   5.491   1.385 -0.0820 -0.0863  0.3042
17049W        W32666   6.582  13.258   1.145 -0.1791 -0.1447  0.1424
17050W        W32667  12.605   0.082   3.820 -0.0273 -0.2201  0.1970
17051W        W32668  13.507  11.308  15.775  0.0742 -0.1767  0.1687
17052W        W32669   7.287   5.173   2.468 -0.1432  0.0386 -0.0656
17053W        W32670   0.850  15.597  15.244 -0.1364  0.0724 -0.0846
17054W        W32671   2.667  16.845  15.694  0.0223  0.0484 -0.1437
17055W        W32672   8.103   7.272   5.373 -0.2100 -0.1911 -0.1219
17056W        W32673  14.603   1.216  11.581  0.0209 -0.1481  0.0814
17057W        W32674  15.774   1.838   5.085  0.1169 -0.2780  0.1975
17058W        W32675   1.889  14.832   5.485 -0.4983 -0.2324  0.2757
17059W        W32676   5.392   9.214   4.645  0.2371 -0.2184 -0.3184
17060W        W32677  11.415   9.683   3.345  0.1015 -0.2991  0.0348
17061W        W32678   5.225   8.929   0.645  0.4231  0.0287 -0.0624
17062W        W32679   9.039  13.009   3.439 -0.2647  0.0197  0.0627
17063W        W32680  15.470  17.164   5.261  0.2399  0.0320  0.0265
17064W        W32681  15.713   8.592  12.573 -0.1043  0.2513  0.1673
17065W        W32682  18.587   7.010   1.427  0.1500 -0.1588 -0.1830
17066W        W32683   6.062  13.504  15.572 -0.3301  0.5147 -0.0122
17067W        W32684   9.499  10.156  15.280  0.1200  0.0723 -0.0239
17068W        W32685   6.917   7.818  13.211 -0.0427  0.0641  0.0448
17069W        W32686   0.021   1.537   6.064  0.1527 -0.0418 -0.1062
17070W        W32687   3.153   6.480  15.564 -0.1522 -0.0937 -0.1880
17071W        W32688   7.382   4.452   1.907 -0.0304 -0.2700  0.0165
17072W        W32689  10.043   5.912   2.269 -0.2779  0.3141 -0.1719
17073W        W32690   4.858  12.034   4.089 -0.1988  0.2860  0.1363
17074W        W32691   2.180   5.576   5.527 -0.0388 -0.0808 -0.0794
17075W        W32692   5.842  17.007   3.149  0.1564  0.2550 -0.1730
17076W        W32693  14.863  13.948  14.677 -0.1906  0.0233  0.0126
17077W        W32694  15.540   4.465  14.185  0.2199  0.2164  0.0326
17078W        W32695   6.832   9.770   3.612 -0.0052  0.0070 -0.1993
17079W        W32696  18.403   9.831  13.791 -0.0716  0.1247 -0.0144
17080W        W32697  15.020   2.620  13.535 -0.1729 -0.3167  0.0794
17081W        W32698  14.699  17.636   2.926  0.0350  0.0935  0.2722
17082W        W32699  14.464  18.235   5.831  0.0236 -0.5291  0.1501
17083W        W32700  11.755  13.255  13.167 -0.3574 -0.1634  0.2057
17084W        W32701   7.744   9.369  11.177  0.0228  0.0191 -0.1952
17085W        W32702   2.149   4.320   0.408  0.4399  0.0521 -0.0338
17086W        W32703   4.479   4.376  13.821  0.0570 -0.1871  0.0332
17087W        W32704  13.210  14.954   2.145 -0.0147 -0.1526  0.0293
17088W        W32705  17.549   4.540  15.271 -0.1416  0.0750  0.1977
17089W        W32706   5.955  11.587   0.696 -0.1472 -0.1900  0.0898
17090W        W32707   7.112   2.944   5.622 -0.0792 -0.2457  0.1074
17091W        W32708   3.050   7.027  12.094  0.1897  0.0847 -0.0723
17092W        W32709  17.085   8.351  12.330 -0.0778 -0.1965  0.1331
17093W        W32710   6.366  14.520  12.432  0.1368 -0.0505 -0.1573
17094W        W32711  11.783  10.539  11.955 -0.1995 -0.0841  0.2430
17095W        W32712  17.844  13.290   3.829 -0.0761 -0.0079  0.1018
17096W        W32713  13.215   1.101   4.143  0.2525  0.1430  0.0955
17097W        W32714   3.987   6.856   4.936  0.2716  0.3092 -0.1006
17098W        W32715  11.644  18.443   2.918  0.0975  0.0454  0.0009
17099W        W32716  12.303  11.062  15.237  0.0990 -0.0858 -0.0583
17100W        W32717   6.569   3.348  14.709  0.1223  0.2481  0.1922
17101W        W32718  16.631  12.604  14.780 -0.2287 -0.2178 -0.2355
17102W        W32719   4.059  17.162  10.581 -0.0164  0.3317  0.0389
17103W        W32720   5.951   7.364  13.736 -0.1213  0.4286  0.0420
17104W        W32721   1.787   6.802  15.401 -0.1669  0.2906  0.2652
17105W        W32722   8.474  15.203   3.649  0.0980 -0.1579  0.1049
17106W        W32723  17.470  13.934   1.839 -0.1466  0.0127 -0.0078
17107W        W32724  18.221   8.357  11.903 -0.0663 -0.0754 -0.0589
17108W        W32725  13.766  14.434  11.463  0.0362  0.0942  0.0742
17109W        W32726   0.409   7.214  11.603 -0.0620  0.1507 -0.0130
17110W        W32727   1.523   3.294   0.424 -0.0618 -0.3097 -0.0984
17111W        W32728  11.102  10.787   0.447  0.2259 -0.1262 -0.0555
17112W        W32729  12.714   3.376   3.481  0.1353 -0.0168 -0.3549
17113W        W32730   2.131   4.465   5.415  0.1258  0.0092 -0.1806
17114W        W32731   7.132   5.355  11.831 -0.0560  0.0110  0.0368
17115W        W32732   2.155  14.319  13.450  0.0777 -0.3861  0.0983
17116W        W32733   4.553   7.155  14.105  0.0502  0.1076 -0.3653
17117W        W32734   6.476   0.976  15.711 -0.3590 -0.0192  0.0113
17118W        W32735  11.701  11.923   3.441 -0.0182  0.5164  0.4663
17119W        W32736  16.527  15.853   2.333  0.2425  0.1466 -0.0810
17120W        W32737  16.902  13.750   2.635  0.0722  0.2151 -0.0202
17121W        W32738   3.494  16.474  14.337 -0.0025  0.1946  0.0586
17122W        W32739   4.524  14.294  14.940  0.0119 -0.0686  0.4249
17123W        W32740  11.209  17.968   3.499 -0.0639  0.1525  0.0323
17124W        W32741   8.476   6.785  13.851  0.1596 -0.2543  0.1007
17125W        W32742   7.773   0.873   4.997 -0.1159 -0.0421  0.0904
17126W        W32743   2.325  10.986  12.135 -0.1460 -0.0566  0.0862
17127W        W32744  12.390   8.402  12.450  0.1352  0.1978  0.0006
17128W        W32745   6.135   7.772  15.002  0.2215 -0.2360 -0.2854
17129W        W32746   0.076   5.339  15.068  0.2819  0.0451 -0.2131
17130W        W32747  16.103  11.099  12.030  0.0520  0.1904 -0.1463
17131W        W32748  16.137  12.667   3.109 -0.0835  0.1577  0.2531
17132W        W32749  14.097  13.123  11.777  0.0698  0.4834 -0.3008
17133W        W32750  15.399   7.993   3.117  0.0256 -0.0263  0.0856
17134W        W32751   7.720  18.185   2.364 -0.1336  0.0633  0.0908
17135W        W32752   2.207  16.654   1.577 -0.0766  0.2668  0.0811
17136W        W32753   4.812  16.495   2.339 -0.0884 -0.2820 -0.1663
17137W        W32754  15.697   1.839  15.263 -0.0981 -0.1047  0.0829
17138W        W32755   0.727   4.179  15.373 -0.0249  0.0790  0.2490
17139W        W32756   7.529  16.843   1.125  0.0637  0.1710 -0.0321
17140W        W32757   8.729   9.928   6.017  0.3448  0.2188  0.0206
17141W        W32758   2.385   6.491  13.656 -0.1160  0.3353  0.0111
17142W        W32759  14.032   7.366  15.628  0.0377  0.2524  0.2542
17143W        W32760   4.372   6.247  14.866 -0.0760 -0.0564 -0.1099
17144W        W32761  18.482   5.215  11.436 -0.0454  0.0979  0.0737
17145W        W32762  14.147   4.282   3.572 -0.2946 -0.0115 -0.1901
17146W        W32763   9.802  16.208   2.133  0.3457  0.1011  0.0922
17147W        W32764   9.459   4.194  11.868  0.0218  0.0472 -0.2403
17148W        W32765   7.862   2.314  14.218  0.0149  0.2984  0.0921
17149W        W32766  13.011   1.599   0.906 -0.0818 -0.0760  0.0548
17150W        W32767   2.398  11.099  13.492 -0.0182  0.0565  0.4317
17151W        W32768   7.975   4.918  12.649  0.1575 -0.0312 -0.1871
17152W        W32769   8.034  16.377  14.012  0.0491 -0.1512  0.3137
17153W        W32770   3.920   0.973   2.907 -0.0560  0.1465  0.1669
17154W        W32771   8.572   7.403   3.690 -0.1128 -0.2685 -0.1473
17155W        W32772  16.351   4.932  14.827 -0.1007  0.1851 -0.2170
17156W        W32773  17.464   0.695  15.731 -0.0587  0.3758 -0.0864
17157W        W32774   2.253   9.021  12.707 -0.0836  0.1317  0.2072
17158W        W32775  18.582   6.242  14.104  0.2021  0.2324 -0.0329
17159W        W32776  14.357   0.746   2.581 -0.2103 -0.2144  0.1526
17160W        W32777  10.565  11.771  13.285 -0.1217  0.0306  0.0908
17161W        W32778   9.967  17.764  10.620  0.1984 -0.1653  0.0781
17162W        W32779   0.310   5.802  11.238  0.2346 -0.3770  0.1003
17163W        W32780   0.704   9.388   0.710  0.0146  0.0238 -0.0963
17164W        W32781   9.220   5.436  14.423 -0.3797 -0.1989 -0.0025
17165W        W32782   0.128  15.112   1.807  0.3978 -0.1779  0.1990
17166W        W32783  15.624   1.248  15.205  0.2212 -0.1377 -0.0907
17167W        W32784   2.630   1.799  14.838 -0.0554  0.2457  0.0435
17168W        W32785   4.975   2.040  12.500 -0.1117  0.3981 -0.1928
17169W        W32786   4.148   4.083  15.593 -0.0989  0.0324 -0.1694
17170W        W32787  17.233   6.656   1.764  0.1734  0.1570  0.0471
17171W        W32788   5.522   3.911   5.535  0.3164  0.2021  0.3173
17172W        W32789   0.708  13.830   3.190 -0.2312  0.0607  0.3809
17173W        W32790   3.674  15.961  11.270  0.3350 -0.2348 -0.0053
17174W        W32791   9.229   3.257  13.593 -0.1156  0.2366 -0.3694
17175W        W32792   4.755  15.138   2.681 -0.1419 -0.0813 -0.1210
17176W        W32793  12.090  10.882   4.900  0.2278  0.1042  0.1768
17177W        W32794  16.891  11.272   0.325 -0.0992  0.0544  0.1562
17178W        W32795   9.258  12.568   1.706  0.1339  0.1938 -0.0879
17179W        W32796   9.974   3.735   0.067 -0.1575  0.2189 -0.0809
17180W        W32797   0.022   4.987   2.358 -0.1125  0.1479 -0.1805
17181W        W32798  12.075   3.142  11.576  0.2402 -0.0171  0.1179
17182W        W32799  14.564  15.707   4.314  0.2206 -0.1317 -0.1595
17183W        W32800  15.384  11.702   4.082 -0.0425 -0.2077  0.1165
17184W        W32801  11.087   3.355   6.444  0.1297 -0.0671  0.0042
17185W        W32802  16.839   8.740   2.122  0.0417 -0.1036  0.0753
17186W        W32803   2.249  12.208  14.604 -0.0658  0.0412 -0.4435
17187W        W32804  15.999   5.034   3.098  0.0523  0.0337 -0.0472
17188W        W32805   0.033   7.342   9.405 -0.5300 -0.2806  0.0194
17189W        W32806   6.418  11.183   1.232  0.3194 -0.3523  0.0427
17190W        W32807   1.649  11.956   2.332 -0.0964  0.0647 -0.1738
17191W        W32808  12.125  12.355  14.400  0.2484 -0.0703  0.0439
17192W        W32809  15.089  10.543   2.647  0.0631 -0.0931  0.1729
17193W        W32810   7.349  10.510   3.280  0.1012  0.2260 -0.3735
17194W        W32811  17.611  11.606  12.068 -0.1193 -0.2886  0.1270
17195W        W32812  13.446   5.174  11.914 -0.5145  0.3851  0.0404
17196W        W32813  14.130   4.692   0.253  0.4117 -0.2012 -0.0801
17197W        W32814  10.288  13.518  12.027 -0.0906 -0.1423 -0.1598
17198W        W32815  11.643  11.606  13.359  0.1702  0.2848  0.0297
17199W        W32816   0.699  13.102   4.529 -0.1409 -0.0649 -0.2137
17200W        W32817   3.191   0.330  10.885  0.2569 -0.0535 -0.0379
17201W        W32818  11.312  18.382   3.818 -0.0985  0.1158  0.0757
17202W        W32819   8.314  10.005   9.631 -0.1840 -0.0381 -0.0668
17203W        W32820   3.400  14.216  10.899  0.4029  0.0560 -0.0188
17204W        W32821  14.333  15.151   2.384 -0.0265 -0.1099 -0.0682
17205W        W32822   0.019   0.429   4.611 -0.0274 -0.0384  0.0351
17206W        W32823  13.571  12.047   4.120  0.2916 -0.1673 -0.2823
17207W        W32824  15.840  13.655  13.479 -0.0347 -0.2017 -0.2369
17208W        W32825   9.180   6.773   2.790  0.4694  0.3710 -0.1222
17209W        W32826  10.776   2.729  12.449  0.0127  0.0152 -0.1074
17210W        W32827   4.904   4.697   1.854  0.1369  0.3342 -0.0032
17211W        W32828  15.737   0.221   5.334  0.0691 -0.1602 -0.1706
17212W        W32829  16.951   9.548   2.637  0.2729 -0.0305 -0.1210
17213W        W32830  17.027   1.814   4.983 -0.2597  0.1086  0.0441
17214W        W32831   1.329   6.801  12.303  0.0362 -0.1191 -0.4152
17215W        W32832  16.120  14.233  13.701  0.2322 -0.3752  0.0153
17216W        W32833   4.934  12.910  14.882  0.2233 -0.2058 -0.0641
17217W        W32834   7.361   9.777  14.132  0.2232  0.0384  0.0926
17218W        W32835   2.957   3.506   1.795 -0.1228  0.0701 -0.2708
17219W        W32836   8.956   2.200   3.515 -0.1315 -0.0140 -0.3380
17220W        W32837  16.782   0.645   1.339  0.1460 -0.2024  0.1199
17221W        W32838   6.327   3.660   3.862  0.0686 -0.1699  0.0624
17222W        W32839  15.181   8.586  11.615  0.1111  0.0232 -0.2251
17223W        W32840  12.598  16.038  10.888 -0.0468 -0.0662  0.1961
17224W        W32841  11.487   9.591  15.748  0.0209 -0.2224 -0.0537
17225W        W32842  18.564  17.292   1.463 -0.2503 -0.0642  0.3324
17226W        W32843  17.799  18.145   1.672 -0.1864  0.0497  0.1093
17227W        W32844  17.214  11.795   4.995  0.1632 -0.1743 -0.1517
17228W        W32845  12.150  17.581   3.710  0.1474 -0.0866  0.2576
17229W        W32846  10.032   8.924  15.386  0.1860 -0.2639  0.2099
17230W        W32847   7.735   2.501   3.980 -0.2739  0.3052 -0.0704
17231W        W32848   1.939  13.793  15.668  0.1318  0.1500  0.2287
17232W        W32849  16.579  10.571   0.870 -0.1701  0.1435  0.0869
17233W        W32850  17.200  11.714   4.365 -0.2556  0.1322 -0.1172
17234W        W32851  17.152   2.962   5.056 -0.3161 -0.3495  0.1539
17235W        W32852   4.921  12.955   3.954  0.1185 -0.2980  0.0013
17236W        W32853  15.771  18.293   3.996 -0.0184 -0.4269  0.1467
17237W        W32854  18.380  14.920   1.584 -0.0230  0.0951  0.4430
17238W        W32855   6.270   6.976  14.676  0.2265 -0.0884 -0.0657
17239W        W32856   5.804  14.835  12.978 -0.0567  0.1058 -0.1119
17240W        W32857  12.149   6.300   1.511 -0.5227 -0.2426 -0.0355
17241W        W32858   1.266   2.790  11.277 -0.1328 -0.1326  0.1607
17242W        W32859   1.977  17.446  12.991  0.1736 -0.0649  0.0842
17243W        W32860  10.612   7.664   5.102 -0.1027 -0.0151  0.1333
17244W        W32861  10.081  11.803  13.663 -0.3761  0.1335  0.2284
17245W        W32862  12.388   1.750   5.097  0.2046  0.0476  0.4125
17246W        W32863   0.257  14.953   4.298  0.1329 -0.2357 -0.0338
17247W        W32864   3.060  17.774   5.835 -0.3794  0.1447  0.2635
17248W        W32865  12.723   0.873   0.544  0.2198 -0.0540  0.2002
17249W        W32866   7.876   9.819  11.369  0.1354  0.1723  0.2254
17250W        W32867  15.844   9.358  11.795 -0.2487  0.1126  0.1846
17251W        W32868   1.658  12.320   1.598 -0.1238 -0.3032 -0.0599
17252W        W32869   9.521   2.926   2.773 -0.3927 -0.0187  0.2381
17253W        W32870  17.071   7.979  11.732 -0.1205 -0.0150 -0.1693
17254W        W32871  18.324   3.948  12.937  0.0570 -0.0665 -0.3153
17255W        W32872  11.591   2.865   0.640  0.0715 -0.0448 -0.2375
17256W        W32873   8.133  15.164  13.142 -0.0742  0.2383 -0.0335
17257W        W32874  10.046   7.749  14.789  0.0863 -0.2593  0.0979
17258W        W32875   2.025  13.998   5.339 -0.2944 -0.0305 -0.1395
17259W        W32876   0.618  17.608   3.656  0.0556  0.0775  0.1623
17260W        W32877   5.762   7.713  15.470  0.4032 -0.0441 -0.1251
17261W        W32878   2.258   1.085  11.487 -0.1480 -0.3911 -0.2466
17262W        W32879  13.108   0.650   5.226  0.2635  0.3658  0.0779
17263W        W32880  16.592   0.651   0.836 -0.1906 -0.1382 -0.1874
17264W        W32881   9.090   6.846  12.195 -0.4465 -0.1563 -0.0730
17265W        W32882  13.076  10.237   1.777  0.0510 -0.1815  0.0035
17266W        W32883   6.642   2.920   1.701  0.2033 -0.2279  0.0038
17267W        W32884   9.806  16.615  10.903 -0.1797  0.0353 -0.0780
17268W        W32885   3.235   5.188  13.353  0.0593  0.2025 -0.0025
17269W        W32886   8.316   1.390  14.401 -0.1204 -0.0110 -0.1507
17270W        W32887  14.477   7.372  13.346  0.1134 -0.2240  0.0562
17271W        W32888   6.741  10.277   0.207  0.1614 -0.2923  0.0965
17272W        W32889   6.700   9.451   1.765 -0.3004 -0.3339 -0.1276
17273W        W32890   9.907   8.965  12.963 -0.1259 -0.0224  0.0885
17274W        W32891   8.326  11.884  15.538 -0.2162 -0.2823  0.0189
17275W        W32892   7.109   5.596   1.236 -0.0133 -0.1899 -0.0583
17276W        W32893   4.438  16.734  11.219  0.0080 -0.0987  0.2448
17277W        W32894   5.441  10.364   3.372  0.2693 -0.0397 -0.2525
17278W        W32895   3.033   7.294  10.525  0.1404  0.1339  0.1385
17279W        W32896  13.608   4.993   4.869 -0.1918 -0.0459 -0.3316
17280W        W32897   4.964  12.029  13.849 -0.1546  0.0752 -0.0382
17281W        W32898   7.077  13.564  13.001  0.2400 -0.0634  0.2560
17282W        W32899   9.995   3.071   2.661 -0.5391  0.2721 -0.0456
17283W        W32900  12.573   6.361  13.929 -0.1342  0.1512 -0.0977
17284W        W32901   9.637   1.644   1.212 -0.2940  0.2061 -0.1897
17285W        W32902   0.115   0.805   4.264  0.2232  0.0873  0.2083
17286W        W32903  11.449  13.497   3.884  0.0205 -0.2549  0.1231
17287W        W32904   4.283  13.243   2.777  0.1553 -0.0397  0.1116
17288W        W32905   2.000   9.420   0.996 -0.1165  0.0948  0.2338
17289W        W32906  11.512  17.295  15.213  0.0376 -0.0833 -0.3858
17290W        W32907  13.120   1.822  13.382  0.0109  0.0852  0.0616
17291W        W32908   0.644   0.721  14.129 -0.0699  0.0912 -0.0833
17292W        W32909   4.993   8.056  14.440  0.0098 -0.4132 -0.0693
17293W        W32910  10.315  10.489  11.016 -0.1825 -0.0193  0.0929
17294W        W32911   5.179   7.178   5.303  0.0373  0.0341  0.0052
17295W        W32912  14.028  12.190   4.576  0.0247  0.0371 -0.0345
17296W        W32913   2.276  16.504   2.632  0.1159 -0.0780 -0.4580
17297W        W32914  11.796  15.797   2.452  0.1735  0.0590 -0.0978
17298W        W32915  13.769  11.457  13.853  0.0284  0.2634 -0.0982
17299W        W32916   1.508   4.032  11.606  0.3103 -0.3342 -0.1234
17300W        W32917   3.551  12.661   0.641  0.4262  0.0849  0.0088
17301W        W32918   8.605   7.375   1.160 -0.3143  0.3698 -0.0556
17302W        W32919   1.393   3.386  12.531  0.0725  0.0946  0.0044
17303W        W32920  14.375   6.372   0.674 -0.0319  0.2827  0.1038
17304W        W32921  10.787  15.431   1.819 -0.0852 -0.0649  0.1114
17305W        W32922   5.986  12.382   0.533 -0.2368 -0.0682 -0.2163
17306W        W32923   7.510   0.510   1.192 -0.0760 -0.2166 -0.2318
17307W        W32924   7.470   0.298  15.000 -0.1438 -0.2290  0.3486
17308W        W32925   5.389   0.996  14.208  0.1697  0.1656 -0.1055
17309W        W32926  16.573  13.854  13.510  0.0819  0.1763  0.1919
17310W        W32927  15.592  10.989  12.073 -0.1071 -0.0830 -0.1749
17311W        W32928   3.669  15.710   0.357 -0.0737  0.0605  0.0328
17312W        W32929  18.480  11.147  11.152 -0.0517 -0.3416  0.0798
17313W        W32930  12.185  14.212   2.719  0.1204  0.0715 -0.0536
17314W        W32931  10.028  16.204   0.519 -0.1550 -0.0409 -0.5001
17315W        W32932  11.245  10.589   5.469  0.0569 -0.3072 -0.0284
17316W        W32933   8.102   7.353  13.944 -0.0857 -0.0248  0.0482
17317W        W32934   3.835   2.027  12.832  0.0854  0.0249 -0.1963
17318W        W32935  12.418   7.661   0.929 -0.0724 -0.1298  0.0428
17319W        W32936   8.919   6.985   0.277  0.2556 -0.2593 -0.1948
17320W        W32937   0.750  17.968   2.360 -0.0169 -0.2714 -0.1364
17321W        W32938   6.173  16.397   4.001 -0.0570 -0.2322  0.0980
17322W        W32939  15.680   3.134   3.835 -0.1148 -0.0367  0.0304
17323W        W32940  13.147  10.044  13.313  0.1809 -0.1910 -0.2468
17324W        W32941   5.548  13.676   4.044 -0.0885  0.1253  0.0795
17325W        W32942   2.661   8.489  13.876 -0.2429 -0.1802 -0.4427
17326W        W32943   3.913   0.626  13.098 -0.1236 -0.1643  0.1336
17327W        W32944   4.978   1.879   2.279  0.1223 -0.0595  0.0489
17328W        W32945   2.590   8.359   2.825  0.1591  0.0673 -0.4539
17329W        W32946   2.207  12.498  13.521  0.0959  0.4196  0.0187
17330W        W32947   5.203   1.135   3.514  0.2183  0.1404 -0.0068
17331W        W32948   9.773  16.240   3.702 -0.0135 -0.0642 -0.2072
17332W        W32949   6.823  16.325   2.653  0.0768 -0.1199 -0.0876
17333W        W32950   3.290  18.078   5.064 -0.1555 -0.4748 -0.1649
17334W        W32951  15.209   5.664  15.046  0.1764 -0.3925  0.2729
17335W        W32952   7.316  13.963   0.827  0.1067  0.0414  0.2108
17336W        W32953  14.352  18.201   0.980  0.0060  0.0481 -0.2591
17337W        W32954  12.312  13.006   0.597 -0.0481 -0.0888  0.0023
17338W        W32955  18.229  12.017   3.465 -0.2390  0.0393 -0.0545
17339W        W32956   2.605   8.719  12.792 -0.0066  0.3902  0.1377
17340W        W32957  11.039  17.823  14.195 -0.0607 -0.0286  0.1479
17341W        W32958  17.379  15.235  12.117 -0.4011  0.1201 -0.1162
17342W        W32959   8.972   2.942  11.559 -0.0173 -0.3066  0.1856
17343W        W32960   4.304   0.394  14.525 -0.1358 -0.2684  0.2507
17344W        W32961   5.385  17.585  12.370  0.2057 -0.5221 -0.1901
17345W        W32962   3.336   2.579   3.065  0.1742 -0.0152 -0.1088
17346W        W32963   2.348  12.652  11.887  0.3288  0.2721  0.0930
17347W        W32964  15.218   2.132  12.218  0.1974 -0.0836 -0.2318
17348W        W32965   1.954   2.813   0.274 -0.0682 -0.0274  0.0234
17349W        W32966   7.445  10.980   2.844  0.1094  0.1772  0.1054
17350W        W32967  17.097   5.386   2.090 -0.1818 -0.0675  0.1085
17351W        W32968   7.462  14.251   3.984 -0.0361  0.2608  0.0646
17352W        W32969   1.615   5.749  12.533  0.1611 -0.2143 -0.0305
17353W        W32970  13.520  12.584   4.123 -0.1681  0.1521 -0.1141
17354W        W32971   5.318  18.516   1.565 -0.1735  0.0650 -0.0009
17355W        W32972  13.397  12.719   0.468  0.0160  0.3635 -0.1667
17356W        W32973   6.198   2.518   2.812 -0.0282  0.1804  0.2424
17357W        W32974  14.240  12.043   0.642 -0.2021 -0.0940 -0.2831
17358W        W32975  12.941  13.758   0.829  0.0865  0.2478  0.3545
17359W        W32976   9.727   7.049  15.704  0.0497  0.4631  0.0777
17360W        W32977   8.932   5.087   3.116  0.1561  0.0940 -0.1038
17361W        W32978  10.732  13.409  13.756 -0.2621 -0.1421  0.0027
17362W        W32979  17.195   6.522   4.119  0.0058 -0.4455  0.0355
17363W        W32980  12.185  17.759  14.253  0.1209  0.3760  0.1691
17364W        W32981   4.801  17.937   4.826 -0.0368  0.1445 -0.1836
17365W        W32982  17.813  15.041   3.949  0.3379 -0.0369 -0.2862
17366W        W32983  14.886  18.245  12.144  0.0070 -0.2250 -0.1378
17367W        W32984   6.362   5.665   0.798  0.1644  0.0674  0.1151
17368W        W32985   4.233   4.452   4.052  0.2337 -0.0474  0.0921
17369W        W32986   4.325   1.850   5.635 -0.0498  0.2466  0.2048
17370W        W32987   8.634  10.886  12.260 -0.0083 -0.1733 -0.1566
17371W        W32988  16.882   6.188   1.953  0.1781  0.0038  0.2949
17372W        W32989  16.529  12.877   2.504 -0.1520 -0.0532  0.2410
17373W        W32990   8.066  14.730   1.716 -0.0617 -0.0201 -0.0935
17374W        W32991  13.358  16.398   2.941  0.1565 -0.0938  0.0844
17375W        W32992   2.704   4.672   2.559  0.0912 -0.1790  0.1126
17376W        W32993  17.642  16.772  13.089 -0.1338 -0.0475 -0.1728
17377W        W32994   8.750   5.815   1.251  0.0382  0.1397 -0.0615
17378W        W32995  11.218   7.418   3.565  0.1219  0.1375  0.0556
17379W        W32996  17.943   6.309   0.898 -0.1417 -0.0120 -0.1083
17380W        W32997  16.307   3.874  13.115 -0.0624 -0.3617  0.1794
17381W        W32998   0.016   8.066  11.541  0.1847 -0.2894  0.0732
17382W        W32999  16.921  13.619  10.331 -0.2979 -0.0547  0.3122
17383W        W33000  16.019   2.037   4.626 -0.1903 -0.0463 -0.0501
17384W        W33001  15.780   9.758  14.839  0.0064 -0.1186 -0.2126
17385W        W33002   2.085  17.547   1.263 -0.1183 -0.2372 -0.1351
17386W        W33003  14.556   4.719  12.268  0.2442  0.1456  0.1084
17387W        W33004   7.390  13.729  10.567  0.2874 -0.0498  0.5466
17388W        W33005   9.670   3.526   3.679 -0.2851  0.1456 -0.0189
17389W        W33006  16.395  10.162  11.988  0.3068  0.1610  0.0665
17390W        W33007   7.992   3.491   4.310 -0.0455 -0.0559 -0.3701
17391W        W33008   1.543   5.442   4.058  0.0077  0.0524 -0.0009
17392W        W33009   9.842   9.365   4.127  0.1813  0.0983  0.0755
17393W        W33010   5.318   9.673   1.162 -0.3273 -0.0805 -0.3430
17394W        W33011   7.334  16.547  14.212  0.2569  0.2726 -0.2562
17395W        W33012  17.561   2.625   1.893  0.1533  0.1772 -0.1524
17396W        W33013  14.136   8.830   1.322  0.0837 -0.2040  0.0977
17397W        W33014   4.685   1.976   5.256  0.3522 -0.0509 -0.0602
17398W        W33015  12.899   3.716  11.599 -0.0626  0.1077 -0.0156
17399W        W33016   1.674  12.154   0.166 -0.0045  0.1377 -0.0957
17400W        W33017   2.361   9.667  11.354  0.0051 -0.1429  0.2027
17401W        W33018   0.407   8.859   5.388  0.2470 -0.1032  0.1856
17402W        W33019   5.854   4.082   0.428  0.1725  0.0405  0.0189
17403W        W33020  10.932  13.045  10.386  0.0428 -0.1071 -0.0639
17404W        W33021   4.854   5.873   2.411  0.0229 -0.0509 -0.0945
17405W        W33022  13.129   4.343   4.791  0.0608 -0.0772  0.2090
17406W        W33023  11.618   6.053   0.367  0.1587  0.1312  0.0405
17407W        W33024   7.705  16.118   2.689 -0.0383  0.5001 -0.2204
17408W        W33025   8.716  15.981   3.254 -0.0340 -0.3614  0.1096
17409W        W33026  12.416  12.778  14.567  0.5400 -0.1125 -0.1253
17410W        W33027   2.610  14.825   0.307 -0.0797  0.0933 -0.1820
17411W        W33028   1.614  15.678   2.191 -0.1218 -0.0328  0.2401
17412W        W33029   7.520  10.724   1.829  0.0646 -0.1837  0.0124
17413W        W33030   7.344   5.080   5.153 -0.1793 -0.0042 -0.1897
17414W        W33031  12.171   2.701   4.068  0.0311  0.0147 -0.0683
17415W        W33032   9.952   8.915   4.554 -0.5273  0.0691  0.0889
17416W        W33033   0.781  15.993  12.278  0.1513  0.0887  0.0762
17417W        W33034   7.737   0.169   5.172 -0.3038 -0.0267  0.0635
17418W        W33035   0.756  14.312  12.091 -0.0992  0.0482 -0.1551
17419W        W33036  11.091  14.503  14.604  0.0238  0.1941 -0.1673
17420W        W33037  15.887  14.145  13.237  0.0116 -0.0901 -0.1020
17421W        W33038   2.530  17.566  13.551 -0.1802 -0.0174 -0.1782
17422W        W33039  12.381   0.784   6.159 -0.1001 -0.0265 -0.2178
17423W        W33040   3.529  12.324   1.199 -0.1011  0.1591  0.2149
17424W        W33041   1.861  11.640   1.945 -0.0147  0.2136  0.0660
17425W        W33042  17.789  14.502  11.518  0.2707 -0.0168 -0.3371
17426W        W33043   4.372   0.040   0.535 -0.1479  0.1406  0.2702
17427W        W33044   2.195  11.916  13.650  0.6202  0.0781  0.2707
17428W        W33045  17.508  14.619  12.860 -0.2698  0.3559  0.0282
17429W        W33046  12.891  10.625   9.204 -0.2822  0.0684  0.0363
17430W        W33047  14.517  15.470  10.833  0.0450  0.2056 -0.0486
17431W        W33048  16.596   5.839  14.954 -0.2719  0.0871 -0.0052
17432W        W33049  15.045  11.830  12.586  0.0272 -0.0395 -0.1110
17433W        W33050  14.017  10.417  11.851 -0.1519  0.1031 -0.2898
17434W        W33051  12.595  11.475  15.240  0.0928 -0.0236 -0.2348
17435W        W33052   2.049  15.781  12.476  0.0558 -0.4637 -0.0198
17436W        W33053  10.426   4.753   2.126  0.1072  0.0119 -0.2586
17437W        W33054  16.331   8.955   2.707  0.0061 -0.3169  0.2706
17438W        W33055   1.555   4.625   3.293  0.0923  0.1267  0.0510
17439W        W33056   9.134   4.148   2.641  0.1595 -0.0344 -0.1894
17440W        W33057  10.776   3.874   1.592  0.3028  0.0218 -0.1038
17441W        W33058   3.037  18.636   2.803 -0.2036  0.0987  0.3361
17442W        W33059   0.857  16.476  12.172  0.0052  0.1478 -0.0651
17443W        W33060  13.516   4.917   2.890 -0.4640  0.2908  0.2528
17444W        W33061   2.904  11.263  11.699 -0.2185 -0.5061  0.1042
17445W        W33062   3.457  18.514  15.366  0.1787 -0.1822  0.1661
17446W        W33063   7.819  13.777  15.757 -0.0254 -0.1154 -0.0671
17447W        W33064   6.882   2.523   2.359 -0.0759  0.0699  0.1000
17448W        W33065  17.608   7.648  12.576 -0.1053 -0.0246 -0.1841
17449W        W33066   3.775  13.037  13.474 -0.0695  0.0075  0.2081
17450W        W33067   0.223  13.423   0.837  0.0105  0.1834 -0.1443
17451W        W33068  14.835  17.240  12.604  0.1631 -0.0092  0.5568
17452W        W33069  10.370   9.742  11.334 -0.0682  0.2358  0.2898
17453W        W33070   6.556  10.310  11.164  0.0070  0.1073  0.0380
17454W        W33071  16.371  14.343   0.598 -0.1832  0.1858 -0.0687
17455W        W33072  13.303  11.676   3.118 -0.2957 -0.1396  0.2175
17456W        W33073  15.408  16.486  15.027 -0.1523  0.0785 -0.2328
17457W        W33074  13.539   9.788   3.728 -0.1710  0.0953  0.1996
17458W        W33075  11.073  16.834   3.864 -0.0981  0.0590  0.0651
17459W        W33076  15.240   3.971  14.191  0.6983  0.2803 -0.0685
17460W        W33077   9.417   9.034   1.476 -0.0788  0.1185  0.1249
17461W        W33078  11.181  16.845   2.063  0.1071 -0.3513  0.1057
17462W        W33079  16.366   9.613   0.484 -0.1111  0.1146 -0.4173
17463W        W33080   1.133  14.582   5.042  0.3597  0.1205  0.0988
17464W        W33081  13.787  14.315  13.746  0.1104 -0.0477 -0.2020
17465W        W33082  17.072   0.929   5.505  0.2738  0.0665  0.1232
17466W        W33083   9.373   9.469   3.934  0.0898 -0.0127  0.0033
17467W        W33084  13.702  17.809   5.629  0.2861 -0.0377  0.1420
17468W        W33085   1.122   8.759   5.112  0.0771 -0.0543 -0.1855
17469W        W33086  13.291   9.920  15.682  0.0167  0.0162  0.1674
17470W        W33087  12.946  12.228  10.381 -0.2387 -0.1732 -0.3478
17471W        W33088  14.479   9.567   2.779  0.0083 -0.0524  0.1230
17472W        W33089  16.049   3.179   2.165  0.1764  0.2301 -0.1241
17473W        W33090  10.044  18.622  14.821 -0.0953  0.2407  0.1784
17474W        W33091   8.660   6.690  14.312 -0.0012 -0.1020 -0.0227
17475W        W33092   7.889  15.874   4.310  0.0249  0.0315  0.2991
17476W        W33093   6.181   6.544  13.206 -0.0297  0.0560  0.2178
17477W        W33094   0.248   9.086  11.518 -0.0626 -0.0731 -0.0450
17478W        W33095   4.265   1.796  15.123 -0.0359 -0.0830  0.1229
17479W        W33096  17.150   9.085   2.505  0.0900  0.1261  0.1656
17480W        W33097  15.292  17.416  11.491 -0.0974  0.2602  0.0002
17481W        W33098  11.105  11.001   0.041 -0.3050  0.1750 -0.0401
17482W        W33099  12.296  14.131  11.380 -0.4125 -0.0574  0.3355
17483W        W33100   9.720   5.676   0.253 -0.0521 -0.1067  0.0938
17484W        W33101  14.772  16.207  14.381  0.1290  0.2079 -0.0100
17485W        W33102   3.871   3.797   1.245 -0.2270 -0.0073 -0.2288
17486W        W33103   7.432  17.859   3.140  0.0013  0.0855  0.1460
17487W        W33104   8.190   0.857   1.217 -0.0545 -0.3539 -0.4219
17488W        W33105   0.772  16.829  11.733 -0.0239 -0.0546  0.2778
17489W        W33106   9.498   7.506   4.302 -0.1214  0.0630 -0.3165
17490W        W33107   1.567   9.768   2.562 -0.0483  0.1489  0.2200
17491W        W33108  14.169   1.542  11.698 -0.1239 -0.0147  0.0556
17492W        W33109  12.332   6.927   2.566  0.0614  0.1467  0.0049
17493W        W33110   3.929  10.974  10.207  0.0037  0.1167 -0.1832
17494W        W33111  18.529  18.599   5.261  0.1799 -0.2218 -0.0605
17495W        W33112   0.824   8.356  12.921 -0.0376  0.0146 -0.1569
17496W        W33113   9.423  17.073  13.353  0.1656 -0.0294 -0.2397
17497W        W33114  12.522   6.314   2.400 -0.5130  0.2874 -0.2354
17498W        W33115   7.570   7.754  15.725 -0.0697 -0.0782  0.2399
17499W        W33116   3.467   4.247   5.642  0.1081  0.2415  0.2406
17500W        W33117  17.765  17.242   2.484  0.2586  0.1784 -0.1138
17501W        W33118  12.051   6.706   1.194  0.2135 -0.2568 -0.0659
17502W        W33119   2.413  15.693   2.093  0.0635  0.0948 -0.3692
17503W        W33120  12.056   7.603   3.272  0.3970 -0.2409  0.0388
17504W        W33121  13.687   2.001   0.642  0.1435 -0.1485 -0.0769
17505W        W33122   2.640  18.341   2.805  0.3165  0.1307 -0.0573
17506W        W33123   0.034  13.536  11.769  0.0771 -0.1732 -0.0173
17507W        W33124  13.267   0.096   0.306 -0.3678 -0.0164 -0.0776
17508W        W33125   7.545  17.831  14.779 -0.0399 -0.0871 -0.6539
17509W        W33126   4.772  13.857  15.268 -0.0579 -0.3017  0.0293
17510W        W33127   4.071   9.280   5.516 -0.1428 -0.1140  0.2545
17511W        W33128  10.413  12.661  13.229  0.2550 -0.0325  0.1871
17512W        W33129  17.074  12.640   4.440 -0.1661  0.0070  0.1420
17513W        W33130  12.861  14.988  13.029  0.1766  0.2865  0.6443
17514W        W33131   5.394  16.233  11.408 -0.4517  0.4623  0.0672
17515W        W33132  12.889   8.522  12.300  0.1398  0.1348  0.2300
17516W        W33133   9.015   2.346  14.989 -0.2020 -0.2766 -0.0630
17517W        W33134  11.870  10.696  15.252  0.0065 -0.1163 -0.0956
17518W        W33135   2.753   0.116   2.373 -0.0511 -0.0641 -0.0152
17519W        W33136  17.728  12.217   1.938  0.0632 -0.2173  0.0332
17520W        W33137   3.811  18.527  15.780 -0.0849  0.2570 -0.2027
17521W        W33138   2.880  10.531  12.672 -0.2844  0.0910 -0.2599
17522W        W33139   2.848   5.055   2.877  0.2760  0.1764  0.1962
17523W        W33140   9.897  11.673   2.960  0.0519  0.2007 -0.2180
17524W        W33141  13.829  18.367   4.768  0.0926 -0.0348  0.2308
17525W        W33142  16.826   0.829  12.059 -0.0431  0.2427  0.1494
17526W        W33143   9.270   5.747  14.896  0.2084  0.0292 -0.0138
17527W        W33144  14.219   9.534  15.616  0.0481 -0.3290  0.0741
17528W        W33145  13.736   4.475  15.726 -0.0917 -0.0439  0.3097
17529W        W33146  14.093  10.080  13.361  0.1542  0.5132  0.0100
17530W        W33147  12.492  16.433  12.722  0.2010 -0.3181 -0.2361
17531W        W33148  18.404  18.288  14.979 -0.1121  0.0401  0.4267
17532W        W33149   5.115  17.549   3.293 -0.0061 -0.1474 -0.0198
17533W        W33150  11.299   0.399   3.399 -0.0423  0.0138 -0.0719
17534W        W33151   9.754  15.347  11.898 -0.0974 -0.0542 -0.1055
17535W        W33152  18.545  15.001  13.637  0.0816 -0.0618 -0.0178
17536W        W33153   3.389   3.400   1.518  0.0345 -0.2384  0.1441
17537W        W33154  17.507   6.123  10.009  0.1106  0.0125 -0.1296
17538W        W33155   2.417  10.954  10.321 -0.1515 -0.5910  0.4323
17539W        W33156   8.543  12.030   3.287  0.1698 -0.1936  0.0341
17540W        W33157   0.085  13.979   0.074  0.0488 -0.0010 -0.3775
17541W        W33158  11.502  11.542   3.711 -0.2522 -0.0450 -0.1517
17542W        W33159   7.996  13.338   5.801  0.1088  0.2324  0.1907
17543W        W33160  13.041   7.988  14.535  0.0527  0.1560  0.2629
17544W        W33161   0.808   1.326  14.797 -0.1310 -0.1388 -0.1044
17545W        W33162   7.252   4.655  11.191  0.1187 -0.0385  0.1436
17546W        W33163  12.186   2.578  11.678 -0.1502 -0.0841  0.0426
17547W        W33164   8.511   1.829  13.927 -0.0854 -0.1302 -0.3880
17548W        W33165  11.743   4.679  12.195  0.2076 -0.0940 -0.1265
17549W        W33166   8.275  17.324  14.745 -0.3057  0.0826 -0.0586
17550W        W33167  11.291  15.660  13.866  0.2744  0.0712 -0.2164
17551W        W33168  14.871  17.209  15.737 -0.1645  0.1305 -0.2590
17552W        W33169  13.721   5.015   3.410 -0.2328 -0.2575  0.0005
17553W        W33170  12.089   9.201   2.275 -0.0273  0.1038 -0.1974
17554W        W33171   5.691   4.672   2.923 -0.0872 -0.1135  0.2163
17555W        W33172   1.794  18.370  11.702 -0.1092 -0.0141 -0.3330
17556W        W33173  13.872   3.613  12.464  0.1524  0.0644  0.1021
17557W        W33174   1.244  10.289   3.692  0.1096  0.1548 -0.2761
17558W        W33175  17.630  12.537  10.678  0.3311 -0.1336  0.1668
17559W        W33176   6.426  16.882   5.229  0.1194  0.0597  0.1923
17560W        W33177  17.379  12.637  12.182  0.1792  0.3209 -0.0306
17561W        W33178   8.898   9.200  15.401  0.0595 -0.1324  0.0526
17562W        W33179  11.970  18.349   0.667 -0.1970  0.2939  0.1390
17563W        W33180   9.682   1.303   4.254  0.1001 -0.1511  0.1317
17564W        W33181  16.097  10.327  13.663  0.1862 -0.0274  0.0737
17565W        W33182  12.227  15.071   9.926 -0.1710 -0.2559 -0.0553
17566W        W33183  13.436   9.323   3.473 -0.1495 -0.2637 -0.1596
17567W        W33184  14.945   3.227   2.431  0.3264 -0.2660 -0.0525
17568W        W33185  16.152   3.879   1.154 -0.1778  0.0858  0.0510
17569W        W33186  13.326   6.399   4.955  0.3805  0.0018 -0.2268
17570W        W33187  11.383   7.164  15.296 -0.0769  0.4462  0.2754
17571W        W33188   8.127  18.317  15.652  0.1417  0.0393 -0.2091
17572W        W33189  13.878  14.915   2.490 -0.0573 -0.2246  0.3078
17573W        W33190  10.183  18.016   4.772  0.1274 -0.0081  0.1544
17574W        W33191  11.483   5.628   5.957 -0.1669 -0.1152 -0.0408
17575W        W33192   1.157  11.521   0.900  0.0641  0.0324  0.0539
17576W        W33193  18.598  15.187   4.024 -0.0343 -0.0060 -0.0480
17577W        W33194   4.439   8.063   3.536  0.0724  0.0442 -0.0973
17578W        W33195   0.971  18.375  14.263 -0.1204 -0.0773  0.2545
17579W        W33196   0.752  17.529  11.355  0.0943  0.0151  0.0465
17580W        W33197   3.050   1.305   2.525 -0.0142 -0.0478  0.0419
17581W        W33198   0.616  14.873   3.203 -0.0678 -0.0140  0.0145
17582W        W33199   5.651   9.162   0.452 -0.3888  0.0730 -0.0093
17583W        W33200   4.374  17.492  13.862  0.0903 -0.0336  0.1213
17584W        W33201  18.475   3.728  10.961 -0.0325  0.0469 -0.1732
17585W        W33202  11.954  16.027  14.313 -0.1628 -0.0175 -0.0338
17586W        W33203  12.017   1.085   6.005 -0.3375 -0.1727 -0.0683
17587W        W33204  10.959   8.155   3.313 -0.0607  0.1640  0.0823
17588W        W33205  14.488   9.302  13.906 -0.1468 -0.2944 -0.2363
17589W        W33206  15.989  15.844  14.357  0.1155  0.1939 -0.0165
17590W        W33207   5.344  12.027  13.299 -0.0761  0.2200  0.0304
17591W        W33208   9.284   6.515   2.287  0.2837 -0.1807  0.1280
17592W        W33209   0.674  11.248   0.773 -0.0360 -0.0160 -0.1001
17593W        W33210  17.220   9.556  10.827 -0.0499 -0.1352 -0.2437
17594W        W33211   1.919  11.033   2.588  0.0400  0.1942  0.4286
17595W        W33212  15.975  14.861  14.875 -0.2587  0.1969  0.0833
17596W        W33213  18.451  18.343  12.313  0.1980 -0.2401  0.0674
17597W        W33214  10.965  14.632  12.224 -0.1064 -0.1263  0.0439
17598W        W33215  16.714   4.135  11.354 -0.1907 -0.0922 -0.1286
17599W        W33216   0.511  17.741  12.759 -0.0763 -0.1009  0.0130
17600W        W33217  17.390   9.880   3.038 -0.1017  0.0456 -0.2012
17601W        W33218  16.808   5.782   2.935  0.1935  0.0817 -0.2082
17602W        W33219  15.688  16.101   0.089 -0.1473 -0.2619 -0.3148
17603W        W33220   4.562  11.263   0.801 -0.2365 -0.1725  0.2039
17604W        W33221   3.200   2.891  12.384  0.1229  0.3909  0.0460
17605W        W33222  15.096  12.117   1.092 -0.0819  0.1693  0.0456
17606W        W33223   6.174   8.541  12.402  0.0852  0.0725 -0.0269
17607W        W33224  17.957   2.833  13.794 -0.0757 -0.0408  0.4710
17608W        W33225  11.315  17.085   1.650  0.1645  0.1285  0.1826
17609W        W33226   3.140   9.432  12.101 -0.1984 -0.1968 -0.0436
17610W        W33227   9.163   3.284  15.190 -0.0299  0.1279 -0.0061
17611W        W33228  10.400   9.638   0.787 -0.3075 -0.2510 -0.1054
17612W        W33229  10.757   2.398  12.035 -0.2072 -0.2731  0.1596
17613W        W33230   3.397   0.120  15.762  0.0012  0.0065  0.0172
17614W        W33231  11.088   0.662  11.223  0.0692 -0.3401  0.0868
17615W        W33232  17.789  18.065   5.768 -0.0435  0.2110 -0.2259
17616W        W33233   5.391   6.584   3.227  0.0858 -0.0731  0.0031
17617W        W33234  17.933   0.450  13.634  0.4726 -0.2696  0.0835
17618W        W33235   3.116  18.484  12.051  0.2426 -0.2566 -0.0098
17619W        W33236   3.299   5.514   5.516 -0.1644  0.1456  0.0288
17620W        W33237  11.746   8.213   4.483  0.2503 -0.1539 -0.0414
17621W        W33238   5.979   6.159   4.373  0.0420  0.2267 -0.0873
17622W        W33239   9.951  12.000  14.881  0.2941 -0.1229 -0.0371
17623W        W33240  15.051  18.261  13.352 -0.4023 -0.0988  0.1233
17624W        W33241   2.836   9.954   1.078 -0.1706 -0.0684 -0.1233
17625W        W33242  12.725   3.710   5.707 -0.2123 -0.0866  0.1825
17626W        W33243   1.765  16.555  14.110 -0.0516  0.1252 -0.0323
17627W        W33244   3.814  16.082   2.381  0.1212 -0.1206 -0.1103
17628W        W33245  12.244   7.380   0.585 -0.1859 -0.0676  0.3030
17629W        W33246  10.399  17.673  11.802 -0.0274 -0.3298 -0.0415
17630W        W33247   4.119   6.745  14.982 -0.1321  0.3360 -0.0591
17631W        W33248   1.235  13.442   5.037 -0.0575  0.1485  0.1386
17632W        W33249   7.046   2.235  15.155  0.2797  0.0603  0.3198
17633W        W33250   3.575  11.737  15.504  0.1708  0.0924 -0.0892
17634W        W33251   8.953   8.859  11.863 -0.1171 -0.2382 -0.4836
17635W        W33252   6.116   2.182   5.451 -0.2402 -0.0486  0.2124
17636W        W33253   2.051  18.324   5.429 -0.2187  0.1202  0.3024
17637W        W33254   6.926   8.545   1.457  0.0674 -0.2574  0.0813
17638W        W33255  12.560  15.479   0.754 -0.0441 -0.3356 -0.2539
17639W        W33256   3.660   7.503  15.637  0.1859  0.0938  0.0678
17640W        W33257   1.228   2.082   3.632  0.0044  0.0778 -0.0551
17641W        W33258  14.944   9.979   1.881 -0.2298 -0.3751 -0.0253
17642W        W33259   5.024  10.326   3.743  0.2704 -0.4385  0.1190
17643W        W33260  15.929  16.394  14.354 -0.0088 -0.3279  0.1944
17644W        W33261   6.548   4.099   3.649 -0.1010  0.0116 -0.2981
17645W        W33262   4.183  10.495   1.283  0.0676 -0.0752 -0.0006
17646W        W33263  16.887  10.057  15.679  0.0745  0.1463  0.0771
17647W        W33264   9.496   0.586  13.196  0.1352  0.4166  0.1232
17648W        W33265  14.794   6.584  13.293  0.1149  0.3309  0.1577
17649W        W33266  10.794   2.418  13.215 -0.0663  0.0038 -0.3612
17650W        W33267  17.785  12.772   1.909  0.1649 -0.0202 -0.1169
17651W        W33268   8.928  11.376  15.449 -0.2586  0.3589  0.1472
17652W        W33269  17.160   8.208   1.184  0.3094 -0.4068 -0.0605
17653W        W33270   9.948  18.321  13.934  0.0385  0.0852 -0.1636
17654W        W33271  10.155   4.323  14.932  0.0743  0.2550 -0.5650
17655W        W33272   0.888  17.562   4.899 -0.0926  0.2233 -0.5719
17656W        W33273   0.045   4.480  13.384 -0.0691 -0.3943 -0.3811
17657W        W33274   5.202  11.345  12.576  0.0192  0.1979 -0.1256
17658W        W33275  14.094   1.451  14.195 -0.0927  0.0494  0.0092
17659W        W33276  15.594   0.089   4.765 -0.2515  0.2650 -0.1717
17660W        W33277  13.721   0.360  12.057 -0.0181 -0.1338 -0.0512
17661W        W33278  14.152   2.604  15.108 -0.2298 -0.0488 -0.3382
17662W        W33279   8.970  10.553   3.178 -0.1767  0.0627  0.3618
17663W        W33280  15.242  10.754  15.660  0.2996  0.0952 -0.1968
17664W        W33281  14.729  17.267  12.064 -0.0779 -0.2457 -0.1526
17665W        W33282   1.191   9.672  11.871  0.3117 -0.0553  0.4923
17666W        W33283  12.895  12.867  12.573  0.0746 -0.1813 -0.1457
17667W        W33284  15.989   0.865   1.790  0.3428 -0.3504  0.0599
17668W        W33285   0.702   9.966  15.044 -0.0260  0.2527  0.2289
17669W        W33286   8.007  10.706   0.673 -0.0340  0.1705  0.0504
17670W        W33287   1.361   6.513   0.150  0.0879  0.0659 -0.1768
17671W        W33288  15.565  17.010  12.708 -0.1591 -0.1279  0.0231
17672W        W33289   9.876   9.411   2.202  0.0339  0.1286  0.1126
17673W        W33290  14.894  14.595   5.541 -0.1384 -0.0001  0.0127
17674W        W33291   7.764  14.968  11.911 -0.1263 -0.1029  0.0821
17675W        W33292  17.920   4.817   0.658 -0.1250 -0.1053  0.2948
17676W        W33293   0.093   0.535   0.365  0.1509 -0.1076 -0.2101
17677W        W33294   6.295  17.156  15.194 -0.1034 -0.1465 -0.2227
17678W        W33295   2.682  12.468   2.963  0.2458 -0.5119 -0.1218
17679W        W33296   8.090   2.175  10.910  0.1977 -0.4709 -0.2066
17680W        W33297  16.056   6.747   9.602  0.0133 -0.1627  0.1793
17681W        W33298  10.419   4.194   5.551  0.2795 -0.3395  0.1560
17682W        W33299  12.904   1.007   3.217  0.1848  0.1516  0.1073
17683W        W33300   8.664  10.692  14.150 -0.0091 -0.2396 -0.0467
17684W        W33301  16.740   0.637   2.400  0.0349 -0.1396  0.3270
17685W        W33302   4.826  17.549   2.185  0.0321 -0.1297 -0.1306
17686W        W33303   8.339   3.470   5.352 -0.2735  0.2792 -0.0035
17687W        W33304  15.639   9.015  12.132 -0.3008 -0.1308  0.3834
17688W        W33305   9.019   9.312   5.417  0.0348 -0.1042 -0.0444
17689W        W33306  12.160   8.456  13.899  0.3028  0.2530  0.0894
17690W        W33307  11.348   9.052  11.914  0.3670  0.0108 -0.3449
17691W        W33308   9.180  16.294  14.957 -0.1096 -0.0661 -0.3303
17692W        W33309   2.094  17.666   4.677  0.1313  0.0568 -0.2367
17693W        W33310  15.033   4.403  15.563 -0.1471  0.2317  0.2068
17694W        W33311  15.408   9.028   0.405 -0.5304 -0.0519  0.0944
17695W        W33312   9.256  12.404  13.498  0.0161  0.1186 -0.3110
17696W        W33313  13.865   7.731  14.907  0.0605 -0.1234  0.0481
17697W        W33314   8.554   4.277  11.957  0.2870  0.1499 -0.5624
17698W        W33315   1.108  13.816   1.451  0.0641 -0.0861  0.2520
17699W        W33316  11.799   2.293   1.252  0.0595  0.1745 -0.2812
17700W        W33317   9.189  17.567   1.481  0.1883  0.0920  0.2723
17701W        W33318  15.930  14.321  12.182  0.2311  0.0194 -0.3029
17702W        W33319  18.050   5.394   0.125 -0.0389 -0.0552  0.0650
17703W        W33320   8.409   4.797   2.033 -0.0099 -0.1438 -0.1116
17704W        W33321  11.693   2.560   3.773 -0.2133 -0.1405  0.1102
17705W        W33322  10.777  14.121   2.267  0.3797 -0.0420 -0.1164
17706W        W33323   3.835   2.674   4.403  0.4695  0.3240  0.1098
17707W        W33324   8.268   1.882  13.426  0.0106  0.2812  0.0312
17708W        W33325   9.407   7.957   0.383  0.1727 -0.0504 -0.0319
17709W        W33326   9.324   4.714   4.981 -0.0647 -0.3317 -0.2870
17710W        W33327   5.455  17.929   3.368 -0.0048  0.1206  0.0659
17711W        W33328  15.115   6.154   5.600  0.0410  0.3577  0.1224
17712W        W33329   7.610   4.345   0.617  0.0162 -0.0757  0.0433
17713W        W33330   0.177   9.706  14.035 -0.2458 -0.2845 -0.0714
17714W        W33331   7.495   7.864   2.537  0.0757 -0.1246  0.1857
17715W        W33332  14.187  16.543   3.953 -0.2895  0.6264  0.0940
17716W        W33333  12.646  10.224  12.101 -0.1065 -0.3043 -0.2502
17717W        W33334   1.201   7.421   4.984 -0.2245 -0.1764  0.0049
17718W        W33335   1.984  11.821   3.272  0.2351 -0.0518 -0.2756
17719W        W33336   3.035  14.210   0.779 -0.2059 -0.4952 -0.0413
17720W        W33337   6.189   6.028   2.897 -0.0328  0.2830 -0.0862
17721W        W33338  15.729  16.600  13.214  0.1683  0.1536 -0.0027
17722W        W33339   8.232  11.419   1.946 -0.0627 -0.0141  0.2377
17723W        W33340   1.075  10.529   2.827  0.1880  0.2255  0.1889
17724W        W33341   9.077   1.860   3.889  0.0241 -0.1147 -0.1071
17725W        W33342   9.997  12.696   2.904 -0.1037  0.2915  0.3533
17726W        W33343   8.336  17.625   1.907  0.2402  0.0731  0.1597
17727W        W33344   0.821   1.319  14.221 -0.2157  0.0091  0.1633
17728W        W33345   4.474  10.138  10.317 -0.0998  0.1147  0.3494
17729W        W33346  13.009   0.799   1.661  0.3819 -0.0119  0.0918
17730W        W33347   0.523  17.948  14.924 -0.3262 -0.0517 -0.0672
17731W        W33348   3.108   1.805  13.603  0.0015 -0.1529  0.1593
17732W        W33349   1.475   9.228   3.917  0.1722 -0.0536  0.0738
17733W        W33350  10.474   6.797  11.837 -0.1436  0.2051 -0.1797
17734W        W33351  10.459   5.428  14.948  0.0897  0.1513 -0.2582
17735W        W33352  15.618  14.244   2.474  0.0026  0.0054  0.2119
17736W        W33353  10.669  17.680   1.905  0.0647 -0.2346 -0.2482
17737W        W33354  14.912   3.338  11.219  0.1717 -0.1070  0.1858
17738W        W33355   8.823   2.523   1.072  0.0750 -0.0402  0.0566
17739W        W33356  16.929  10.340   1.298  0.1753  0.1784 -0.0348
17740W        W33357   7.269  18.229  12.526  0.0914 -0.1687 -0.0569
17741W        W33358   7.588   6.574   2.432 -0.0623 -0.3908  0.0266
17742W        W33359  18.459  17.705   0.377 -0.0008 -0.0446 -0.0395
17743W        W33360  18.047   3.534   5.033 -0.0464 -0.4003  0.2667
17744W        W33361   1.219   6.310  13.498  0.1566 -0.0438  0.0243
17745W        W33362  18.599   5.317  12.950 -0.0629 -0.0293  0.1229
17746W        W33363   0.165  17.754   0.741  0.3164  0.1519  0.0550
17747W        W33364   5.495  11.937  14.634 -0.0073  0.0298 -0.1942
17748W        W33365   8.100   3.669  10.836 -0.2023 -0.0384 -0.0332
17749W        W33366   5.531   0.133   2.251  0.2109  0.0313  0.1321
17750W        W33367   6.647   3.866   4.262 -0.4130  0.0408 -0.1626
17751W        W33368  16.573   0.211  12.934 -0.0224 -0.1253  0.0275
17752W        W33369   3.747   8.324   0.209 -0.1220  0.0721  0.1234
17753W        W33370   4.741  16.232  12.647  0.0516 -0.1317  0.2291
17754W        W33371   6.897   0.985  15.347  0.4047 -0.0006  0.0087
17755W        W33372  17.162  13.830  12.940 -0.4494 -0.2073 -0.1775
17756W        W33373   8.180  14.261  12.689 -0.0293 -0.0057  0.2260
17757W        W33374  17.893   6.623  15.261  0.0806  0.2327 -0.2808
17758W        W33375   0.632   7.511   1.255  0.1262 -0.2543  0.2112
17759W        W33376  12.427   1.079   2.421 -0.3226 -0.1379 -0.3664
17760W        W33377  14.749  14.441  15.391 -0.0783 -0.2664 -0.1457
17761W        W33378  10.105  12.482   2.447 -0.0252  0.2193  0.2727
17762W        W33379   0.428  14.892  13.413 -0.0025  0.0285  0.0061
17763W        W33380   8.822   1.872  15.206 -0.4297 -0.0346  0.0907
17764W        W33381  13.244   7.002   0.002  0.2814  0.0640 -0.2905
17765W        W33382   1.470   0.511  13.642  0.1529  0.0459 -0.1779
17766W        W33383   8.932  12.822   2.942  0.0776  0.0362 -0.3348
17767W        W33384   0.734  10.246  11.017 -0.2286  0.4403  0.1680
17768W        W33385   7.450   8.772  14.236  0.1202  0.1248  0.1880
17769W        W33386   4.736   0.382   1.994 -0.2876  0.4043  0.1674
17770W        W33387  14.958   0.002   0.857 -0.1840 -0.0926  0.1182
17771W        W33388   7.851   5.659  13.885  0.4675 -0.0275 -0.0561
17772W        W33389   4.625   7.666  10.438 -0.1161  0.0070  0.0408
17773W        W33390  10.818   0.901   2.244  0.0357  0.2970 -0.0823
17774W        W33391   1.372  15.685   4.295  0.3923 -0.0201  0.2442
17775W        W33392   1.906  17.009  13.223 -0.0571  0.0779  0.0202
17776W        W33393  15.540  14.711  12.105  0.0670 -0.0320 -0.1502
17777W        W33394   0.430   6.461  12.598 -0.0048  0.0864 -0.0916
17778W        W33395  13.503  15.604  12.922  0.4410 -0.0985  0.1503
17779W        W33396  17.947   7.068  14.947  0.0263  0.0917 -0.0076
17780W        W33397  18.161  14.862  11.825 -0.0764  0.0379 -0.0896
17781W        W33398   0.197  17.129   2.442 -0.0977 -0.0278 -0.0471
17782W        W33399   2.310   0.363  12.147 -0.0586 -0.0217  0.0058
17783W        W33400   5.507  10.575   2.679 -0.1316 -0.1070  0.1199
17784W        W33401   3.408   8.578  10.373 -0.1065 -0.0489 -0.0052
17785W        W33402   6.211  18.150  14.937 -0.1630  0.2064 -0.0553
17786W        W33403  18.351  16.910   5.447 -0.1011  0.0910  0.1252
17787W        W33404  12.820  17.236  14.876  0.2009 -0.0350  0.3372
17788W        W33405  14.216   9.995  10.752  0.1319 -0.2194 -0.0718
17789W        W33406   4.872  17.343  13.955  0.0643  0.0730  0.0904
17790W        W33407   8.200  17.107   5.676 -0.3509  0.1008 -0.2478
17791W        W33408   5.801   3.555  13.046 -0.1022 -0.4098  0.2077
17792W        W33409   6.870   1.879  12.666 -0.0319  0.0585 -0.0911
17793W        W33410  17.781  11.854  13.481  0.0577  0.0245  0.1541
17794W        W33411  10.498   9.678   5.738 -0.0540  0.2201  0.2237
17795W        W33412  12.016   9.543   4.260 -0.0796  0.4347  0.3328
17796W        W33413   0.574  12.154  12.732  0.1074 -0.0089 -0.2320
17797W        W33414  17.745   2.669  13.386  0.1038 -0.0717 -0.2643
17798W        W33415  13.602   8.435  15.089 -0.2135 -0.0008  0.1404
17799W        W33416   7.845   1.965   4.351  0.3557  0.4312  0.4640
17800W        W33417  14.417  16.269  10.846 -0.0453  0.2861 -0.1482
17801W        W33418  18.620   6.141   5.110 -0.1543  0.2740 -0.1461
17802W        W33419   7.298  17.383  11.938 -0.1572 -0.3726  0.2030
17803W        W33420   6.202  11.448  10.412  0.0761 -0.1244 -0.1536
17804W        W33421   9.545  14.510   1.300 -0.2771 -0.0650  0.1898
17805W        W33422   5.615   3.482   4.537  0.3398 -0.2442 -0.0555
17806W        W33423   3.695  16.531   1.102  0.0178 -0.1030  0.0155
17807W        W33424  15.411  12.926   1.222  0.0153 -0.0581 -0.0085
17808W        W33425   5.357  17.692  11.848  0.2106  0.2051 -0.1899
17809W        W33426   7.047  16.436  15.102  0.0746  0.1872  0.2202
17810W        W33427  17.349   4.343  14.512  0.0334  0.1912  0.0187
17811W        W33428   3.441  15.391  15.751  0.2886  0.1756  0.0363
17812W        W33429  11.453  14.702  14.951 -0.1158  0.2306 -0.0590
17813W        W33430   7.830   7.785  14.267  0.0701 -0.1664  0.1518
17814W        W33431  10.737  14.667  15.603  0.1710  0.2681 -0.1287
17815W        W33432   9.101   1.439  11.624 -0.2489 -0.0132 -0.1490
17816W        W33433   4.750  16.906   3.859 -0.1649  0.0645 -0.3656
17817W        W33434   5.868   9.683   1.491  0.1103  0.1345  0.2361
17818W        W33435  18.640   5.563   3.905  0.2403 -0.1083  0.2445
17819W        W33436  13.480  15.882   3.764  0.0192  0.2426  0.2084
17820W        W33437   6.998   4.147   1.929  0.1105  0.1390 -0.0736
17821W        W33438  11.916   4.501  13.616 -0.1788  0.1911 -0.0927
17822W        W33439   6.725  12.338   0.653  0.0913  0.1891  0.1075
17823W        W33440   1.866  12.541  14.324  0.1018  0.1006  0.0618
17824W        W33441  10.228   6.503   2.364 -0.0257  0.2305  0.2879
17825W        W33442   9.196   8.684  15.535 -0.2358 -0.0833 -0.1207
17826W        W33443  18.220  11.639   1.664 -0.2113  0.4353 -0.0089
17827W        W33444   6.585  10.798  14.580  0.0179  0.0470  0.0600
17828W        W33445  15.215  16.663   0.955  0.1589 -0.1666  0.2308
17829W        W33446  18.237  17.405   4.565 -0.3747  0.2441 -0.1275
17830W        W33447  10.967  16.704  13.047  0.2557  0.0527 -0.1989
17831W        W33448   8.049  13.189   2.078  0.2001  0.2552  0.2158
17832W        W33449  12.393  10.477   1.679  0.0229 -0.2882  0.0485
17833W        W33450  13.033  13.716   4.599 -0.1596 -0.1229 -0.0203
17834W        W33451  11.409   2.008  12.057 -0.0305  0.3126 -0.1008
17835W        W33452   3.030  12.252  13.089  0.2561 -0.1144  0.0271
17836W        W33453   2.744  16.392   3.584 -0.0752  0.1859 -0.1922
17837W        W33454   5.710  10.675   3.655 -0.2627  0.3111  0.0123
17838W        W33455   4.866   7.962   0.310 -0.2599  0.1298 -0.0389
17839W        W33456  17.058   7.601   1.615  0.1509 -0.2599 -0.1526
17840W        W33457  17.266  14.542  11.288 -0.2848 -0.3004 -0.1756
17841W        W33458   8.908  18.336  14.269 -0.0579  0.0011  0.0038
17842W        W33459  10.967   8.919  11.553 -0.2800  0.1274  0.1067
17843W        W33460   9.716   4.526   5.304 -0.2675  0.3050  0.0486
17844W        W33461  14.781   1.613  14.566  0.2659  0.0046 -0.1045
17845W        W33462  14.015   0.007   3.416  0.2913  0.0278  0.0696
17846W        W33463   0.706   4.835   3.914 -0.2246  0.1252 -0.1106
17847W        W33464  11.428  12.678   2.673  0.2364  0.2133  0.3079
17848W        W33465   9.447  14.502  15.339  0.2813  0.0753 -0.2285
17849W        W33466   4.389  17.799  11.488  0.2112 -0.0058  0.3441
17850W        W33467  15.873  18.034  11.982 -0.2333 -0.1623 -0.2122
17851W        W33468  11.545   3.354   2.468 -0.2193 -0.0727 -0.0751
17852W        W33469   4.185  11.023   1.477  0.1831  0.1530 -0.0559
17853W        W33470   2.256   3.142   5.436  0.2595  0.0120 -0.1482
17854W        W33471  17.822   6.800  11.228  0.1110  0.3163  0.0953
17855W        W33472  13.965  12.969  14.095  0.0933  0.0578 -0.1321
17856W        W33473  11.353  14.338  12.431  0.0241  0.0924  0.1182
17857W        W33474  12.511  17.569   0.243 -0.0813 -0.3687  0.2695
17858W        W33475   4.488  15.082   4.201 -0.1082  0.2893 -0.0919
17859W        W33476   4.000   1.855   4.032  0.1108  0.3166  0.0617
17860W        W33477   1.639  15.044  11.107  0.1283  0.1405 -0.2951
17861W        W33478   7.694   0.044  13.061 -0.0210 -0.2499 -0.0010
17862W        W33479   1.898   2.491   0.689 -0.3371 -0.1741 -0.1040
17863W        W33480   3.165   2.638   3.701 -0.2955 -0.0211 -0.0783
17864W        W33481  17.138   3.640   2.457  0.1580 -0.1166  0.1063
17865W        W33482   0.599   0.522   0.392  0.0350  0.0830 -0.0880
17866W        W33483   5.040  11.300   1.646  0.1039  0.0482  0.0275
17867W        W33484   1.822   4.327  12.599 -0.2450 -0.1546  0.0154
17868W        W33485  10.524   0.132   0.352 -0.2990 -0.0524 -0.0526
17869W        W33486   9.525   3.048  12.407  0.1036  0.1573  0.1491
17870W        W33487  17.677   3.625  10.369 -0.0316  0.0806 -0.0381
17871W        W33488   2.269   5.064  13.901  0.3830 -0.1214  0.1011
17872W        W33489  16.177   3.520   2.657 -0.1976 -0.0907  0.0243
17873W        W33490  13.742  16.772  12.377  0.0034  0.0444  0.1353
17874W        W33491   6.486   6.777  15.088 -0.1217 -0.2706 -0.0228
17875W        W33492   9.855  16.584   3.135  0.0603  0.2852 -0.0552
17876W        W33493  12.813   4.067   6.008  0.4208 -0.2027  0.0412
17877W        W33494   3.851  16.448   4.096  0.0007  0.1874  0.0894
17878W        W33495  17.117  17.078  15.335 -0.0105  0.1661  0.0611
17879W        W33496  18.128   1.632   4.943 -0.0830 -0.2125 -0.1658
17880W        W33497   5.549  10.730   1.008 -0.1320  0.0526  0.2055
17881W        W33498   6.223   3.642  13.434 -0.0427  0.3044 -0.2493
17882W        W33499  12.438   9.135  15.182  0.1702  0.0213  0.0854
17883W        W33500  16.965  16.192  14.325  0.0717  0.2616  0.1175
17884W        W33501  14.264   1.996   1.475  0.0748  0.1761 -0.0967
17885W        W33502   9.750   5.902   4.712  0.0489  0.3205  0.0548
17886W        W33503  14.949  15.698  15.329 -0.1064  0.0039  0.1725
17887W        W33504   8.936  16.052  12.033 -0.3365 -0.0355 -0.2899
17888W        W33505   3.142  18.196   3.959 -0.3738  0.1090  0.3400
17889W        W33506   1.109   1.894  14.058 -0.1645 -0.1792  0.0258
17890W        W33507  10.860  18.127  13.618  0.0781  0.0186  0.0705
17891W        W33508  16.304   1.772   5.056 -0.0686 -0.4259  0.3764
17892W        W33509   6.755  16.340  13.185  0.1386 -0.0373 -0.0719
17893W        W33510  12.159  16.784   5.330 -0.3492 -0.0227  0.1278
17894W        W33511   5.689   8.348  12.993 -0.0045 -0.1499 -0.2466
17895W        W33512   6.217  15.861  11.935 -0.1214 -0.0162  0.0156
17896W        W33513  16.151  17.465   3.571 -0.1818  0.0007 -0.0385
17897W        W33514  14.737  12.413   5.184  0.1075 -0.0155 -0.0761
17898W        W33515   2.658  11.027  12.534 -0.0101  0.0813  0.0561
17899W        W33516   8.384   1.714  14.891 -0.0547 -0.4925 -0.2865
17900W        W33517   2.621   4.441   1.565 -0.0641 -0.1936 -0.2010
17901W        W33518  17.886  16.053   2.615 -0.0939  0.1604  0.1250
17902W        W33519  16.627  18.410   1.343  0.0492 -0.2462 -0.1454
17903W        W33520   0.852   2.932   4.803  0.1431  0.4097 -0.0493
17904W        W33521  15.304  11.993   5.382 -0.0478 -0.2040  0.2431
17905W        W33522  14.113  13.850  12.777 -0.3365 -0.3563  0.0939
17906W        W33523   1.094   8.847  13.603  0.0570  0.0407 -0.2439
17907W        W33524   6.873   3.055   2.623 -0.2527  0.1996  0.3464
17908W        W33525   0.198   9.890   3.950  0.2597 -0.2987  0.0113
17909W        W33526  12.518   1.476   1.691 -0.0075 -0.3680  0.1409
17910W        W33527   8.061  10.708   1.148  0.0958  0.1241 -0.4721
17911W        W33528  14.759  14.990   2.475  0.1778  0.0360  0.0649
17912W        W33529   0.751  15.119   3.982  0.0382  0.0329 -0.1953
17913W        W33530   5.328   1.531  14.115 -0.0588  0.2461  0.3035
17914W        W33531  16.605   5.569  13.957  0.2870 -0.3637 -0.2489
17915W        W33532   2.427  12.478   2.084  0.4235  0.1979 -0.1368
17916W        W33533   7.247   8.157  15.580  0.2883  0.0225 -0.1328
17917W        W33534   3.956   9.555  10.891  0.2117  0.2050 -0.0701
17918W        W33535   0.938  13.568   5.389  0.0089 -0.0462 -0.4120
17919W        W33536  15.062   7.999   2.243  0.0711 -0.0719  0.1436
17920W        W33537   7.299  14.501   4.944 -0.1850  0.0848  0.0850
17921W        W33538  13.443   0.849  11.582  0.0555  0.0126 -0.1392
17922W        W33539  10.695   5.391   5.068  0.4243 -0.0116  0.1803
17923W        W33540  16.584   7.614   1.802  0.0833 -0.0764  0.1729
17924W        W33541   0.907  14.484  11.332 -0.2818  0.4431  0.2101
17925W        W33542  13.706  16.168   4.274 -0.0023  0.1066  0.4366
17926W        W33543  14.517  12.523  13.175 -0.1772  0.1202  0.1481
17927W        W33544   8.655   1.468   4.063  0.1789 -0.0589 -0.1653
17928W        W33545   5.777   1.184  15.322 -0.0016  0.1035 -0.0740
17929W        W33546  16.400  16.328   0.122  0.2335  0.1541  0.0673
17930W        W33547   5.497   1.093   6.103  0.2280  0.0467 -0.0417
17931W        W33548  14.415   0.091   5.024 -0.1204 -0.3250  0.0689
17932W        W33549  17.651   7.423  15.176 -0.2284  0.3047  0.1487
17933W        W33550   7.004   8.777  10.313 -0.0785  0.0701 -0.0429
17934W        W33551  17.049   9.840  14.285  0.2535  0.0856 -0.2659
17935W        W33552   3.981  16.658  10.530 -0.2212 -0.1212  0.1248
17936W        W33553  10.880   6.599   2.832 -0.0505 -0.4875  0.0913
17937W        W33554   3.645   3.406  14.480  0.1590 -0.1868 -0.0748
17938W        W33555  14.509   3.921   5.322 -0.1102  0.1057 -0.2088
17939W        W33556   4.943   2.523  12.765 -0.1275  0.1341  0.0964
17940W        W33557  11.364   3.917  14.929 -0.0928 -0.0678 -0.0505
17941W        W33558  11.266  12.363  12.167 -0.0473 -0.3827  0.0873
17942W        W33559   0.766  11.416  14.328 -0.0989 -0.0274  0.1437
17943W        W33560  17.421   3.802   5.067 -0.1077 -0.1842  0.1587
17944W        W33561  15.123   8.603   0.423 -0.3744 -0.3995 -0.1858
17945W        W33562  16.278  14.387   4.742 -0.0395 -0.1598  0.0605
17946W        W33563  18.335  12.742  10.981 -0.0895 -0.0159  0.2923
17947W        W33564  13.863   0.705   1.555 -0.0207 -0.2191  0.0736
17948W        W33565   4.773   7.438  11.441  0.3962 -0.0476 -0.1649
17949W        W33566   4.680  13.465  13.282 -0.2124  0.1473 -0.0381
17950W        W33567   5.969   2.549  12.048 -0.1066  0.3125  0.0557
17951W        W33568  13.097  10.601  12.143  0.1260  0.1506  0.0057
17952W        W33569  16.217   1.362  10.511 -0.3036  0.1749 -0.0864
17953W        W33570  18.352   7.302   1.106  0.0011 -0.0235  0.2630
17954W        W33571  15.084   2.575   1.634 -0.3031 -0.1941 -0.2433
17955W        W33572  18.188   5.326  13.308 -0.3244 -0.1100  0.1880
17956W        W33573  10.296   2.133   4.836 -0.1552  0.0312  0.2578
17957W        W33574   2.024  11.869   2.747 -0.0915  0.1594 -0.0582
17958W        W33575  18.204   0.721   0.412  0.2708 -0.1737  0.1460
17959W        W33576  13.967  11.467  15.589  0.1035 -0.1595  0.0644
17960W        W33577  17.870  14.886   5.248 -0.0217  0.1401  0.1155
17961W        W33578   9.409   7.332   2.899 -0.1046 -0.1701 -0.1330
17962W        W33579   1.632   1.698   2.338 -0.4620 -0.0234 -0.0762
17963W        W33580  14.587   6.454   1.444  0.0370  0.3550 -0.1989
17964W        W33581  11.079  11.216   1.750  0.1614 -0.1442  0.0447
17965W        W33582  11.344  17.477   3.671  0.1797 -0.0199 -0.3886
17966W        W33583   3.128  14.617  11.035 -0.1811 -0.0902  0.0162
17967W        W33584  12.889   6.636   2.550  0.1798 -0.0462 -0.0929
17968W        W33585  10.114   1.660   5.771  0.1191  0.1220  0.0216
17969W        W33586  15.873   1.669   2.714  0.2547  0.1572  0.0137
17970W        W33587   1.856   8.899   1.621  0.0201  0.0837 -0.0173
17971W        W33588  15.017   5.241   1.782 -0.2766 -0.0542  0.4267
17972W        W33589   7.521  15.801   0.799  0.2408  0.3193 -0.2198
17973W        W33590  16.102  13.568   5.221  0.2230  0.4723 -0.3100
17974W        W33591   0.371   9.155  14.069  0.0870  0.0199 -0.6791
17975W        W33592  13.795  10.843  14.741  0.0759 -0.2624  0.2340
17976W        W33593  14.386   9.128   1.677 -0.0765 -0.2040 -0.0571
17977W        W33594  10.551  10.828  12.618  0.0061  0.0514 -0.1747
17978W        W33595   1.734  11.112  13.980 -0.0883  0.0179  0.0157
17979W        W33596   9.141   4.215  13.535  0.0222 -0.1009 -0.2858
17980W        W33597   4.575  16.108   1.988 -0.2328  0.1626 -0.0451
17981W        W33598  12.055   7.874  13.068  0.0646 -0.0888  0.0063
17982W        W33599  14.390   6.093   1.793  0.1197  0.2775  0.3843
17983W        W33600  12.282  12.093  11.311  0.1603 -0.1734 -0.3469
17984W        W33601  13.002  11.340  14.995  0.0575 -0.0623 -0.0113
17985W        W33602   9.247   2.223   4.189  0.1665  0.1515 -0.1403
17986W        W33603   5.393   3.816  11.036 -0.1501 -0.0725 -0.0442
17987W        W33604  18.356  10.015  14.744  0.0974  0.0742  0.1001
17988W        W33605   2.547   8.291  12.502  0.0462 -0.1364 -0.1527
17989W        W33606  18.239  12.574  13.620 -0.0142 -0.1602 -0.0458
17990W        W33607  14.475  18.581   3.887 -0.3291 -0.2960  0.1269
17991W        W33608   4.969  14.643   1.261 -0.1722 -0.1683 -0.2129
17992W        W33609  11.556   2.937  11.741 -0.0264  0.1202 -0.1310
17993W        W33610   2.260   0.179   3.236 -0.1115 -0.0282 -0.2826
17994W        W33611  10.789  12.059   3.900 -0.1869 -0.2663  0.0762
17995W        W33612   3.397   1.403  13.453 -0.2329  0.1027  0.0356
17996W        W33613  16.311   7.002  11.322  0.1482 -0.0719 -0.1415
17997W        W33614   6.155   4.853   2.683 -0.2140  0.1029  0.2887
17998W        W33615  10.726   1.455  11.581 -0.2205 -0.3062  0.2842
17999W        W33616   6.393   6.439   3.195 -0.1827  0.0258 -0.0179
18000W        W33617   1.090   7.666   2.705  0.1940  0.1929 -0.2407
18001W        W33618   7.896   1.563  14.693  0.0930  0.2362 -0.0030
18002W        W33619  17.345   4.652   0.408  0.0700 -0.1018 -0.1921
18003W        W33620  14.987  18.147   1.589  0.1289  0.1472  0.2700
18004W        W33621  13.411   9.036   0.732 -0.2198 -0.0977 -0.0283
18005W        W33622   9.225   2.657   1.955 -0.0223  0.1051  0.1790
18006W        W33623   8.470   4.066  15.407 -0.0222  0.1726 -0.0775
18007W        W33624   0.418   3.047  14.540 -0.0869  0.0044 -0.3360
18008W        W33625  12.214   8.131   5.807  0.0701  0.2545 -0.0141
18009W        W33626  15.434   1.703   3.061 -0.0482 -0.0101 -0.2190
18010W        W33627   8.484  14.691  14.960 -0.2098  0.3419 -0.0432
18011W        W33628  14.091   9.673  14.165  0.0028  0.2500 -0.0553
18012W        W33629   8.704   8.764  15.742 -0.0282 -0.0797 -0.1510
18013W        W33630  14.425   1.730   0.179  0.1582 -0.2001  0.0073
18014W        W33631  11.299  15.746  12.390 -0.2981  0.0073  0.0426
18015W        W33632   4.467  16.531  12.265  0.1482 -0.2350 -0.2387
18016W        W33633   2.419  12.702  14.846 -0.1966  0.1243 -0.3311
18017W        W33634   3.317  17.805   1.096 -0.0843 -0.2980  0.0203
18018W        W33635   6.405  16.500   4.481 -0.0028 -0.1782  0.1636
18019W        W33636   3.146  11.012   2.905  0.3059 -0.0330 -0.1395
18020W        W33637  14.211   3.725   0.733 -0.1553 -0.2241 -0.0129
18021W        W33638  11.930   4.735  15.252 -0.0927 -0.1521 -0.1578
18022W        W33639  16.336  17.072   2.378 -0.0408  0.2822  0.2687
18023W        W33640  17.381  15.099  12.690 -0.2425  0.2744  0.2914
18024W        W33641  12.280   9.455  15.620  0.1550  0.1240  0.1225
18025W        W33642  11.902  17.615   1.733 -0.0792 -0.0381 -0.2908
18026W        W33643  16.911  14.586  14.085 -0.1287 -0.0330 -0.0951
18027W        W33644   8.096  11.217  14.430  0.1372  0.2313  0.0021
18028W        W33645  10.960   5.899   1.899 -0.2203  0.3203 -0.5344
18029W        W33646  17.698  15.290  15.666 -0.0648 -0.2564  0.1876
18030W        W33647   4.137   3.267  13.270 -0.2370 -0.1710  0.0635
18031W        W33648  13.225   4.864   3.651 -0.1642  0.2898  0.1296
18032W        W33649   2.201   6.361  11.016  0.1004 -0.3258  0.2002
18033W        W33650  15.829  17.636  15.715  0.1203  0.3105  0.1741
18034W        W33651   9.586   1.458  11.508 -0.1903 -0.3204 -0.1674
18035W        W33652  13.990  17.128   3.996 -0.0059  0.0304 -0.2625
18036W        W33653  12.592   6.040   0.052 -0.1623  0.3244 -0.0248
18037W        W33654   8.979   8.535   0.658  0.0883  0.0532  0.1724
18038W        W33655   7.163  11.750  13.686  0.0591  0.4168  0.0424
18039W        W33656   6.323  15.229   0.685  0.0480 -0.1045 -0.0708
18040W        W33657   4.739  17.310   4.182 -0.2144  0.1285  0.0378
18041W        W33658  12.831   7.697   5.415 -0.1345  0.0916 -0.0480
18042W        W33659   4.681  16.153   0.547 -0.3007 -0.0200 -0.2409
18043W        W33660   2.924  13.887  15.030 -0.1529 -0.0073  0.1874
18044W        W33661   0.398   7.554   1.724 -0.0086 -0.0968  0.0023
18045W        W33662   2.099  14.547   0.225 -0.1980 -0.1198 -0.0696
18046W        W33663  10.917  11.132   3.097  0.0011 -0.0141  0.1135
18047W        W33664  14.880  18.299  14.695 -0.3525  0.0540  0.1339
18048W        W33665   6.535   1.907  13.437  0.0829 -0.3104  0.1860
18049W        W33666   8.906  18.517   2.456  0.0967  0.0950 -0.1132
18050W        W33667   4.605  12.352   4.449  0.3365  0.0735 -0.1476
18051W        W33668  15.246   4.292  13.106 -0.0224 -0.0626  0.0711
18052W        W33669  12.022   2.507  12.690  0.0212 -0.2567 -0.1560
18053W        W33670  13.887  15.718  11.945  0.3152  0.2249  0.0004
18054W        W33671  11.422  13.189  10.647  0.0895 -0.3002  0.2573
18055W        W33672   9.491  17.209  11.937 -0.0332 -0.0090 -0.0490
18056W        W33673  14.426  17.979  12.557  0.3252 -0.1383  0.0681
18057W        W33674   8.576  15.405  13.090 -0.1314 -0.0610  0.0770
18058W        W33675  10.695  17.911  14.782 -0.1170  0.0850 -0.0699
18059W        W33676   5.567   3.392   5.533  0.1648  0.2628 -0.0428
18060W        W33677  11.064  17.788   1.155  0.2677 -0.0912  0.1556
18061W        W33678   9.783  16.310  12.932  0.4136 -0.1148 -0.1966
18062W        W33679   3.420  11.143   3.351  0.2857 -0.1168  0.2639
18063W        W33680  11.863  15.104  12.365  0.0617  0.0490  0.0509
18064W        W33681   2.612  18.605  13.817 -0.0366  0.1630  0.0499
18065W        W33682  11.897  10.371   1.610  0.2794 -0.2123 -0.0628
18066W        W33683   3.549  15.107  12.560  0.3453 -0.1650 -0.2104
18067W        W33684  13.922   9.153  11.094 -0.0344  0.1268 -0.0824
18068W        W33685   0.128  10.167   0.373  0.0247  0.0863  0.0411
18069W        W33686   7.274  18.244   3.837  0.2483  0.1341  0.1805
18070W        W33687  16.420   4.065   5.499 -0.1433 -0.1006 -0.0483
18071W        W33688  12.950   2.617   1.230  0.1786  0.1480  0.0533
18072W        W33689  11.327   4.173   2.931 -0.0202 -0.0353  0.1311
18073W        W33690   5.877   3.141   1.073  0.3731 -0.0708 -0.1071
18074W        W33691   8.719  15.571   0.868 -0.1398 -0.0904  0.2197
18075W        W33692  18.317  12.393   3.820 -0.0152 -0.0206 -0.0388
18076W        W33693  10.557   2.664   3.382 -0.0585 -0.2342 -0.1079
18077W        W33694   6.258  16.202  13.419 -0.0599  0.3843 -0.1209
18078W        W33695  12.103  16.933   2.325 -0.1724  0.0931 -0.0564
18079W        W33696  17.297   9.689   9.416 -0.0127 -0.0686 -0.2519
18080W        W33697  11.671   7.442   2.130 -0.3540  0.1644  0.1838
18081W        W33698  15.332  13.165  14.571  0.0815  0.2435 -0.1619
18082W        W33699  14.270   4.614   2.902 -0.1807 -0.0627 -0.2662
18083W        W33700  16.884   9.738  13.314  0.3249  0.2310  0.0738
18084W        W33701   1.809   9.977  15.115  0.0570  0.0081  0.0212
18085W        W33702  15.928  17.516   0.374 -0.3273 -0.2032 -0.0625
18086W        W33703  15.364  14.034  12.768  0.2601  0.0177  0.0781
18087W        W33704   9.859   4.255   3.314 -0.1412 -0.1070 -0.0377
18088W        W33705  13.309  11.446  12.762 -0.1301  0.2221  0.0375
18089W        W33706   0.575   5.489  14.615  0.2988 -0.1197 -0.3050
18090W        W33707   5.956   1.910   3.465  0.0632  0.1605  0.0602
18091W        W33708   9.266   1.608  10.829  0.1055 -0.1208  0.1374
18092W        W33709  15.424   2.688   3.997 -0.1081 -0.0237 -0.1196
18093W        W33710   9.952   6.085   2.723  0.2873 -0.0431 -0.2310
18094W        W33711   2.210  10.823   0.889  0.1069 -0.4292  0.1662
18095W        W33712  10.511   7.652   4.569 -0.5680  0.1212 -0.1323
18096W        W33713  11.871  15.508  13.066 -0.0086 -0.0390 -0.3791
18097W        W33714  10.781   3.245   3.580  0.0257 -0.1968 -0.1375
18098W        W33715  13.904   8.246   1.169  0.0155  0.1314  0.0703
18099W        W33716  10.919  11.267  14.430  0.3767 -0.1348 -0.1548
18100W        W33717  10.288  12.128   1.159  0.1128 -0.0726  0.0071
18101W        W33718  16.462  15.469  12.903  0.2485 -0.0998  0.2617
18102W        W33719   4.970   3.823  15.019 -0.2040  0.1419  0.3370
18103W        W33720  15.584   0.045  14.656  0.0668  0.1966  0.1541
18104W        W33721  15.835  11.880   5.505  0.0849 -0.2090 -0.0403
18105W        W33722   2.327  11.118   4.249  0.1791  0.0629 -0.1591
18106W        W33723   8.938   0.416  10.305 -0.2236  0.0455 -0.0656
18107W        W33724   8.231   2.969   0.267  0.0644  0.3096  0.1725
18108W        W33725   7.057   7.989  12.146 -0.3104 -0.1617  0.0507
18109W        W33726  15.287  11.996   0.628  0.0121 -0.4176 -0.0056
18110W        W33727  17.590   5.589   2.443 -0.0009  0.3989 -0.3349
18111W        W33728   7.310   1.680   0.546  0.0427 -0.2278 -0.0876
18112W        W33729  17.732   7.053  13.446 -0.1743 -0.1233  0.1215
18113W        W33730   8.672   4.400  13.343 -0.1840 -0.1231 -0.0638
18114W        W33731   6.680   9.834   3.061 -0.1005 -0.0238 -0.2148
18115W        W33732   7.213  12.748  10.805 -0.0951  0.2168  0.1167
18116W        W33733   7.222  11.220   9.198 -0.0940 -0.0288 -0.0165
18117W        W33734   4.533   5.540  10.684  0.3194 -0.2496  0.1850
18118W        W33735   4.805  13.645   4.340  0.1607  0.0101  0.1263
18119W        W33736  12.373   7.158  11.750 -0.1658  0.0680 -0.3548
18120W        W33737   8.762  17.751  12.940 -0.0002  0.0453  0.1403
18121W        W33738   4.394  13.659  10.799 -0.1621  0.1992  0.5282
18122W        W33739  14.113  17.259  11.301 -0.0628 -0.2027  0.0740
18123W        W33740  16.370   5.287   1.376 -0.0321  0.0809  0.0313
18124W        W33741   7.523   2.957   1.708  0.0311 -0.1222 -0.3114
18125W        W33742  16.626   4.342  12.413 -0.0512  0.2268 -0.1516
18126W        W33743   8.220   0.294  12.916  0.1479  0.2373  0.0758
18127W        W33744  12.869  10.311   0.883 -0.1665  0.1230  0.2849
18128W        W33745   6.653   1.033  13.662  0.2179 -0.1152 -0.1794
18129W        W33746   1.991   0.516   4.863 -0.2263 -0.3261  0.2839
18130W        W33747   6.202   5.832  12.665  0.1864 -0.2446  0.3300
18131W        W33748   4.265   6.399   1.717  0.0676 -0.1622 -0.0586
18132W        W33749   9.907  16.684  11.995  0.0143 -0.0996  0.0016
18133W        W33750   2.004   7.772  14.024  0.1227  0.2264 -0.0205
18134W        W33751   1.571   4.618   0.929 -0.1773 -0.1202  0.0261
18135W        W33752   0.754   7.023   3.763 -0.0416 -0.1320 -0.0079
18136W        W33753   8.105  10.167  13.678  0.2014  0.1525  0.0607
18137W        W33754   8.044  14.433  12.238  0.1926 -0.0541  0.0983
18138W        W33755   2.356   8.716   3.054 -0.0861  0.0759 -0.0073
18139W        W33756  12.218   6.325   4.318  0.2308  0.2636  0.0559
18140W        W33757   6.558  10.007  14.669  0.1156  0.1671  0.1460
18141W        W33758   4.930   4.465  13.574 -0.0721  0.4655  0.3226
18142W        W33759   3.045  17.252   0.555  0.0172 -0.0613  0.0082
18143W        W33760  11.677  12.302   3.730  0.0850  0.0205 -0.1562
18144W        W33761   9.683  17.710   1.619  0.0703 -0.0678 -0.0563
18145W        W33762  12.656   3.729  10.300  0.0673  0.0159 -0.1574
18146W        W33763   2.567  17.806  11.950  0.1274  0.0327  0.3156
18147W        W33764  15.705  15.827   3.844  0.0178 -0.1078 -0.4467
18148W        W33765   0.419   9.803   0.603 -0.3319  0.2820 -0.0927
18149W        W33766   3.811   7.041   2.341  0.1874 -0.1908 -0.1641
18150W        W33767   9.502  16.781  14.985  0.0468  0.0938  0.1972
18151W        W33768  10.781   1.386  13.140 -0.3737  0.0299  0.1423
18152W        W33769  17.047  11.157  13.167  0.4292  0.3016  0.0536
18153W        W33770  12.874   3.217  12.292 -0.2827  0.1440 -0.0589
18154W        W33771  10.001   7.037   4.995 -0.1249 -0.2063  0.2273
18155W        W33772  15.768  10.137  15.154  0.1354  0.2072  0.1956
18156W        W33773   4.721   8.360  15.689 -0.1718  0.1212  0.3862
18157W        W33774   7.758  12.374  13.307 -0.1994 -0.1708 -0.1024
18158W        W33775  16.348   8.788   5.512  0.0641 -0.0196 -0.1507
18159W        W33776  17.024  14.515   2.281  0.1545  0.0826 -0.0797
18160W        W33777  12.594   0.570   1.576 -0.1762 -0.1827  0.1400
18161W        W33778   7.625  17.892   4.745  0.3480  0.2255 -0.1600
18162W        W33779   2.281   7.656   4.367  0.3226 -0.1875 -0.1175
18163W        W33780   7.730  11.380   3.055 -0.3555  0.0165  0.0461
18164W        W33781  11.675  15.322   4.694 -0.3516 -0.4357 -0.1997
18165W        W33782   7.595  12.403  13.993 -0.1392 -0.0518  0.2263
18166W        W33783  15.996   5.894   4.292  0.2640  0.0350  0.1951
18167W        W33784   7.772  17.664  13.471  0.0001 -0.0343 -0.0975
18168W        W33785   4.880  13.751  13.681  0.0845 -0.2926 -0.1375
18169W        W33786  18.565  18.123   4.674  0.1140  0.0001  0.0899
18170W        W33787   1.059   0.060  14.659 -0.2708  0.0080 -0.1753
18171W        W33788  12.627  12.106  10.920 -0.1305  0.2223 -0.1841
18172W        W33789  14.349   3.141  12.084 -0.3765 -0.1121 -0.3577
18173W        W33790  10.771   9.977  13.259 -0.0380 -0.0801 -0.1026
18174W        W33791   4.971   4.388   6.096  0.0773  0.2678  0.0478
18175W        W33792   7.273   6.945   5.667 -0.2388  0.1374  0.0681
18176W        W33793  10.385   5.045  12.549 -0.0059  0.0944 -0.1012
18177W        W33794  12.742  15.464  13.936  0.3742 -0.2056  0.2086
18178W        W33795   8.797  14.453   3.711  0.0023 -0.1862  0.0162
18179W        W33796  16.271   6.369   0.856 -0.2944 -0.3469  0.1695
18180W        W33797  12.569  13.892   0.501 -0.0414 -0.3285  0.0316
18181W        W33798  12.409  15.199   4.159 -0.2201 -0.0806 -0.3838
18182W        W33799  14.124   2.221  14.269 -0.0977  0.1178  0.0454
18183W        W33800  14.822  16.108  10.400  0.3316  0.1669 -0.0576
18184W        W33801  15.823  11.576  15.349  0.1798  0.2385 -0.0206
18185W        W33802  12.765   3.107   5.156  0.1490 -0.2237 -0.4599
18186W        W33803   2.390  10.438  12.538  0.0729 -0.3194  0.0650
18187W        W33804  15.468   7.727   0.094 -0.0072 -0.2354 -0.0465
18188W        W33805   6.185   8.204   1.013  0.0633 -0.0683 -0.1216
18189W        W33806   3.691   6.151   1.005 -0.2596  0.1385  0.2644
18190W        W33807   6.945  10.350  13.449 -0.3395 -0.1950  0.2471
18191W        W33808   9.212  16.639   5.060 -0.2263 -0.2302 -0.1229
18192W        W33809   9.994  15.340  13.864  0.2647 -0.0046 -0.1971
18193W        W33810   9.491  12.723   3.097  0.0980 -0.3395 -0.0888
18194W        W33811   8.022   8.918  12.848  0.0235 -0.1898 -0.0496
18195W        W33812   6.679   2.204  12.234 -0.1499  0.1196 -0.2863
18196W        W33813   6.770  13.362   0.648  0.1007  0.0505  0.1208
18197W        W33814  15.250   5.746   4.713 -0.0681  0.3033  0.1229
18198W        W33815   0.830   0.984  11.762 -0.3463  0.1265 -0.0711
18199W        W33816  14.984   8.145  11.370 -0.3046  0.0461  0.1794
18200W        W33817   5.400  16.652  13.232  0.1465 -0.2212 -0.0506
18201W        W33818  13.514   1.940  14.509  0.1835 -0.1554  0.0220
18202W        W33819   5.342   9.532   1.626  0.2039 -0.1331  0.2208
18203W        W33820   9.832  17.185  12.270 -0.1214  0.0838  0.0452
18204W        W33821  14.627   7.045   5.335 -0.0432  0.1616  0.1194
18205W        W33822  18.651  18.208   0.400  0.4127 -0.2988  0.0193
18206W        W33823   6.495  14.405   4.671 -0.0958 -0.1078 -0.0231
18207W        W33824  14.080   6.013  14.203 -0.1556 -0.1442 -0.3353
18208W        W33825  16.705  14.316  13.674  0.1615  0.1431 -0.1743
18209W        W33826  18.044   1.832   2.341 -0.1091  0.2293  0.0768
18210W        W33827  16.001  13.509   1.095  0.1526  0.0074  0.2277
18211W        W33828  16.922  18.257  10.957 -0.4168  0.0440 -0.3497
18212W        W33829   8.469   1.709  15.420  0.0116  0.2199 -0.3089
18213W        W33830   9.213  14.953   0.280 -0.3442 -0.0769  0.0536
18214W        W33831  16.038  15.106  12.961  0.0194  0.4099  0.0216
18215W        W33832   4.271  13.630   4.456  0.1131  0.0381 -0.1015
18216W        W33833   9.521   3.506  12.949  0.0944 -0.0602  0.1160
18217W        W33834  14.215   3.446   2.277 -0.1344  0.2667 -0.2604
18218W        W33835  12.988   7.282  13.053  0.0026  0.2511  0.1950
18219W        W33836  16.309   2.470   4.767  0.1429  0.2671 -0.3013
18220W        W33837   8.742  13.529   2.065 -0.0982 -0.1232 -0.1519
18221W        W33838  17.645   7.229  11.539 -0.1649  0.0155 -0.0061
18222W        W33839   3.659  11.560   3.554 -0.0104  0.3270 -0.4491
18223W        W33840   5.002  15.504   0.380  0.1540  0.1831 -0.0589
18224W        W33841  17.345  15.698  10.875 -0.0156 -0.0663  0.1300
18225W        W33842   8.703  11.716   4.444 -0.0762  0.0458 -0.3943
18226W        W33843  17.579   7.307  12.065 -0.3431 -0.0206  0.1650
18227W        W33844  13.208  15.980  12.571 -0.3119 -0.2593 -0.0231
18228W        W33845  13.116   8.790   3.913 -0.1648 -0.2570  0.0127
18229W        W33846   6.676   5.630  10.051  0.0586  0.1762  0.1822
18230W        W33847   8.800   9.531   0.750 -0.1225 -0.2356 -0.3071
18231W        W33848   1.787  12.060  15.176  0.0136 -0.0667 -0.0126
18232W        W33849  10.597   0.684   1.224  0.1057 -0.0218 -0.0860
18233W        W33850   7.970   8.686   1.417 -0.0942  0.0917 -0.0778
18234W        W33851   1.444  12.476  11.692 -0.1295  0.0092 -0.3267
18235W        W33852   3.070  16.487  15.651 -0.1996  0.1048  0.3919
18236W        W33853   5.294   1.141  15.195  0.1770  0.1581 -0.0292
18237W        W33854   6.412  15.972   0.134 -0.2295  0.0229 -0.1768
18238W        W33855  11.500   0.183   2.094 -0.0305  0.0586 -0.0598
18239W        W33856  15.194  13.026  11.305 -0.1777  0.1121 -0.4388
18240W        W33857  13.973  14.175   3.919 -0.0400  0.2054 -0.2130
18241W        W33858  13.332  17.410  15.614  0.1343 -0.1195 -0.0831
18242W        W33859   8.830   8.501  12.837 -0.2873  0.0773 -0.2871
18243W        W33860  10.791  11.690  11.324  0.4520  0.1257  0.0154
18244W        W33861  13.540   0.144  12.654 -0.1910 -0.0275 -0.0385
18245W        W33862  16.499   8.397   2.486  0.0262 -0.0022  0.3534
18246W        W33863  13.630  18.201  15.201  0.0435  0.0266  0.0357
18247W        W33864   3.065   2.270  12.170  0.1030 -0.2150 -0.3962
18248W        W33865   1.803   2.469   2.867 -0.1769 -0.1681 -0.1830
18249W        W33866  12.584  14.192   2.339 -0.0687  0.0540  0.4297
18250W        W33867   4.607   7.175  13.283 -0.0278  0.0466  0.0111
18251W        W33868  13.248  11.812  13.780  0.3670  0.1853  0.0268
18252W        W33869  11.322  10.098   3.038 -0.0877 -0.2186  0.1583
18253W        W33870  16.753  18.476   3.940 -0.0873 -0.4210 -0.1032
18254W        W33871  14.064  15.445  12.313  0.0086 -0.1687  0.1403
18255W        W33872   8.839   9.696  15.523 -0.2055 -0.0358 -0.0690
18256W        W33873  16.937  15.261  12.872 -0.3224 -0.1551 -0.1383
18257W        W33874   8.256   5.952  15.499 -0.3699 -0.1541 -0.0513
18258W        W33875  16.213  10.102   3.491  0.3034 -0.3444  0.4728
18259W        W33876  10.516  11.709   1.105  0.2963 -0.0342 -0.4108
18260W        W33877  15.320  18.352  12.927  0.0425  0.0527 -0.2349
18261W        W33878  15.246  16.159   2.525  0.0148 -0.5231 -0.1570
18262W        W33879  13.774   5.720  14.982 -0.0331 -0.5287 -0.0140
18263W        W33880   2.829  13.860   3.576  0.0317 -0.0044  0.2878
18264W        W33881  14.987  11.671   3.702  0.2249 -0.2526 -0.0718
18265W        W33882  10.990   3.411  14.214 -0.0852 -0.0252  0.2785
18266W        W33883  15.186   5.776  10.983  0.2614  0.1232  0.1600
18267W        W33884   9.906  15.063  12.716 -0.1720  0.1893  0.3700
18268W        W33885   1.567   4.407  14.894 -0.3135  0.0203  0.1166
18269W        W33886  14.024   9.453   0.289  0.0390  0.3145  0.1922
18270W        W33887   6.893   9.110  13.537 -0.0224 -0.3490  0.2817
18271W        W33888  18.352  15.416  13.817 -0.0067 -0.1439 -0.1009
18272W        W33889  16.882  18.220   3.555 -0.0376 -0.0874 -0.4694
18273W        W33890   6.319  12.500   1.410  0.0015  0.0914  0.0826
18274W        W33891   8.653   2.519   5.338  0.1064  0.3071  0.0476
18275W        W33892  11.535   6.427  11.472 -0.0245 -0.0024 -0.1249
18276W        W33893   1.759   3.934  13.106 -0.1628 -0.0250 -0.0092
18277W        W33894  13.787  14.811  13.486 -0.1218 -0.0650 -0.0683
18278W        W33895   9.925   8.930   3.952 -0.2502 -0.0522  0.1720
18279W        W33896   3.585   4.398  14.340 -0.0178  0.1699 -0.1909
18280W        W33897  16.115  11.631   3.455  0.2450  0.4068  0.1233
18281W        W33898  15.720   7.929   4.962  0.0306 -0.1001 -0.0385
18282W        W33899  16.256  13.100   1.073  0.1054  0.3161  0.2057
18283W        W33900  14.580  13.539   1.679 -0.0996 -0.1248  0.1719
18284W        W33901   3.040   9.729   2.332 -0.1386 -0.3077  0.2840
18285W        W33902   3.904  17.660   9.362 -0.1247  0.0628 -0.0100
18286W        W33903   4.589  12.290   0.472 -0.1285 -0.2899 -0.2294
18287W        W33904  10.427  14.363  15.283  0.4954  0.0194 -0.1298
18288W        W33905   0.001   7.487   3.777 -0.1845 -0.0523 -0.3493
18289W        W33906  18.128  13.210   2.900  0.0522 -0.0751  0.0952
18290W        W33907   1.471   6.955   0.952  0.0529  0.2519 -0.0636
18291W        W33908  13.304  12.818  10.793 -0.0681 -0.0634  0.0757
18292W        W33909   6.818   7.887  11.040 -0.1251 -0.1217  0.0856
18293W        W33910  10.563   0.984   4.155  0.3471 -0.1835 -0.0205
18294W        W33911   5.596   8.844   5.049 -0.1194 -0.1025 -0.0133
18295W        W33912   2.253   5.038   2.298 -0.1234 -0.3684 -0.2814
18296W        W33913   9.974   2.967  12.643  0.2702 -0.1825  0.1184
18297W        W33914  13.027   3.171  11.417 -0.1922 -0.2054  0.2024
18298W        W33915  12.621  17.873   4.370 -0.0221 -0.1871 -0.2102
18299W        W33916   1.509  16.156   2.261  0.1117 -0.2618 -0.4350
18300W        W33917  12.613   9.397  12.304 -0.1672 -0.3429 -0.1931
18301W        W33918   9.810   4.879  12.655  0.3435 -0.2323  0.2204
18302W        W33919   7.366  11.405  12.798 -0.0580  0.0899  0.2337
18303W        W33920   0.065   1.762  14.134 -0.2186 -0.0713 -0.3421
18304W        W33921  10.187  17.927  13.470 -0.1013 -0.4506  0.3650
18305W        W33922  16.025   0.347   5.774 -0.1220 -0.0563  0.0610
18306W        W33923   1.671   8.737   5.133  0.0776 -0.1671 -0.2443
18307W        W33924   5.830   1.026   1.293 -0.0517  0.0626  0.3140
18308W        W33925  15.378  17.465   2.223  0.0566 -0.3397  0.1587
18309W        W33926   1.714  16.414   1.806 -0.3043 -0.0296 -0.1728
18310W        W33927   3.732  14.241   4.562 -0.1856  0.0566  0.1981
18311W        W33928   8.262  15.604   1.584 -0.2919  0.1443  0.3002
18312W        W33929   3.927   6.786  12.201 -0.0095  0.0576 -0.4406
18313W        W33930   0.220   2.927   3.594  0.1955 -0.0140  0.0129
18314W        W33931   7.389   9.080   3.092 -0.1113 -0.0143  0.1653
18315W        W33932  12.371   3.826   5.252  0.0197 -0.0422 -0.0412
18316W        W33933   3.560   1.153   0.407 -0.1034  0.0975 -0.2377
18317W        W33934  16.940   7.664   3.854  0.0651 -0.0603 -0.1920
18318W        W33935  12.793   1.944   1.834 -0.1410  0.1855 -0.0502
18319W        W33936   3.750  14.274  12.748 -0.0600  0.0191  0.0900
18320W        W33937   2.793   1.772   5.609 -0.1852 -0.1592  0.0793
18321W        W33938  18.535  17.294  13.268 -0.0578  0.0805  0.2361
18322W        W33939   1.239  10.266   4.299 -0.3903  0.1037  0.1165
18323W        W33940   0.417  12.822  15.349 -0.1663 -0.2457 -0.0675
18324W        W33941   6.676   9.547   2.286  0.0893 -0.2647  0.0588
18325W        W33942   5.985  17.570  15.418 -0.0742  0.0822 -0.0927
18326W        W33943   7.496  17.525   0.553 -0.0811  0.2297 -0.0529
18327W        W33944  17.864  13.801   2.921 -0.0003  0.2532 -0.0253
18328W        W33945   9.825   5.289   6.090 -0.3030  0.2429  0.0875
18329W        W33946  10.849   2.026   5.568 -0.3491  0.2418 -0.2779
18330W        W33947  15.612   1.019   3.281  0.3394  0.0938 -0.2830
18331W        W33948  10.439   3.652   3.345 -0.1290  0.0552 -0.1458
18332W        W33949   4.207   7.701   1.843  0.2382  0.0091  0.1526
18333W        W33950  15.026   5.964   2.791  0.2344  0.0941  0.1757
18334W        W33951   6.181  13.015   4.090  0.0006 -0.0437  0.1004
18335W        W33952   7.114   5.646   6.239  0.5516  0.2641 -0.1552
18336W        W33953   0.988  14.316   2.504 -0.1871 -0.0552 -0.4246
18337W        W33954  10.510  11.500   3.926 -0.1436  0.1217 -0.1605
18338W        W33955   8.975   0.792  14.338  0.0718 -0.0974  0.1279
18339W        W33956   4.766  13.079   2.117 -0.1017 -0.2439  0.0366
18340W        W33957  13.602  13.860  12.728  0.1514  0.0402  0.1000
18341W        W33958   8.600  16.698  13.167 -0.1300 -0.1110  0.1526
18342W        W33959  18.444  12.918  13.327 -0.0750 -0.1390 -0.0352
18343W        W33960   7.541  16.389   3.677  0.0346  0.1716  0.0803
18344W        W33961  17.275   8.214   5.028  0.0669 -0.2529  0.2698
18345W        W33962   9.756  14.173  11.556  0.0284 -0.1709 -0.2715
18346W        W33963   9.188   9.544   3.377 -0.2263  0.0563  0.1943
18347W        W33964  16.407   2.666   5.803  0.1915 -0.3116 -0.0001
18348W        W33965  16.595  15.844   4.193 -0.2836 -0.1024  0.1695
18349W        W33966   7.910   6.771  10.108 -0.2263  0.0063  0.0588
18350W        W33967  12.909   8.307   1.963 -0.2285 -0.0830 -0.0205
18351W        W33968   7.849   3.421  12.611  0.1648  0.2017 -0.1129
18352W        W33969  17.089   4.770   0.856 -0.1877 -0.1526 -0.1327
18353W        W33970  11.796   0.063   5.373 -0.0348 -0.1663  0.1300
18354W        W33971  16.424   2.425   0.234 -0.1188  0.0474 -0.0245
18355W        W33972   4.341   8.602  12.816 -0.2271  0.0009  0.0101
18356W        W33973   6.093  16.459   4.942  0.0969  0.1358  0.0488
18357W        W33974  12.570  11.892  13.494  0.0357  0.2229  0.0134
18358W        W33975  16.587   0.271  12.199  0.1829  0.0869 -0.4416
18359W        W33976   0.153  14.669   3.224 -0.0383 -0.0527  0.2748
18360W        W33977   5.928  18.485  15.141 -0.0761  0.1043  0.3122
18361W        W33978   4.860  10.823  15.595  0.0979 -0.4535  0.0342
18362W        W33979  11.211   7.574   1.118  0.0190  0.1154 -0.0444
18363W        W33980  15.049  12.631   1.719  0.0601  0.0151 -0.0850
18364W        W33981   1.409   6.862  14.163  0.0893 -0.1813 -0.0347
18365W        W33982   8.472  10.621  15.593  0.1047  0.2590  0.2659
18366W        W33983  10.932  16.650   0.630 -0.0370  0.2545 -0.0204
18367W        W33984  17.201  15.221  11.638  0.2163 -0.4804 -0.0273
18368W        W33985   3.925   2.927   5.042  0.0304 -0.0547 -0.1883
18369W        W33986   2.868  13.247   0.949  0.2971 -0.1491  0.1587
18370W        W33987  17.699  15.297   4.918 -0.0167  0.0956  0.1464
18371W        W33988   0.673   4.067   4.848 -0.0345  0.2301 -0.1617
18372W        W33989   5.657   0.559   2.546  0.0313  0.0275  0.0730
18373W        W33990   3.932  10.652   1.654  0.0106  0.0096 -0.1414
18374W        W33991   5.952   2.746   4.966  0.0582  0.2981  0.1124
18375W        W33992   2.255  16.294  12.436  0.3800 -0.0537 -0.0714
18376W        W33993  14.241  18.394  13.314  0.2077 -0.0992 -0.4412
18377W        W33994   2.711  13.530   3.938  0.0495 -0.1574  0.0294
18378W        W33995  15.883  13.840   3.199 -0.0190  0.3760 -0.1543
18379W        W33996   3.582   1.960   1.851  0.4031 -0.1164  0.1507
18380W        W33997   3.148   0.149  13.962 -0.0189  0.0883  0.0062
18381W        W33998   1.410  18.561   0.226  0.2870 -0.1495  0.2914
18382W        W33999  14.126  18.160  13.771  0.2180  0.1978  0.0211
18383W        W34000  17.293   5.850   2.139 -0.3479 -0.2958  0.0118
18384W        W34001   2.751   7.402   4.470  0.0467 -0.1018 -0.0158
18385W        W34002  11.328  17.105   4.582  0.2457 -0.1940  0.1323
18386W        W34003  15.976  18.387  13.968 -0.0267 -0.1400 -0.0183
18387W        W34004   0.005  13.314   4.322  0.2321 -0.1080  0.1598
18388W        W34005   1.951   2.284  12.281 -0.1365  0.1300 -0.1114
18389W        W34006  17.968  16.645   1.367  0.0486  0.1537 -0.1584
18390W        W34007   8.670  10.434   1.582  0.0399  0.3069 -0.2649
18391W        W34008  13.896   6.886   3.029 -0.2273  0.2456  0.2484
18392W        W34009   8.489  14.269   4.949  0.0473  0.0018  0.0912
18393W        W34010   6.178  16.918   4.754 -0.0250 -0.1135  0.3831
18394W        W34011   0.766   8.577  11.688 -0.1423  0.0471 -0.0156
18395W        W34012  17.463   2.126   1.744 -0.1249 -0.3443  0.0764
18396W        W34013   6.877   0.421   2.840  0.0096  0.0615 -0.0131
18397W        W34014   2.158  17.643  11.525 -0.3923  0.0293  0.0472
18398W        W34015  11.173  13.378  12.036 -0.0520 -0.1990  0.2740
18399W        W34016  11.116  14.945  15.287  0.3560 -0.1580 -0.0174
18400W        W34017   3.074  10.477  14.796 -0.0412  0.0502 -0.4384
18401W        W34018  16.675   1.548  12.594  0.0975  0.1532 -0.1221
18402W        W34019  18.540  11.012   3.295 -0.1022 -0.0232  0.1194
18403W        W34020   3.928   0.450  11.359 -0.0443 -0.0155  0.2271
18404W        W34021   5.458   1.872   1.214  0.1013  0.1882 -0.3024
18405W        W34022   1.086   5.913  10.761 -0.1097  0.1011 -0.0221
18406W        W34023  15.546  15.372   4.799  0.3035  0.1596  0.2446
18407W        W34024   7.071  12.593  14.153 -0.0775 -0.3176 -0.2345
18408W        W34025  17.081   1.137  12.442  0.1225 -0.2509  0.3986
18409W        W34026   7.865  15.954  12.083 -0.3053 -0.1503 -0.1459
18410W        W34027  16.151  11.748  12.276 -0.2537 -0.2182  0.1487
18411W        W34028   2.924   0.793  13.756  0.2997 -0.0812 -0.1186
18412W        W34029  13.905  15.740  15.089 -0.2727  0.0006  0.1604
18413W        W34030   5.291   6.982  12.476  0.0633  0.2409 -0.2917
18414W        W34031  18.079  11.408  10.926  0.1735 -0.0795 -0.2364
18415W        W34032   0.555   4.625  15.454  0.0452 -0.0158 -0.1747
18416W        W34033  10.425  16.615   1.677 -0.1374  0.0286 -0.2599
18417W        W34034   1.305   4.287  12.945  0.0231 -0.0934  0.0921
18418W        W34035   5.894  16.304  12.514 -0.1298 -0.3561 -0.0417
18419W        W34036   9.813  11.628  14.078 -0.1677 -0.3473  0.1154
18420W        W34037  15.600  12.937  10.237 -0.0436  0.0222  0.0222
18421W        W34038   5.768  15.668  14.612 -0.0906 -0.1500 -0.0848
18422W        W34039  10.450  16.786  13.160  0.0272 -0.1024  0.0665
18423W        W34040  18.023  10.930   1.095 -0.1809  0.2069 -0.2504
18424W        W34041  14.545   7.480  12.250 -0.0789  0.5422  0.0658
18425W        W34042  16.369   3.449   3.164 -0.2162 -0.2755  0.3012
18426W        W34043  16.205  11.836  13.224 -0.0204  0.0580  0.0631
18427W        W34044   2.657   2.363  14.077 -0.3344 -0.0313  0.2021
18428W        W34045  18.415  16.118   0.243 -0.2038  0.2773  0.2743
18429W        W34046  15.564   2.637   6.606 -0.1690 -0.1785 -0.2175
18430W        W34047   9.410   5.130  13.917  0.3900  0.0217 -0.1296
18431W        W34048   3.272  14.856  11.871  0.0186 -0.2487 -0.2383
18432W        W34049  12.837   1.639  13.008 -0.1051 -0.2092 -0.0100
18433W        W34050   0.659   3.272   6.299  0.0043 -0.2754  0.1587
18434W        W34051  14.809  11.506  10.279 -0.2759 -0.1369  0.1293
18435W        W34052   2.598   3.426  15.396 -0.1288 -0.0097  0.1532
18436W        W34053  18.005  12.356  10.944 -0.1151 -0.3750 -0.0001
18437W        W34054  17.059   1.786   1.078 -0.1412 -0.0542  0.1799
18438W        W34055   0.794  12.422   0.803  0.1369 -0.2849  0.1731
18439W        W34056   3.946   3.668   4.028 -0.4389  0.0463  0.0044
18440W        W34057   7.492  14.306   4.482  0.1777 -0.0455  0.3062
18441W        W34058   6.604   4.952   4.019  0.1013 -0.1187  0.2080
18442W        W34059   8.507  13.718   0.986 -0.0026 -0.2732 -0.1523
18443W        W34060  15.648   1.824   1.126 -0.2959 -0.1879  0.3724
18444W        W34061   5.516   5.091  10.853  0.1431  0.1289  0.0351
18445W        W34062   6.760  13.855   4.391 -0.0564 -0.0618 -0.0258
18446W        W34063   6.249  14.855  15.047 -0.0915 -0.1929 -0.1038
18447W        W34064  13.897  13.196   1.154  0.0006  0.4443  0.0797
18448W        W34065  17.292  11.485   0.624  0.1522  0.0668 -0.2888
18449W        W34066  16.996   4.194   0.985  0.1905  0.0100  0.1846
18450W        W34067  11.285   2.341   3.184 -0.0344 -0.0201  0.1310
18451W        W34068   0.110   9.244   1.268 -0.0197  0.0662 -0.2566
18452W        W34069   9.057  17.567   5.192  0.3516 -0.1697  0.1819
18453W        W34070  13.530   9.730  11.881 -0.0146 -0.1838  0.1576
18454W        W34071   5.442  14.671   3.978  0.3866  0.2290 -0.3558
18455W        W34072   1.877   1.001  11.815 -0.1831 -0.0872 -0.0727
18456W        W34073   1.477   6.566  14.925  0.0194 -0.0252 -0.3133
18457W        W34074   1.973  16.721  12.372 -0.1543  0.2003 -0.2379
18458W        W34075   2.388   4.170   2.481  0.1233  0.2129  0.2510
18459W        W34076  17.290   6.302   5.102  0.1574 -0.0259 -0.0383
18460W        W34077   2.067  15.613  13.372  0.2635  0.1978 -0.2925
18461W        W34078  14.259   2.131   1.950  0.0028  0.0509  0.0990
18462W        W34079  14.915  15.753  14.669  0.4833 -0.0494 -0.4256
18463W        W34080   7.386  17.520   0.036 -0.1556 -0.2008 -0.0423
18464W        W34081  10.832  15.062   2.217 -0.1563  0.1090 -0.0042
18465W        W34082  13.710   9.485   0.732 -0.1769  0.3036  0.3229
18466W        W34083   1.788   4.755   5.563  0.1477  0.0581 -0.1872
18467W        W34084  11.057  12.951  15.658  0.1092  0.1566  0.2823
18468W        W34085   5.418  14.545  12.262  0.1124 -0.3386  0.1337
18469W        W34086   9.373  14.033  14.057  0.0184 -0.3052 -0.0284
18470W        W34087   5.618   0.546  13.067  0.0203 -0.3395 -0.0688
18471W        W34088   1.246   8.024   0.098  0.1917 -0.0756  0.1941
18472W        W34089   9.899   8.986   3.404 -0.2339  0.0604 -0.1592
18473W        W34090  18.349   1.845  15.710  0.1915  0.2829 -0.1738
18474W        W34091  10.023   8.091  12.160  0.4832  0.2245  0.0331
18475W        W34092   7.605   4.173   2.282  0.1397 -0.0027 -0.1509
18476W        W34093   6.722  17.343   3.826  0.0874 -0.0162 -0.0346
18477W        W34094   8.558   8.355   0.871  0.2202 -0.1378  0.0030
18478W        W34095   7.509   1.140   3.112  0.1033  0.1152  0.0434
18479W        W34096   1.485   9.744   5.099  0.0306 -0.1600 -0.4162
18480W        W34097  18.447   3.077  13.456  0.2139  0.0002 -0.1086
18481W        W34098  17.750   2.868   1.443  0.2522  0.0910  0.0771
18482W        W34099  12.793  12.361  11.403  0.0202  0.2652 -0.1135
18483W        W34100  15.681  16.135   5.886 -0.0036 -0.1974  0.1050
18484W        W34101   4.456  17.147  10.900 -0.0554  0.0216 -0.0849
18485W        W34102   8.020   1.028  12.364 -0.1032 -0.2068  0.4745
18486W        W34103   5.697   4.490  12.727  0.0504 -0.0449 -0.0884
18487W        W34104   9.415  15.863  11.949 -0.2214  0.1331  0.2130
18488W        W34105  13.258   2.697   4.633  0.0371 -0.0179 -0.4260
18489W        W34106   5.137  10.778   3.529 -0.2493  0.2873 -0.1397
18490W        W34107   6.518  14.782  10.790  0.0090  0.0079  0.1039
18491W        W34108  16.353   0.358   4.687 -0.2408 -0.0340  0.0505
18492W        W34109   1.506  13.704   0.587 -0.0151  0.3751  0.0121
18493W        W34110  13.127   5.974  14.445  0.3119  0.1869  0.1360
18494W        W34111   4.551   8.712   0.214 -0.1237  0.0778  0.0347
18495W        W34112  18.536  10.473   3.273 -0.2834  0.0229  0.2474
18496W        W34113   4.784   7.395   4.146 -0.0803 -0.3222 -0.2494
18497W        W34114  17.344   2.470   4.315  0.0598 -0.2646  0.0215
18498W        W34115   1.790  17.442  11.737  0.2766  0.4158 -0.3350
18499W        W34116   2.891   0.650  14.433  0.0872  0.0083  0.0932
18500W        W34117   8.032   5.105  11.738  0.0037  0.2207  0.0542
18501W        W34118   7.869   6.555   5.091  0.0006  0.0855 -0.1986
18502W        W34119  14.165   7.197   1.068  0.0844  0.0514  0.3553
18503W        W34120   7.454   5.707  13.515  0.0017 -0.0062 -0.1609
18504W        W34121   1.506  18.264   4.705 -0.5713  0.0225  0.2778
18505W        W34122   3.089  13.070   0.557  0.1891  0.3216 -0.0601
18506W        W34123  10.100   4.098  15.421 -0.0349 -0.1133 -0.1483
18507W        W34124  18.365   1.397   0.282  0.1330 -0.0953  0.1168
18508W        W34125   9.445  13.983  15.612  0.0457  0.2051  0.3978
18509W        W34126   6.421  17.435   2.048 -0.0703 -0.2331  0.0935
18510W        W34127  14.907  14.903  15.670  0.1267 -0.1272  0.1291
18511W        W34128  12.482  17.623  14.944 -0.1939 -0.2741 -0.0973
18512W        W34129   3.731  15.586  10.901  0.1784 -0.0856  0.6870
18513W        W34130   4.184  10.148   4.862 -0.0779 -0.1524 -0.0960
18514W        W34131   4.893   6.135   0.464 -0.0916 -0.0444  0.1231
18515W        W34132   6.574   2.931   5.892  0.3170 -0.0915  0.0940
18516W        W34133  14.467  18.423   0.530  0.1527 -0.2555 -0.1151
18517W        W34134   1.924   7.771  11.418 -0.2138  0.3242 -0.0005
18518W        W34135   1.645  16.395  15.266  0.3193  0.0424 -0.0156
18519W        W34136  14.907   2.873  12.186 -0.3237 -0.1112  0.2087
18520W        W34137  17.621  15.953   2.004 -0.0358  0.2060 -0.1739
18521W        W34138  13.422   2.167  11.582 -0.3069  0.0519  0.0304
18522W        W34139   4.217   6.492  15.424 -0.1044  0.0260  0.0364
18523W        W34140   9.183  18.458   0.450 -0.0533  0.1071  0.1861
18524W        W34141  13.953   9.546   9.923  0.0074  0.1600  0.1698
18525W        W34142  16.265  15.116  10.875  0.0407  0.0930 -0.0549
18526W        W34143  13.814   6.648  14.212 -0.1048  0.2499 -0.1024
18527W        W34144  16.830  14.955   5.453  0.0326  0.0913  0.1433
18528W        W34145   2.585  12.832   5.098  0.2168  0.1981 -0.0602
18529W        W34146   7.294   1.977  12.980 -0.2501  0.0855  0.0590
18530W        W34147  14.002   5.069   4.364  0.0393  0.1013 -0.5025
18531W        W34148   1.236  13.583  12.479  0.0487  0.0785  0.1354
18532W        W34149  17.757   3.392   3.212 -0.0822 -0.4715 -0.0565
18533W        W34150   2.535   6.035   0.820  0.0434 -0.4574  0.1637
18534W        W34151   1.633  13.225  13.481  0.0626 -0.0899 -0.0297
18535W        W34152  17.575   8.316  13.137  0.1396  0.0499  0.0959
18536W        W34153  11.225   6.007   4.582  0.0840 -0.1664  0.4070
18537W        W34154  11.068  13.152   1.677 -0.0062  0.5722  0.1399
18538W        W34155  15.668   6.018   1.295  0.1802 -0.2049  0.3768
18539W        W34156   9.479  14.939  15.637 -0.2150 -0.1795 -0.2143
18540W        W34157   7.528   4.222  12.516  0.1349 -0.2202  0.2181
18541W        W34158  13.541   9.685   0.261  0.1563 -0.0971 -0.0436
18542W        W34159  15.351   5.561  12.806  0.0008  0.0522 -0.0935
18543W        W34160   1.458   0.464   3.828  0.0501 -0.1942  0.0406
18544W        W34161   5.594  11.912   2.222  0.0436  0.1962 -0.0006
18545W        W34162   0.799  18.210  11.569  0.0161 -0.0187 -0.1651
18546W        W34163   2.013   9.506   0.002 -0.2252  0.1770 -0.0125
18547W        W34164   4.870  10.480  11.065  0.0459  0.1079 -0.1646
18548W        W34165   0.992   1.259  12.122  0.0970 -0.1390 -0.1179
18549W        W34166  11.984   7.575  12.579 -0.1166 -0.0834 -0.2606
18550W        W34167  12.258   4.487   0.677 -0.1540 -0.1935 -0.2654
18551W        W34168   3.665  17.417   3.188  0.0704  0.1685  0.1911
18552W        W34169   1.792  11.281   1.590 -0.3024 -0.0895 -0.0011
18553W        W34170   1.170  14.731   3.965  0.2216  0.0229 -0.2967
18554W        W34171   8.795  16.822  12.695 -0.1396 -0.3888 -0.0678
18555W        W34172   2.992   8.165   1.507 -0.1945  0.2003  0.1636
18556W        W34173   2.710   5.525  11.775 -0.0214  0.3763 -0.0234
18557W        W34174   9.038  12.783  13.233 -0.1237 -0.1451  0.3776
18558W        W34175   8.390   8.436   1.386  0.2948  0.0902  0.2490
18559W        W34176   7.883  16.792  10.501  0.0674  0.0385 -0.1444
18560W        W34177   1.202   0.369   1.687  0.0828 -0.2054 -0.2102
18561W        W34178  10.828   8.505   4.765 -0.0216  0.0962 -0.2769
18562W        W34179   8.396  17.218  14.278  0.1556 -0.3764  0.2329
18563W        W34180  10.785   3.911  13.064  0.2270 -0.3759  0.0792
18564W        W34181   7.028  16.821  11.309  0.0071 -0.0192  0.0636
18565W        W34182  14.419   9.753   3.708 -0.1547  0.0688 -0.0175
18566W        W34183   3.411   5.102  12.473  0.3445  0.0438  0.2893
18567W        W34184   0.674   9.198  12.607  0.1391  0.1547 -0.0712
18568W        W34185  14.383  11.303   0.194  0.0375  0.1181  0.0066
18569W        W34186   6.732  12.024  10.384 -0.2385  0.0570 -0.0159
18570W        W34187   0.671  15.485  11.984 -0.0241 -0.5128  0.0881
18571W        W34188   4.137   0.517   3.452 -0.3814  0.0818  0.3293
18572W        W34189  11.470  16.518   1.523 -0.0413  0.0187  0.1064
18573W        W34190   8.963  13.793   2.931 -0.0145  0.3187  0.2940
18574W        W34191   7.745  17.044  12.674  0.1741  0.1304  0.0355
18575W        W34192  13.222  10.947  15.420  0.1512  0.2951 -0.1439
18576W        W34193   9.585  18.369  11.224 -0.3334 -0.0443  0.2609
18577W        W34194   1.224   8.171   0.578  0.1384 -0.2428  0.2779
18578W        W34195  18.509  18.193   3.397 -0.1770  0.0619  0.1146
18579W        W34196  13.905   4.896   2.589 -0.1985  0.0102  0.0825
18580W        W34197  16.140   6.219  10.628 -0.0732 -0.3813 -0.1362
18581W        W34198   3.959   5.486   3.953 -0.0198 -0.0073  0.1555
18582W        W34199   6.161   4.104   3.167  0.1726 -0.0856  0.0688
18583W        W34200   8.961  14.994   3.729 -0.3191 -0.1256  0.0526
18584W        W34201   1.958  18.075   4.954 -0.0570  0.1637  0.0754
18585W        W34202   9.193   5.081  11.984 -0.0402  0.1821  0.0636
18586W        W34203   5.794  16.652  12.205  0.0052 -0.4713  0.0310
18587W        W34204   0.633   4.599   4.315 -0.0971  0.3736 -0.1061
18588W        W34205  18.500   1.379  13.339 -0.1637 -0.0091  0.0192
18589W        W34206  17.265   2.245   0.574  0.0088  0.3142 -0.2172
18590W        W34207   9.162  18.046   0.746  0.0829  0.2844  0.2916
18591W        W34208  14.079   7.768   3.952 -0.0148  0.1083  0.1113
18592W        W34209  18.077   3.491  11.297 -0.0470  0.3642 -0.0787
18593W        W34210  16.206  18.059   4.995 -0.1328 -0.0477  0.2759
18594W        W34211  15.621  10.152  10.944  0.0452 -0.3419  0.2295
18595W        W34212   4.619   5.017   4.331  0.1857 -0.1616  0.2817
18596W        W34213  12.967  11.653  10.522 -0.0266  0.2575  0.2362
18597W        W34214  17.885  16.362   2.106  0.0651  0.0912  0.0336
18598W        W34215  12.964  11.667  14.277 -0.1725 -0.2832  0.1393
18599W        W34216  13.790  13.947   1.452 -0.3310 -0.0360 -0.1073
18600W        W34217   4.067   5.305   3.292 -0.0227 -0.2118 -0.1752
18601W        W34218  13.803   2.807  13.134  0.0688 -0.0371  0.1817
18602W        W34219  16.273   0.647   1.400  0.1366  0.0072 -0.0643
18603W        W34220  18.548   2.955   0.281 -0.1945 -0.0436 -0.1997
18604W        W34221  13.320   7.851  11.932 -0.2430  0.0400 -0.1295
18605W        W34222   3.908   7.781  12.521 -0.1189 -0.1194 -0.0919
18606W        W34223   9.036  18.059   2.709 -0.0100  0.2760  0.0101
18607W        W34224   8.825   5.892  14.762  0.0066 -0.3213 -0.0561
18608W        W34225   7.364  18.628   3.472  0.0216  0.0480 -0.1178
18609W        W34226  17.749   3.164  10.145 -0.0656 -0.0484  0.2121
18610W        W34227  11.191   8.574   5.588 -0.1236  0.0060 -0.0313
18611W        W34228   3.494  12.986  12.671  0.1233  0.0481 -0.3069
18612W        W34229   8.347  13.143   1.143 -0.0656  0.3160  0.0601
18613W        W34230   5.765  12.818   3.913 -0.1705  0.0756  0.0382
18614W        W34231  17.355   1.799   5.698  0.4437  0.2990  0.1769
18615W        W34232   2.826  14.958  12.801  0.1743 -0.1508 -0.1092
18616W        W34233  12.292  14.294   0.234  0.1466 -0.1747  0.2142
18617W        W34234  14.342  12.132  14.081  0.4656  0.2557  0.1226
18618W        W34235  10.951   2.249   2.035  0.3604  0.1633  0.0338
18619W        W34236  16.078  15.893   5.005 -0.1879  0.1225  0.0595
18620W        W34237  16.876   4.714   4.176 -0.1399 -0.2076 -0.3704
18621W        W34238   1.247   1.474  13.751  0.0575 -0.3568  0.1596
18622W        W34239   6.078  14.534   2.361  0.2194  0.0432  0.0549
18623W        W34240   1.734   6.372  15.682 -0.0101 -0.2334  0.0750
18624W        W34241   4.214   7.434   2.924  0.0225 -0.3477 -0.0865
18625W        W34242  12.678  17.331   1.522  0.2512  0.0846  0.0269
18626W        W34243  10.843   5.956   4.228  0.0808  0.0438  0.2132
18627W        W34244  18.035   8.818  13.880 -0.2316 -0.0174 -0.1010
18628W        W34245  15.043   5.123   2.433  0.1958 -0.5322 -0.2524
18629W        W34246   5.958   0.352  13.332 -0.0481  0.1062 -0.2490
18630W        W34247   5.980   6.012   6.315 -0.0045 -0.1839  0.0211
18631W        W34248   3.065   8.627  12.593  0.1730  0.0694  0.2934
18632W        W34249   6.424  16.901   3.809  0.0961  0.0961 -0.2339
18633W        W34250  11.367   2.344   1.517 -0.4195  0.0870 -0.2978
18634W        W34251  17.794  13.044   1.442  0.1522  0.2544  0.2018
18635W        W34252   4.465  12.801   1.156  0.1449 -0.2316  0.3502
18636W        W34253   0.947  15.085  12.246 -0.4600 -0.1979 -0.0424
18637W        W34254   2.038   3.886  12.487 -0.2067 -0.0755  0.3134
18638W        W34255  18.022  10.662   2.124  0.0785 -0.1417  0.0446
18639W        W34256   8.239  15.014  12.175 -0.1211 -0.1249  0.2337
18640W        W34257  15.930  10.721   0.173  0.0978  0.1208  0.1552
18641W        W34258  17.543   7.252  13.015  0.1863 -0.3041 -0.2634
18642W        W34259  14.276   8.604  15.347 -0.3286  0.1298 -0.0850
18643W        W34260  13.926   5.305   1.719  0.0021 -0.2203 -0.1857
18644W        W34261  14.634   6.940  12.452  0.0901  0.0231  0.3229
18645W        W34262   6.100  16.678  15.794 -0.0762  0.0369 -0.2532
18646W        W34263  17.429   1.204  14.015 -0.2102  0.0293 -0.0500
18647W        W34264   9.329  15.175  13.568  0.0072 -0.1337  0.1227
18648W        W34265   2.892   5.828   2.992  0.0771  0.2279 -0.1851
18649W        W34266  13.731  12.425   2.500  0.0269  0.1181 -0.0052
18650W        W34267   9.073  11.644  12.096  0.1288  0.1671  0.0765
18651W        W34268  14.793  17.014   4.426 -0.1470  0.2636  0.1568
18652W        W34269  17.122   7.480  14.383  0.2198  0.4004  0.0295
18653W        W34270   5.445   2.687  12.970  0.0514  0.1259 -0.1300
18654W        W34271   8.525  14.501   1.798  0.0053 -0.0417 -0.1121
18655W        W34272   8.249   3.142   2.895 -0.0396  0.2519  0.0909
18656W        W34273   6.685  11.146   5.485 -0.1417 -0.3206 -0.2705
18657W        W34274  14.392  15.864   1.009 -0.4549 -0.0703  0.0796
18658W        W34275  11.625   6.465  13.625 -0.2177 -0.0686  0.0673
18659W        W34276   6.667   1.087   1.017  0.3031  0.1401 -0.2479
18660W        W34277   6.098  14.622  11.024 -0.2330 -0.1959 -0.1199
18661W        W34278   3.842  16.000   1.880 -0.0256  0.0264  0.1227
18662W        W34279   2.689  15.040   0.861  0.0460 -0.3445 -0.1821
18663W        W34280  14.533  11.374   1.143  0.1610 -0.1926 -0.0856
18664W        W34281   3.035  15.739  13.898 -0.3467  0.1998 -0.1341
18665W        W34282  14.393   6.344  14.852 -0.2399 -0.1110 -0.1565
18666W        W34283  13.805   2.831   5.501  0.0693  0.2336  0.1091
18667W        W34284  18.280  14.563   3.237  0.1673  0.2421 -0.0903
18668W        W34285  10.484  10.133   5.420  0.0812 -0.1513 -0.1551
18669W        W34286  17.197  10.442  15.518 -0.1732  0.2446  0.0119
18670W        W34287  17.639  15.148   1.399 -0.0835  0.2270  0.2751
18671W        W34288  11.023   3.846  12.026  0.0011 -0.0745  0.1138
18672W        W34289   4.393  13.822   3.716  0.0569 -0.3625  0.2371
18673W        W34290   0.619   5.493   2.281 -0.0214  0.1209  0.0174
18674W        W34291  16.122   6.975   4.877  0.1885  0.0503 -0.3510
18675W        W34292   1.167   9.630  13.173 -0.3092  0.1858  0.1322
18676W        W34293   3.544  12.501  14.953 -0.2708 -0.3407  0.2021
18677W        W34294  18.320   4.393   0.956  0.4376 -0.0624  0.0863
18678W        W34295   9.803  11.299  11.310  0.1841  0.0204 -0.2788
18679W        W34296  18.246   5.706  11.362  0.3064  0.0304  0.0481
18680W        W34297   4.732   7.949   4.938  0.0997 -0.3145  0.2190
18681W        W34298  13.799  13.448   2.410 -0.1022  0.1365 -0.1273
18682W        W34299  15.107  14.593  10.953  0.0885 -0.3209  0.2735
18683W        W34300   2.575   2.145  15.679 -0.3886  0.2171  0.1597
18684W        W34301  13.105  15.620  15.253 -0.0984 -0.0417 -0.1042
18685W        W34302  11.892   2.098   0.377  0.0176 -0.0620  0.4081
18686W        W34303   5.552  14.903  15.661 -0.0813  0.0908  0.1588
18687W        W34304  10.931  16.964   2.594  0.2676 -0.1844 -0.1813
18688W        W34305   7.023   8.683   2.883  0.3585  0.0491 -0.2259
18689W        W34306   7.561   3.079   3.929  0.0075 -0.0161  0.1948
18690W        W34307  18.143   8.867  11.850  0.2671 -0.0365  0.0937
18691W        W34308   1.795  18.420  12.759 -0.2256 -0.1391 -0.1352
18692W        W34309  12.163  10.974   2.869  0.3334  0.0014 -0.1430
18693W        W34310   7.686   3.093  13.505 -0.0445  0.2023 -0.2128
18694W        W34311   1.940   2.764   2.014 -0.0231  0.2059  0.1141
18695W        W34312  17.528  12.338  11.117 -0.0460  0.1506 -0.1298
18696W        W34313  15.049  16.663   4.102 -0.2172 -0.0822 -0.4101
18697W        W34314   7.603   7.948  12.231 -0.3398 -0.1022  0.0395
18698W        W34315  15.780   8.137   1.036  0.0301  0.1820  0.0596
18699W        W34316   7.715  16.871  14.033 -0.1549 -0.1722  0.4045
18700W        W34317  17.210   3.967   2.921 -0.1267  0.2135 -0.0247
18701W        W34318   9.655  17.471   2.845  0.1474 -0.0222  0.2633
18702W        W34319   4.795   4.283   3.055 -0.0610  0.1472  0.1404
18703W        W34320  17.109   0.190   3.093  0.3592  0.1248  0.0402
18704W        W34321  12.362   5.490  14.827 -0.3256 -0.2771  0.2042
18705W        W34322   5.897   7.491   4.661 -0.0404 -0.1616  0.1793
18706W        W34323  11.007   5.629  11.987 -0.0221  0.0526 -0.1126
18707W        W34324  12.722  13.023   5.992  0.2119  0.0168 -0.0489
18708W        W34325  10.210  14.144  11.332  0.0560  0.0179  0.1189
18709W        W34326   7.309   4.269   3.193 -0.3592  0.1533 -0.0451
18710W        W34327   8.343  15.551  10.398 -0.1250  0.0476 -0.1218
18711W        W34328   9.549   0.196   3.783 -0.3029  0.5014 -0.0779
18712W        W34329  15.951  13.972   2.120  0.0655 -0.0539 -0.0514
18713W        W34330  16.367   2.224   3.217 -0.1494 -0.1632  0.0289
18714W        W34331  17.732  18.073  13.326 -0.1975  0.2104  0.4010
18715W        W34332   5.602  16.258   0.751 -0.1980  0.1230  0.0275
18716W        W34333   3.958  10.146  14.327 -0.1384 -0.0906 -0.5082
18717W        W34334   7.950  12.826  11.169  0.0406 -0.1695 -0.1190
18718W        W34335  12.129   0.053  13.291 -0.0995 -0.0921 -0.1804
18719W        W34336  18.138   9.064  13.091  0.0805 -0.1037  0.0897
18720W        W34337   1.977  14.309  11.499 -0.3218  0.1648 -0.1579
18721W        W34338  10.399   0.937   2.643  0.3847  0.0244  0.0150
18722W        W34339  17.878  10.590  13.297  0.3357 -0.0670 -0.0408
18723W        W34340  12.218   4.329  15.367  0.0102 -0.0032 -0.2391
18724W        W34341   8.646   5.029   4.282 -0.2774 -0.0816  0.3589
18725W        W34342   4.440   8.771   4.449  0.0886 -0.0611  0.0623
18726W        W34343  17.459   2.264  11.651 -0.0148 -0.1136  0.4387
18727W        W34344   6.447   9.581  13.145  0.0911  0.1237 -0.2573
18728W        W34345  17.577  17.428  12.681  0.4852  0.3699 -0.1333
18729W        W34346   9.658  10.389  11.767  0.0473 -0.2040 -0.1644
18730W        W34347  17.582   0.414   5.504 -0.1970  0.0181 -0.0440
18731W        W34348   3.472  12.216  15.747 -0.2249  0.0458 -0.2105
18732W        W34349  13.224  15.419   3.607  0.0914 -0.0875 -0.0605
18733W        W34350   8.010   2.707  11.466 -0.1441 -0.0008  0.1380
18734W        W34351   3.859   5.034   4.773 -0.1420 -0.0905  0.3500
18735W        W34352  17.753  17.548  15.329  0.0955  0.2149  0.2009
18736W        W34353  16.851  15.164  13.413  0.1237 -0.1711 -0.1569
18737W        W34354   0.439  18.333   2.681 -0.0780 -0.1119  0.0563
18738W        W34355  11.417   5.139   4.456 -0.0995  0.0600  0.0203
18739W        W34356  11.961   0.676  13.579  0.2336 -0.2278 -0.1086
18740W        W34357  18.602   1.959  14.858 -0.0890  0.2255 -0.1518
18741W        W34358   3.657  16.343  13.774  0.0438 -0.0687 -0.1358
18742W        W34359  13.834   3.278   2.922  0.1988  0.0564 -0.1832
18743W        W34360   3.423  12.929   3.108  0.3704  0.0555 -0.0581
18744W        W34361   1.562  12.472  15.613  0.0443  0.1170 -0.2114
18745W        W34362   2.522  16.529  10.484  0.3907 -0.1027  0.0349
18746W        W34363  15.197   1.139   0.080  0.2060 -0.0227  0.0130
18747W        W34364   6.969   0.059  15.699  0.0874 -0.1431  0.2208
18748W        W34365  18.180   1.534   1.660  0.2890 -0.1001 -0.3099
18749W        W34366   0.920  15.448   1.446  0.0103 -0.1888 -0.1188
18750W        W34367  15.222   5.308   5.925 -0.1710  0.0582 -0.3405
18751W        W34368  14.844  15.927   0.621  0.2523  0.2081 -0.2656
18752W        W34369   6.782  11.383   0.948  0.2261 -0.1117 -0.2127
18753W        W34370  10.447   1.661   0.600 -0.0721 -0.0311 -0.1873
18754W        W34371   0.065   3.965   1.846  0.2362  0.2553  0.1245
18755W        W34372  11.633   3.445  12.871  0.2644 -0.1556 -0.3406
18756W        W34373  10.788  16.023  13.242 -0.1607  0.0493 -0.0220
18757W        W34374   7.840  17.945  15.785 -0.0768  0.0187 -0.3360
18758W        W34375  18.243  16.569  14.565 -0.0120  0.0433  0.1632
18759W        W34376   7.902   6.480  11.898  0.1583  0.6016 -0.3617
18760W        W34377   9.441  15.034  11.507  0.2756 -0.1055 -0.0755
18761W        W34378  16.841  15.867   0.906  0.0395 -0.0460  0.3661
18762W        W34379   5.867   6.645   4.213 -0.1128 -0.4217  0.3618
18763W        W34380  16.817   7.266   2.908 -0.0456 -0.0679  0.0589
18764W        W34381   8.587   8.087  13.831  0.0561  0.0044  0.0252
18765W        W34382   6.494  17.725  14.573 -0.3315 -0.0342 -0.1870
18766W        W34383   0.111  12.334   4.038  0.0215 -0.1667  0.0011
18767W        W34384  14.554   2.098   5.825  0.1725  0.0179 -0.0180
18768W        W34385  15.789   8.433   4.841  0.0173 -0.0294 -0.1249
18769W        W34386  17.064  12.201   4.148  0.1417  0.3700 -0.0526
18770W        W34387  15.974  11.369   0.987  0.2230  0.2940 -0.0088
18771W        W34388  16.999   0.592  13.661  0.1435  0.0848  0.1186
18772W        W34389   0.920  18.550  15.204  0.1339  0.0795  0.1957
18773W        W34390  15.548   0.015  13.796 -0.2263 -0.1503  0.1093
18774W        W34391   2.782  13.876  11.917  0.0693  0.0366 -0.1597
18775W        W34392  17.386  15.541   1.156 -0.1202  0.0560  0.0008
18776W        W34393  17.568  12.625   0.234  0.2155 -0.0731 -0.2253
18777W        W34394  13.171  16.595  15.760  0.1260  0.0256 -0.0940
18778W        W34395  13.539  15.879  12.196  0.0710 -0.2460  0.3002
18779W        W34396   8.309   5.442  14.009 -0.2682  0.0036  0.1025
18780W        W34397   7.507  10.468   9.704  0.0904 -0.2888  0.2884
18781W        W34398   0.160   2.704   4.122  0.1260  0.5475 -0.3192
18782W        W34399  11.495  13.793   3.243  0.0787  0.0452  0.1424
18783W        W34400   1.331   3.035   0.809 -0.0996 -0.1301 -0.1413
18784W        W34401   0.444  13.679  13.083 -0.1337  0.0257  0.0314
18785W        W34402  13.950   6.050   3.166  0.1158  0.1888 -0.3052
18786W        W34403   1.014   9.269   3.142 -0.1349  0.1385  0.0876
18787W        W34404  11.231   0.243  10.832 -0.3064  0.0764  0.2571
18788W        W34405  10.658   5.241   0.258  0.0543 -0.1902  0.1042
18789W        W34406  16.168  10.654  11.361 -0.2025 -0.1630 -0.0667
18790W        W34407  11.241  18.110  14.803  0.0337  0.0155  0.3628
18791W        W34408   8.001   6.294   4.556  0.1005 -0.2517  0.0382
18792W        W34409  13.557   3.300   1.901  0.1841 -0.1401  0.0967
18793W        W34410   5.538  12.120   0.139  0.0152 -0.0243  0.4946
18794W        W34411   9.854  14.917   4.267 -0.0716 -0.1614 -0.2608
18795W        W34412  17.711   9.189  12.629 -0.0134 -0.0990  0.0321
18796W        W34413   8.948  13.791  14.005  0.2425 -0.0178 -0.1318
18797W        W34414  17.564   9.335   4.385  0.2818 -0.2332 -0.1715
18798W        W34415   0.923   6.790   2.528 -0.0836  0.1295 -0.2479
18799W        W34416   1.140   6.254   2.571  0.0146 -0.2199 -0.1676
18800W        W34417  18.522   2.938  14.826 -0.1533 -0.1932 -0.1984
18801W        W34418  12.384  18.191   0.889  0.0415 -0.1298  0.0315
18802W        W34419   7.889   4.398   1.031  0.0730  0.2998  0.3909
18803W        W34420  18.165  15.674   3.612 -0.2583  0.1004  0.0044
18804W        W34421  15.240   7.364   1.105 -0.2316  0.1007 -0.2834
18805W        W34422   7.195  12.233   1.518  0.3259 -0.1392  0.0981
18806W        W34423  12.903  16.181   2.857  0.1825  0.0240  0.1350
18807W        W34424   8.700  15.015   0.387  0.0029 -0.0219 -0.1541
18808W        W34425  11.837   6.105   5.348 -0.2178 -0.0209 -0.0732
18809W        W34426   5.178  17.712  15.048 -0.0350  0.1924 -0.0445
18810W        W34427  12.279   8.718   2.250  0.0862 -0.1062  0.0701
18811W        W34428  17.655  17.030  15.442 -0.2194  0.3011  0.2028
18812W        W34429   6.642   1.464   4.495  0.3269  0.0491 -0.0811
18813W        W34430   2.653   1.030  11.842 -0.4351 -0.0022 -0.2751
18814W        W34431  15.202  12.640  12.137 -0.2394 -0.3010  0.1332
18815W        W34432  14.325   9.205  12.472 -0.0428 -0.0645 -0.1175
18816W        W34433   3.008   4.762  15.645  0.0800 -0.1242  0.0550
18817W        W34434   6.761   4.355   5.702 -0.0579 -0.1181 -0.1358
18818W        W34435  14.167  15.198   1.814  0.2767  0.0503  0.8196
18819W        W34436  17.215  11.238  12.605  0.0254  0.3335  0.1368
18820W        W34437   5.514  15.803   1.807 -0.0022  0.1601  0.2617
18821W        W34438   5.365  14.399   3.185  0.0082  0.2376  0.0635
18822W        W34439   0.399  18.006   4.675 -0.1243 -0.0296  0.0740
18823W        W34440  17.550  15.462   2.666 -0.1903  0.0382  0.1025
18824W        W34441  13.744  14.119   0.954  0.1924 -0.0957 -0.2761
18825W        W34442  17.450   8.087  13.543  0.0796 -0.0493 -0.2865
18826W        W34443   1.395  17.499  11.396 -0.0914 -0.0171 -0.1641
18827W        W34444   7.192  14.165   2.367  0.4320 -0.1370  0.0873
18828W        W34445   7.506   6.735  12.103  0.1322  0.1072  0.0271
18829W        W34446   8.471   7.687   2.304  0.1094  0.3554  0.1734
18830W        W34447   9.523   5.913   2.218  0.0839  0.0542  0.2589
18831W        W34448   0.445   3.204   3.908 -0.1384 -0.0122 -0.0520
18832W        W34449  11.769  14.186   2.433  0.0009 -0.2615 -0.2012
18833W        W34450  10.855   8.973   4.487 -0.1413  0.2394  0.3880
18834W        W34451  15.105   7.640  11.298  0.1318  0.1798 -0.1755
18835W        W34452  13.752  16.576  14.046  0.1579  0.0183 -0.0025
18836W        W34453   1.452  17.984  12.475  0.2604 -0.0902  0.2564
18837W        W34454   0.763   3.382  11.779 -0.4555 -0.2394  0.1802
18838W        W34455   0.833  11.978  15.229  0.2960  0.3859 -0.2331
18839W        W34456  14.670   5.638   4.847 -0.0616 -0.0199  0.0209
18840W        W34457   3.439   3.300   2.772  0.0826 -0.1180  0.0514
18841W        W34458   4.300  10.581  11.695 -0.1416 -0.1510 -0.3663
18842W        W34459   8.518  11.518  15.139 -0.0748 -0.3651  0.2709
18843W        W34460   8.092  18.076   1.922 -0.1491  0.1614  0.3234
18844W        W34461  14.189   8.583   0.076  0.1281 -0.2500 -0.3480
18845W        W34462   5.314   7.536   0.867  0.1428  0.0584 -0.1410
18846W        W34463  15.321  12.248   1.501 -0.2360 -0.4009 -0.0739
18847W        W34464   9.915   8.191  10.352 -0.0064  0.0050 -0.0762
18848W        W34465   9.174  11.176  14.308 -0.1829  0.1061 -0.0018
18849W        W34466   8.286   0.802   4.015 -0.1711 -0.0998  0.0192
18850W        W34467   7.734   3.850   3.244  0.0914 -0.2004 -0.2307
18851W        W34468  11.657  15.541  14.760  0.1640  0.2386 -0.1711
18852W        W34469  13.075   4.004   1.470 -0.4132  0.1275  0.3110
18853W        W34470   7.600  17.620  12.904  0.0046  0.1149 -0.1369
18854W        W34471  17.103   2.650  12.607 -0.1001 -0.0544 -0.1666
18855W        W34472   2.207  16.355  14.438 -0.0542  0.0883 -0.0685
18856W        W34473   5.347   7.659  13.610 -0.0158 -0.4389 -0.1603
18857W        W34474   6.778   2.329   0.855  0.2929 -0.1010 -0.3028
18858W        W34475  18.538   1.352   3.634  0.3276 -0.0875 -0.3353
18859W        W34476   9.896  10.776  13.694  0.1320  0.0660 -0.0150
18860W        W34477  17.381   5.726  13.353 -0.0087 -0.1833 -0.2191
18861W        W34478  10.713  11.124   2.108  0.1977  0.1470 -0.0916
18862W        W34479   2.593   2.256   2.333 -0.0995 -0.0412  0.2818
18863W        W34480   8.553   1.412   1.808 -0.1386 -0.2002 -0.2385
18864W        W34481  15.970   9.033  14.297 -0.3598 -0.3218 -0.1613
18865W        W34482  18.370   0.840   3.564  0.3622  0.2764  0.0127
18866W        W34483   7.663   9.094   1.717 -0.1543 -0.0498  0.0754
18867W        W34484   7.051   5.005  12.171 -0.1857  0.4278 -0.0259
18868W        W34485   1.501   0.879  13.287 -0.0038  0.0851 -0.1003
18869W        W34486   3.706  16.902   3.393  0.1394  0.0112 -0.2294
18870W        W34487  11.426   9.683  11.022  0.0759  0.0559  0.0613
18871W        W34488   6.736   8.490  15.581 -0.1671  0.0137 -0.2423
18872W        W34489  15.449   7.918  14.740 -0.0966 -0.0390 -0.1367
18873W        W34490   7.555   7.113  11.761  0.2556 -0.0739  0.2016
18874W        W34491   3.214   8.568  11.620 -0.0126 -0.1333 -0.1271
18875W        W34492   8.785   1.923  14.696  0.1483  0.0262 -0.0144
18876W        W34493   5.196   5.989  10.660  0.0399  0.0039  0.1623
18877W        W34494   1.221   7.583  12.169 -0.0614  0.0231  0.2183
18878W        W34495   4.621  15.743   5.869  0.2592 -0.0788  0.2284
18879W        W34496   1.528   4.389   4.115 -0.0588 -0.3954 -0.3039
18880W        W34497   0.690   9.774   2.320  0.2043  0.1438  0.0494
18881W        W34498   7.711   7.006  10.903  0.0643 -0.1026 -0.1373
18882W        W34499   0.608  16.863  12.476 -0.1929  0.2298  0.0819
18883W        W34500  11.386   1.170   4.851 -0.0316  0.2604  0.1786
18884W        W34501   1.848   7.365   2.628 -0.2752  0.2699  0.1352
18885W        W34502   1.841   4.803  14.756  0.0681  0.1565  0.0371
18886W        W34503   4.897  10.516   4.253 -0.2001  0.0683 -0.0771
18887W        W34504  17.530  13.581  10.335 -0.1946 -0.1970 -0.1813
18888W        W34505  18.578  15.391  15.257  0.0235  0.0684  0.0328
18889W        W34506   0.628   6.295  12.192 -0.0421  0.0503  0.0253
18890W        W34507   7.332  16.746  10.493 -0.0162 -0.0143  0.0010
18891W        W34508   8.422  11.737   3.709 -0.1858 -0.0115  0.0538
18892W        W34509  18.382  11.370  15.542 -0.1822 -0.1385 -0.0405
18893W        W34510  12.325   6.543   2.962  0.1285 -0.1002 -0.1915
18894W        W34511  14.742  17.383  13.168 -0.0323  0.0735 -0.2082
18895W        W34512  10.779  17.900  11.595  0.0722 -0.0543 -0.1422
18896W        W34513   7.325  16.873  14.608 -0.2532  0.1749 -0.1178
18897W        W34514  11.767   6.586  12.593 -0.1888 -0.1589  0.0894
18898W        W34515   9.109   1.254   6.129  0.0828 -0.1634 -0.0407
18899W        W34516  14.249  16.268  14.047 -0.1776  0.3164 -0.0104
18900W        W34517  17.091  17.748   0.544  0.0864 -0.2898  0.1722
18901W        W34518   7.253  18.340  14.520 -0.0804  0.2042 -0.3741
18902W        W34519   7.295   0.247  13.554 -0.0591  0.1559  0.0387
18903W        W34520  12.764   1.846  15.013 -0.1836  0.0378  0.2440
18904W        W34521   1.173   7.608   2.188 -0.1185 -0.2815 -0.1705
18905W        W34522   6.841  12.550   3.625  0.3150  0.0902 -0.1581
18906W        W34523  13.320   0.628   2.389 -0.1663  0.0505  0.3724
18907W        W34524   2.131   2.161   1.151  0.2992 -0.0104  0.4307
18908W        W34525  15.662  12.588  10.617 -0.0592 -0.0609  0.2927
18909W        W34526   9.789  13.792  12.892 -0.0538 -0.2083 -0.0486
18910W        W34527   4.286  15.402   4.540  0.4105 -0.0466  0.0921
18911W        W34528  14.374   2.754   1.029 -0.0883  0.1800  0.1833
18912W        W34529   0.568  16.177   3.096  0.0099 -0.2928  0.0636
18913W        W34530  15.915  18.140   2.906 -0.0509  0.1951 -0.1673
18914W        W34531  16.094  18.571  11.913  0.1693 -0.0621  0.0458
18915W        W34532   6.532   6.288  12.429 -0.1264  0.1336  0.1318
18916W        W34533  10.743  16.395   4.782 -0.1015 -0.1377  0.0378
18917W        W34534  15.221   9.238   3.868  0.0604  0.0401  0.0582
18918W        W34535  17.884  11.467   3.868  0.1305  0.3716  0.0347
18919W        W34536  10.868   7.740  14.302 -0.1927 -0.1656  0.0016
18920W        W34537  11.028   6.797  15.598  0.1704 -0.2770 -0.0038
18921W        W34538  15.838   4.821   1.960 -0.0770  0.1712 -0.1800
18922W        W34539  15.382  10.913   2.751 -0.1670 -0.0452 -0.0737
18923W        W34540   8.897  12.467  12.354  0.0976  0.3147  0.3701
18924W        W34541   8.831   1.308   3.252  0.2213 -0.1563 -0.0704
18925W        W34542  11.683   6.073  12.525 -0.1298  0.0626 -0.1030
18926W        W34543   3.155  10.776   3.345  0.3016 -0.1986 -0.2951
18927W        W34544   0.064  11.479   1.650  0.2578 -0.0601 -0.0855
18928W        W34545  13.663   3.035  15.509  0.1766 -0.0628 -0.2286
18929W        W34546  16.495  14.817  11.824  0.0706  0.2215  0.1637
18930W        W34547  13.988   1.684  11.061  0.3225  0.1349 -0.3134
18931W        W34548   1.466  13.972  14.105  0.2288  0.0712 -0.1883
18932W        W34549  17.867   5.841  13.179 -0.1355  0.2612  0.4176
18933W        W34550   9.721   9.352   4.625  0.0737  0.0463  0.1305
18934W        W34551   5.844   9.061   1.375  0.0397  0.2396  0.2041
18935W        W34552   8.059   7.207   1.233 -0.0153 -0.2186 -0.1790
18936W        W34553   0.119   7.028   3.648  0.0097  0.2949 -0.0070
18937W        W34554  10.575  17.077   0.791  0.2665 -0.0173 -0.3652
18938W        W34555  11.652   7.299   1.221 -0.0340 -0.1840 -0.1440
18939W        W34556   5.553   7.237   0.149  0.2966 -0.0890  0.0344
18940W        W34557  16.780   4.424   0.502 -0.0246 -0.0955  0.1413
18941W        W34558  18.136  13.801  12.852  0.0120  0.1579 -0.0292
18942W        W34559  15.940   1.382   4.735  0.1394 -0.2141 -0.1829
18943W        W34560  10.392  16.212  13.442 -0.1166  0.1833  0.0541
18944W        W34561   9.385   9.184   1.003  0.2254 -0.0216  0.0093
18945W        W34562  12.524   0.486  11.251 -0.1122 -0.4393 -0.1711
18946W        W34563  11.693   8.750  15.264  0.0061  0.0451  0.0575
18947W        W34564   6.183  17.965   4.989 -0.0197  0.1263  0.0617
18948W        W34565   4.451  14.609  11.191 -0.0272  0.2334 -0.1755
18949W        W34566   6.156  12.788  11.692  0.0588 -0.2277  0.0423
18950W        W34567   6.390  16.969  11.094  0.1529 -0.2752  0.1434
18951W        W34568  10.378   5.038   3.546  0.1175 -0.0597 -0.0314
18952W        W34569  17.185  10.256   4.090  0.0432 -0.2231 -0.0087
18953W        W34570  16.340   7.440  15.796 -0.2476  0.1247 -0.2195
18954W        W34571   8.910   4.204   1.578 -0.1380  0.0557 -0.0605
18955W        W34572   5.968   7.211  15.535 -0.1002  0.0669 -0.1374
18956W        W34573  12.965  17.591  13.286 -0.3179  0.0259  0.1789
18957W        W34574   7.187  11.114   1.811  0.0611 -0.2333 -0.2815
18958W        W34575   4.487   5.581  12.435 -0.0258  0.1362  0.1942
18959W        W34576  14.401   9.131  14.332  0.2524  0.0861  0.1504
18960W        W34577   5.364  11.396   4.420  0.0784 -0.1294  0.1082
18961W        W34578   7.888  10.721  11.282 -0.2957  0.1943 -0.0760
18962W        W34579  10.724  17.976   3.250  0.0344 -0.0896  0.2182
18963W        W34580   3.575   3.120   5.304  0.3576  0.0787 -0.0490
18964W        W34581   3.821   1.451   4.670  0.2149 -0.0300  0.0377
18965W        W34582   1.016   5.653   4.074  0.0233  0.0016  0.1738
18966W        W34583   6.926   3.833  15.410 -0.2745 -0.4484  0.0272
18967W        W34584  15.950   7.195   2.805  0.2864 -0.0792  0.1337
18968W        W34585   6.241   6.567  15.444 -0.1974 -0.0081 -0.3094
18969W        W34586   4.540   4.616   5.916 -0.1455  0.2795  0.0722
18970W        W34587   2.088   1.188  13.440 -0.0476 -0.5835 -0.1701
18971W        W34588   9.651  13.568  12.267 -0.1843 -0.1090 -0.0726
18972W        W34589   8.225  16.836  13.999  0.1978  0.4174 -0.1716
18973W        W34590   8.600  12.708   2.468  0.0010 -0.0449  0.3610
18974W        W34591  16.243   6.439  12.017 -0.3755 -0.1029 -0.2760
18975W        W34592  15.758   0.931   4.947 -0.0413  0.1437 -0.3510
18976W        W34593  17.315  13.228   1.265 -0.2277 -0.1185 -0.0654
18977W        W34594   4.809   3.325  12.818 -0.1540  0.2320 -0.2210
18978W        W34595  16.136  18.491   2.429  0.0476 -0.0351  0.2382
18979W        W34596  17.626   9.974   3.985  0.4177 -0.0507  0.0197
18980W        W34597  13.102  18.364   4.797 -0.1087  0.0264 -0.0572
18981W        W34598  11.532  10.105   1.048 -0.0237 -0.1406  0.2180
18982W        W34599   6.108  17.436   0.410  0.0941  0.0230 -0.3077
18983W        W34600   6.778  12.246  11.601 -0.0702  0.0603 -0.0512
18984W        W34601   6.779  11.887  13.940 -0.0278 -0.3214 -0.3804
18985W        W34602   2.846  11.315   5.051 -0.0906  0.0914 -0.2974
18986W        W34603  17.135   6.488   4.597  0.0245 -0.1914 -0.0494
18987W        W34604  10.841   6.664   1.544 -0.1823 -0.1440  0.1249
18988W        W34605   6.695   5.817   5.237 -0.3043 -0.0314 -0.1561
18989W        W34606   9.438  12.802   3.638  0.2542 -0.0356 -0.1203
18990W        W34607   3.199  11.219   2.489 -0.0520 -0.0811 -0.0694
18991W        W34608   1.390   7.186  11.900 -0.0073  0.1499 -0.1338
18992W        W34609  17.103   9.158   3.463 -0.0613 -0.0671 -0.3029
18993W        W34610  14.670  11.980  13.762  0.1842  0.3199 -0.2851
18994W        W34611  14.529  17.610   0.072  0.0362 -0.0274 -0.0799
18995W        W34612  16.148   2.831  11.961 -0.0117 -0.3468  0.0129
18996W        W34613   6.511  18.183  11.361 -0.3262 -0.1687  0.0788
18997W        W34614   3.217   8.759   0.618  0.0396  0.2016  0.0429
18998W        W34615  11.608   9.829  14.076 -0.0605 -0.0290 -0.3347
18999W        W34616  15.669  11.481   0.147  0.3633 -0.3079 -0.2298
19000W        W34617  13.917  17.911   5.137 -0.2211  0.2415 -0.3168
19001W        W34618  15.303  10.857   1.382 -0.3969 -0.0868 -0.1867
19002W        W34619   8.345  17.430  11.248  0.2822 -0.2236 -0.2161
19003W        W34620   7.912  17.870   0.552  0.2651 -0.4051 -0.0277
19004W        W34621  15.951   8.531  13.070 -0.1152 -0.1641  0.0397
19005W        W34622   0.126   6.707  14.786 -0.1453  0.2589  0.2471
19006W        W34623   7.389  16.336  11.273  0.2099  0.0867  0.0753
19007W        W34624   2.322   5.197  15.560 -0.2666  0.2945 -0.1771
19008W        W34625   0.016   1.087   1.425 -0.1668  0.0286  0.1016
19009W        W34626  17.357   0.374   4.593  0.1486  0.0865 -0.0137
19010W        W34627  14.466   2.684   1.793 -0.1157 -0.1096  0.0151
19011W        W34628   0.029   5.041   5.940  0.0509 -0.0898  0.2772
19012W        W34629   5.258   9.858   4.025 -0.1142 -0.2292  0.3049
19013W        W34630  16.798   6.829  13.647  0.5148 -0.0930 -0.1209
19014W        W34631  15.757  15.861   1.092  0.0518 -0.0455  0.0665
19015W        W34632   9.056   9.235  13.433  0.2058 -0.2758 -0.0143
19016W        W34633  11.388  11.253   2.773 -0.0450 -0.2985  0.3647
19017W        W34634   5.549   2.644   2.042  0.1243  0.1720  0.1428
19018W        W34635   5.547   2.791  11.345 -0.4176 -0.1041  0.0919
19019W        W34636   6.094  15.773   4.735 -0.1510  0.2133 -0.1543
19020W        W34637  14.105  13.527  14.486  0.0389 -0.0202  0.3467
19021W        W34638  11.724   6.554   1.747 -0.0425 -0.0946  0.2375
19022W        W34639   5.077  16.882   2.657 -0.1160  0.0088  0.0064
19023W        W34640   9.047   2.291  12.017  0.0206  0.2109 -0.2238
19024W        W34641  12.676   4.795   2.989 -0.1092  0.2487 -0.0666
19025W        W34642  18.081  11.988   2.966 -0.1560 -0.0321  0.0783
19026W        W34643  10.069   6.446   3.214 -0.0480 -0.1439  0.0320
19027W        W34644  11.771  12.135  15.625 -0.0792  0.0386 -0.0091
19028W        W34645  11.838  15.700   4.247 -0.0749 -0.2009  0.2089
19029W        W34646   7.459   6.591   1.201  0.2269 -0.0646  0.2028
19030W        W34647   2.938   8.432   3.274  0.3123 -0.1287 -0.2944
19031W        W34648   0.493   0.967   1.415 -0.3383 -0.0361 -0.3251
19032W        W34649   2.996   9.158  14.572  0.2241 -0.1590 -0.1270
19033W        W34650  16.411  12.296   2.058 -0.3730 -0.3420 -0.2513
19034W        W34651   6.491   7.820  11.465  0.0495  0.2402  0.2456
19035W        W34652  14.534  11.062  12.055  0.0660 -0.1187  0.0778
19036W        W34653  17.652  14.961  11.284 -0.2903 -0.0168  0.0679
19037W        W34654  10.066  10.012   4.845 -0.0292 -0.2548 -0.0306
19038W        W34655  10.385  15.828  12.023 -0.1070 -0.2067 -0.1007
19039W        W34656  13.263  13.086   4.986  0.0607  0.1957 -0.1510
19040W        W34657   1.850   4.905  15.630 -0.0239 -0.1775  0.0183
19041W        W34658  13.856  16.449   2.081  0.0247 -0.0238 -0.1475
19042W        W34659  17.466  12.320  15.439  0.0848  0.2612  0.0901
19043W        W34660  14.945  11.253   2.498 -0.3860  0.2780 -0.0150
19044W        W34661   3.971   1.692   1.558 -0.0662  0.1131  0.0885
19045W        W34662  10.841   1.888   4.869 -0.0789  0.0915 -0.0205
19046W        W34663   1.448   5.954  13.816 -0.3332 -0.2976  0.2450
19047W        W34664  12.735   1.767  11.137  0.3668 -0.0692  0.0990
19048W        W34665   0.524  15.656   0.075 -0.1285 -0.0469 -0.2632
19049W        W34666  15.123  14.584   1.053 -0.0302  0.1307  0.0378
19050W        W34667   0.986  18.209  12.027  0.1101 -0.1654  0.2113
19051W        W34668   7.760  11.568  10.668  0.1659  0.2911  0.0241
19052W        W34669  14.494  14.714  10.846  0.0184  0.0520 -0.1696
19053W        W34670   3.264  12.401  13.931 -0.2608  0.0834 -0.3551
19054W        W34671   0.165  17.050  13.586 -0.1938 -0.0287 -0.1817
19055W        W34672   2.049   8.336  13.841 -0.2006  0.0574  0.4685
19056W        W34673  12.986  12.837  11.200 -0.0623  0.3259  0.4640
19057W        W34674   3.125   8.296  13.511 -0.0018 -0.2889 -0.0291
19058W        W34675  18.096   6.961  10.235  0.3203 -0.0375 -0.1509
19059W        W34676  16.760  11.125   2.648 -0.0998  0.1013 -0.4754
19060W        W34677   0.678  16.506  14.665 -0.0857  0.2438 -0.2263
19061W        W34678  11.050  13.831  10.285  0.3439  0.0738 -0.0335
19062W        W34679  13.716   5.680  12.877 -0.0936  0.0362  0.0413
19063W        W34680   6.663   2.274  11.227 -0.0045  0.2623  0.3842
19064W        W34681  14.679  16.709  14.747  0.0515 -0.4793 -0.0959
19065W        W34682   0.293   9.217   4.567  0.3037 -0.0265 -0.1369
19066W        W34683  11.194   7.172  13.088 -0.3138  0.1574  0.0189
19067W        W34684   8.303   2.454   1.099  0.1154 -0.0425  0.0246
19068W        W34685   5.884  11.108   0.956 -0.1670 -0.2128  0.1370
19069W        W34686   1.226  12.078  14.832 -0.5212 -0.2171  0.0424
19070W        W34687   4.631   7.319  10.040  0.0333 -0.2498  0.0259
19071W        W34688   7.656  11.898  14.254  0.0450 -0.3017  0.0905
19072W        W34689  18.169  12.747  11.560  0.1891  0.2072  0.0539
19073W        W34690   4.488   4.571   0.107  0.0356  0.2343  0.0281
19074W        W34691  14.240  15.428   3.861  0.1262 -0.0992 -0.3122
19075W        W34692  11.008   4.356   2.033 -0.1227  0.1191 -0.2018
19076W        W34693   2.515  17.988  14.429 -0.0059  0.0404 -0.4691
19077W        W34694  18.175   0.714  11.067 -0.2594 -0.0448  0.2000
19078W        W34695  14.736   7.808  15.360  0.0713  0.0973 -0.1603
19079W        W34696  10.196   4.533   3.545 -0.1320  0.1944  0.2059
19080W        W34697  17.329  13.987   0.889  0.1678  0.0055 -0.0049
19081W        W34698   2.245   6.621   0.416 -0.1315  0.2058  0.4012
19082W        W34699   1.740   5.294  12.694 -0.2775  0.4532 -0.1045
19083W        W34700   8.958  14.031  15.466 -0.2997  0.1408 -0.1715
19084W        W34701   6.962   9.592   2.692 -0.1921  0.1423 -0.0441
19085W        W34702   9.149   3.325  12.609  0.3077  0.0267  0.0970
19086W        W34703   4.344   2.751  15.715 -0.2082  0.1921 -0.1083
19087W        W34704  17.998  18.155  12.038  0.2481 -0.2763  0.0075
19088W        W34705  11.714   7.663  15.170  0.1644 -0.1070  0.0171
19089W        W34706   7.880   4.739   1.919 -0.0047  0.0516  0.1984
19090W        W34707   6.632  16.839   5.698  0.0820 -0.1339  0.0425
19091W        W34708   8.069   2.230   3.214 -0.0221  0.4503  0.4229
19092W        W34709  13.073   2.425   4.037  0.2541  0.0449 -0.2729
19093W        W34710   7.896   5.697  11.461 -0.1762 -0.0405 -0.0407
19094W        W34711  14.224   6.131   1.335 -0.0129  0.0727 -0.0009
19095W        W34712  10.906  16.226  14.543  0.0478 -0.2384 -0.0787
19096W        W34713   5.801   9.728   5.729  0.0680  0.1190  0.0937
19097W        W34714   8.299  15.887  11.866 -0.1635 -0.1464  0.1510
19098W        W34715   7.437  10.179   3.973 -0.0210  0.1122 -0.1441
19099W        W34716   5.499   0.645   4.489  0.0858 -0.1652 -0.0248
19100W        W34717   8.432   8.921  15.276  0.3321  0.1021  0.2136
19101W        W34718  16.944   8.612   2.608  0.1955  0.1480 -0.3297
19102W        W34719   7.682  11.980  10.437 -0.1689  0.2779  0.2776
19103W        W34720  16.206  12.657   1.613  0.0542  0.1314  0.1758
19104W        W34721   8.470   8.195   3.189  0.3051  0.3285 -0.4281
19105W        W34722   7.163  14.227  12.090  0.2798 -0.0639 -0.0369
19106W        W34723  17.185   2.831  15.517 -0.0614  0.0774  0.0256
19107W        W34724  17.436  16.238  13.119 -0.1889 -0.1968 -0.2472
19108W        W34725  11.847  10.497   2.402 -0.0850 -0.1041 -0.1394
19109W        W34726   6.256   4.446  12.646  0.1108 -0.2519  0.1268
19110W        W34727   1.605   6.316  12.411 -0.2172  0.1331 -0.0367
19111W        W34728  16.292   9.250  12.225  0.1995 -0.3565  0.0162
19112W        W34729  13.646  10.613   3.215 -0.2999 -0.3536  0.0636
19113W        W34730  12.427  11.460   1.872 -0.0823  0.0444 -0.1853
19114W        W34731  14.538   7.235  14.360  0.0802  0.0244 -0.0727
19115W        W34732   5.903  11.792  12.964  0.0032 -0.2609 -0.2275
19116W        W34733   5.501  10.688  13.274 -0.4137  0.1147 -0.3520
19117W        W34734  13.922   5.976   1.730  0.0281 -0.0491 -0.0761
19118W        W34735  10.653   1.413  10.297  0.5020 -0.0945 -0.1053
19119W        W34736  18.194  14.732   2.258  0.2386  0.1094 -0.0003
19120W        W34737  12.618   5.207   1.742  0.4797  0.3290  0.0518
19121W        W34738  13.287  17.906  14.207  0.2769  0.1841 -0.2364
19122W        W34739   7.122   2.708   1.814  0.2245 -0.0229 -0.0169
19123W        W34740   8.234   3.663   1.509 -0.1632  0.2865 -0.0781
19124W        W34741   7.772  15.046  13.722  0.0802  0.0497 -0.0431
19125W        W34742   9.050   6.789   5.259  0.2579 -0.0599  0.2466
19126W        W34743   9.759   3.597  15.462 -0.1949 -0.0246  0.0011
19127W        W34744   7.624   7.520   4.753 -0.2741 -0.5990  0.1177
19128W        W34745  17.635  16.568   0.526 -0.2831 -0.3582  0.0494
19129W        W34746   1.827  10.634  12.333 -0.0941 -0.1526 -0.0882
19130W        W34747   7.525   5.855  15.263 -0.0401 -0.0985 -0.2890
19131W        W34748  15.262  16.249  15.609 -0.0802  0.1294 -0.0511
19132W        W34749  10.898   4.645   2.423 -0.1174 -0.0322 -0.1574
19133W        W34750   5.646   8.400   1.254  0.1060 -0.0086 -0.0425
19134W        W34751  12.236  14.142  14.986  0.1180 -0.0160 -0.1760
19135W        W34752  11.134  11.733   2.656  0.0594 -0.1809  0.2015
19136W        W34753   3.037   8.136  12.582  0.1177  0.0264  0.1724
19137W        W34754  17.005   7.938   4.737  0.1545  0.3272 -0.1770
19138W        W34755  15.114   7.150   0.673  0.0937  0.1557  0.0093
19139W        W34756   2.997  13.737   0.930 -0.3312 -0.0373  0.1676
19140W        W34757  17.388   2.459  15.065  0.0986  0.0377 -0.1686
19141W        W34758  12.933   5.576   1.761  0.1950 -0.1060 -0.0323
19142W        W34759  17.033   2.051   5.437  0.0549 -0.4948  0.0147
19143W        W34760   6.059   2.950  11.155 -0.1407 -0.0635  0.0308
19144W        W34761  12.601   3.444   0.521  0.3088 -0.4465  0.2101
19145W        W34762  18.132  15.403  14.421  0.0589  0.2771  0.0256
19146W        W34763  16.394  14.451  14.108 -0.1665 -0.2232 -0.0051
19147W        W34764   8.085   0.220  12.416  0.0948  0.0951  0.1422
19148W        W34765  11.328   4.188   4.564 -0.0399  0.1588 -0.1440
19149W        W34766  16.579  16.993  12.754  0.1696  0.0717  0.0991
19150W        W34767  14.354   8.858  14.845  0.0217 -0.2103  0.2810
19151W        W34768   0.824   2.156   3.986  0.1165 -0.2772 -0.0560
19152W        W34769  17.878  11.132   0.443  0.0098 -0.1845 -0.1315
19153W        W34770   2.169   6.124   1.849 -0.0814 -0.0583 -0.1933
19154W        W34771  10.077   8.672  14.357  0.2522  0.1664 -0.0787
19155W        W34772   9.645  15.394   1.455  0.1050 -0.0364  0.0264
19156W        W34773   5.263   8.938   4.131  0.2756  0.2611 -0.0295
19157W        W34774   3.869   3.580  12.688 -0.0776  0.0426  0.2330
19158W        W34775   3.355   3.492  15.746  0.0183  0.1041 -0.0013
19159W        W34776   3.359  15.678  15.341  0.2301 -0.3371 -0.0104
19160W        W34777   8.868   2.484  14.128 -0.1153  0.0563  0.0247
19161W        W34778  14.018   6.052   0.466 -0.0354  0.0615  0.0408
19162W        W34779  14.267   4.390  13.580 -0.1593  0.3876  0.1227
19163W        W34780   0.246  10.403  13.165 -0.0691 -0.0406 -0.2219
19164W        W34781  11.667   8.580  14.762 -0.0366 -0.2478 -0.0334
19165W        W34782   5.249  18.486  14.090 -0.1610  0.1227  0.1430
19166W        W34783  15.558   4.173  14.626  0.1447 -0.0117 -0.1197
19167W        W34784   1.859   3.415  12.644 -0.1950 -0.0368  0.0772
19168W        W34785  16.288  14.841   9.759 -0.0054  0.0136 -0.0943
19169W        W34786  15.725   8.011  11.549  0.0886 -0.0901  0.0229
19170W        W34787  17.254   1.337  14.455  0.1265 -0.4090 -0.1598
19171W        W34788   5.783   0.619   3.086  0.0045 -0.1596  0.2789
19172W        W34789  11.824  11.495   1.504 -0.1170 -0.1964 -0.0888
19173W        W34790  11.495  17.507  13.573 -0.1133  0.4675 -0.0584
19174W        W34791  13.555  12.861  13.658 -0.0170 -0.3154 -0.0402
19175W        W34792   5.867  10.112   1.815 -0.0372 -0.1384 -0.1283
19176W        W34793  15.899   3.431   3.063  0.3148  0.0736 -0.1545
19177W        W34794  18.087   8.244   3.815 -0.2086  0.1145 -0.0107
19178W        W34795  16.304   9.849  14.888  0.1159  0.1500 -0.2590
19179W        W34796  12.777   9.530   5.696 -0.1308  0.1247 -0.4046
19180W        W34797   5.937  10.871   5.005  0.0202  0.0102  0.0212
19181W        W34798  13.580   8.912  13.035  0.2373 -0.2047 -0.0407
19182W        W34799  15.906   5.254  11.861 -0.0303  0.0292  0.3281
19183W        W34800  12.641   2.425   3.803 -0.2084  0.2212  0.4406
19184W        W34801   3.256  15.840   0.044  0.1339 -0.0654  0.0902
19185W        W34802   0.793   9.608  12.211  0.0962 -0.2802 -0.0040
19186W        W34803   2.568   8.309  15.687 -0.0094 -0.0184  0.5179
19187W        W34804  11.803  12.118  12.348  0.1205  0.2164  0.0317
19188W        W34805   5.767  14.465  15.427  0.0622 -0.0920  0.0088
19189W        W34806   0.917  16.022  14.958 -0.0368  0.0170 -0.0630
19190W        W34807   9.566  13.777   4.583  0.1085 -0.0010 -0.0402
19191W        W34808   2.356  11.832  12.274 -0.1871  0.2198 -0.1220
19192W        W34809  15.365  11.182   0.999  0.1209 -0.0987 -0.0574
19193W        W34810   8.827  17.374  15.652 -0.0983  0.0153  0.0440
19194W        W34811   2.290   5.981  12.868  0.0930 -0.2222 -0.3641
19195W        W34812   2.700  12.789   0.877 -0.0469 -0.0601  0.1445
19196W        W34813  17.083   8.446  12.839 -0.2069 -0.1925 -0.3861
19197W        W34814   7.602   5.417  14.338  0.4180 -0.1122  0.0508
19198W        W34815  17.926  10.102   4.683  0.1719 -0.1736 -0.0200
19199W        W34816   7.466  17.786   1.402 -0.1916  0.2989  0.1639
19200W        W34817  14.009  12.353   4.011  0.2462  0.1836 -0.2427
19201W        W34818  11.956  11.749  11.360 -0.0609 -0.0775 -0.1665
19202W        W34819  14.857   8.870   3.435 -0.2582 -0.1869  0.1977
19203W        W34820  11.067  16.261   0.363 -0.3043 -0.2077 -0.0483
19204W        W34821   8.852   8.906  11.282 -0.1011 -0.1771  0.1632
19205W        W34822   2.417   7.822  12.332  0.1681 -0.2135 -0.0903
19206W        W34823  10.278   6.919  14.759  0.0434  0.1928 -0.0429
19207W        W34824  16.964   2.862   4.136 -0.1594  0.1141  0.1325
19208W        W34825  12.101   0.557  12.243  0.2836 -0.3202 -0.1646
19209W        W34826   4.023   5.809  12.756 -0.4777  0.0066 -0.0334
19210W        W34827   9.043  10.359  12.269 -0.1887  0.1632  0.3753
19211W        W34828  17.767   8.489   3.231  0.1775  0.2838 -0.2361
19212W        W34829   6.836  12.722  12.785 -0.1349 -0.0276  0.3788
19213W        W34830   0.634   1.875   5.554 -0.2332  0.0476  0.0968
19214W        W34831  14.175  17.823  15.102  0.0438 -0.2024 -0.0344
19215W        W34832   9.409  10.684   0.885  0.1754 -0.0689  0.1018
19216W        W34833  14.012   1.175   5.176 -0.1723 -0.0283 -0.3095
19217W        W34834   4.928  11.303  15.364  0.4511  0.1304  0.4345
19218W        W34835  18.129   1.106  11.465  0.1877 -0.1660 -0.1081
19219W        W34836  14.281   3.930  13.211 -0.4134  0.3201  0.2173
19220W        W34837  14.643   7.889   4.624  0.1166 -0.0523 -0.0696
19221W        W34838   2.064   3.721   2.416  0.1976 -0.1141 -0.0469
19222W        W34839   8.065  15.443  11.837 -0.3331  0.3468  0.3237
19223W        W34840   2.346   2.550  12.748 -0.3084  0.2195  0.1290
19224W        W34841  11.177  11.978  13.274 -0.2243 -0.1903 -0.0949
19225W        W34842  11.205   2.854  12.181 -0.0617  0.2303  0.3187
19226W        W34843   5.395  13.727  12.826 -0.4310 -0.1254 -0.1630
19227W        W34844   8.052   3.502  11.815 -0.0841  0.2647  0.0300
19228W        W34845   2.494   3.613   2.006 -0.0458  0.0045 -0.3291
19229W        W34846  15.061   6.090  12.963 -0.0805 -0.1153  0.0071
19230W        W34847   6.597  15.261   2.287 -0.3823  0.0157  0.3414
19231W        W34848  15.682  12.661   1.661 -0.0856  0.0474 -0.2533
19232W        W34849   7.458  15.861  11.381 -0.1272  0.0461  0.2959
19233W        W34850  16.101  13.570  15.733 -0.1103 -0.0992 -0.0159
19234W        W34851  15.123   7.888  14.381  0.3312 -0.1545  0.3995
19235W        W34852  13.613  12.364   1.501  0.1322  0.0039 -0.4368
19236W        W34853   0.508   4.513   0.583 -0.2118  0.0194 -0.2395
19237W        W34854   1.148  18.044   1.260  0.3071  0.1892 -0.2723
19238W        W34855   3.523   9.368   4.490 -0.1094 -0.4586  0.2515
19239W        W34856  12.413  11.910  15.178  0.0473 -0.1354 -0.0845
19240W        W34857  14.996  10.168   3.108 -0.1709  0.1606 -0.1800
19241W        W34858   3.998   0.818   0.135 -0.2265 -0.1962 -0.1506
19242W        W34859   6.883   2.855  13.948  0.0277 -0.0707 -0.3816
19243W        W34860  17.811   6.495   2.650  0.2760 -0.2784 -0.2180
19244W        W34861  13.199  11.249  11.043  0.5838  0.1192  0.2759
19245W        W34862   4.382  16.994   5.844  0.2415 -0.1498  0.0042
19246W        W34863  14.114   3.318   4.527  0.0610 -0.1619 -0.0720
19247W        W34864  16.604   0.043   2.570  0.2256  0.0660  0.2215
19248W        W34865  16.213   8.441   1.495 -0.3991 -0.0425 -0.2260
19249W        W34866  18.197   9.775   2.819 -0.1266 -0.2226 -0.1377
19250W        W34867  15.731   2.615   2.787 -0.0920 -0.1528  0.1171
19251W        W34868   9.698   8.024   4.058  0.1080 -0.3556 -0.0235
19252W        W34869   3.521  15.775   4.401  0.4242  0.2648 -0.1059
19253W        W34870  17.403   1.771   1.439  0.0746  0.0501  0.3257
19254W        W34871  12.475  18.136   1.526 -0.0410 -0.1007  0.1822
19255W        W34872  10.228   6.528   1.208  0.0610  0.1075 -0.0673
19256W        W34873  11.329   6.172  13.920  0.4674  0.0799 -0.0220
19257W        W34874   1.343  15.261   0.534  0.1246  0.1425 -0.0686
19258W        W34875   9.901   7.779   0.161 -0.1107  0.0830  0.0785
19259W        W34876  17.232  13.733   9.886  0.0182 -0.1250  0.0244
19260W        W34877   1.911  11.125  15.518  0.1440  0.3163 -0.0192
19261W        W34878   0.062  13.279   2.160  0.0807 -0.0932  0.2025
19262W        W34879  11.655  18.029  10.807 -0.2499  0.1238  0.1529
19263W        W34880  18.260  15.633  14.884  0.1194 -0.0193  0.0943
19264W        W34881  12.423   3.782   2.897 -0.1358 -0.1973  0.2825
19265W        W34882   6.696  10.872   4.277  0.3635 -0.1175  0.2232
19266W        W34883   1.457  15.120   3.692 -0.0205  0.0037  0.1501
19267W        W34884   7.274  18.389   4.301  0.1443 -0.3154  0.2245
19268W        W34885   5.543   3.084   0.688 -0.0249 -0.1979  0.0887
19269W        W34886  17.929   1.616   0.144 -0.0106  0.3487 -0.0728
19270W        W34887   9.943   7.682  13.747 -0.1503 -0.0471  0.1444
19271W        W34888  10.272   5.490  13.502 -0.3191  0.1461 -0.1345
19272W        W34889  11.600  15.585   3.753 -0.0365  0.0845  0.3300
19273W        W34890   6.701  17.448  15.165  0.2572  0.0368 -0.1695
19274W        W34891   8.373   0.542   3.035  0.2475 -0.2180  0.0213
19275W        W34892   3.148  16.756  12.824  0.0813 -0.1320 -0.0123
19276W        W34893  14.171   8.942   2.102  0.1038 -0.2851 -0.1692
19277W        W34894   6.227  17.029  14.284  0.0034  0.0008 -0.1201
19278W        W34895  15.731   3.600   2.223  0.2745 -0.3409  0.0186
19279W        W34896   2.745  16.831   2.895 -0.2893  0.0879  0.0875
19280W        W34897  16.896  11.451   3.022  0.2118  0.0330 -0.1868
19281W        W34898  15.125  14.728  14.269 -0.0832 -0.0860 -0.0320
19282W        W34899  12.321   5.591   2.661 -0.3151  0.0847  0.0861
19283W        W34900   0.561   8.244  15.033  0.1504  0.1220 -0.0234
19284W        W34901   2.386   3.920   4.663  0.0696 -0.0028 -0.2979
19285W        W34902   1.407   7.460  10.874  0.1785  0.1474  0.0613
19286W        W34903  18.608   9.946   3.222 -0.0293  0.0431 -0.0886
19287W        W34904   4.151  15.028  13.331 -0.0235 -0.1151 -0.2120
19288W        W34905  14.743   5.291  11.674  0.2459 -0.0322  0.0946
19289W        W34906  15.185   9.468   0.516  0.2617  0.0967 -0.1687
19290W        W34907  12.919   0.952   5.948  0.1517 -0.0836  0.0652
19291W        W34908   4.257   1.015  13.699  0.1706  0.2401  0.0429
19292W        W34909   5.223   6.291   5.509  0.0375  0.0514 -0.1905
19293W        W34910  12.626  13.198   3.979  0.1372  0.1267  0.3880
19294W        W34911   3.488   6.168   2.012 -0.0172 -0.1521  0.0700
19295W        W34912   8.333  14.203   3.518 -0.2950 -0.1654  0.2068
19296W        W34913  12.269   9.940  12.887  0.0808 -0.3474 -0.0110
19297W        W34914  17.465   9.768   0.188 -0.2662 -0.1421 -0.1361
19298W        W34915   6.624   9.784  11.843 -0.0971 -0.4433  0.1095
19299W        W34916   3.946  14.520  13.435 -0.0684  0.1224  0.0836
19300W        W34917  15.153   0.543   4.634  0.1565 -0.1499 -0.3624
19301W        W34918  15.164  18.466  15.072  0.0910  0.2164 -0.3228
19302W        W34919  17.498   7.488   1.875  0.1581 -0.0417  0.1205
19303W        W34920   0.819   7.835  13.070 -0.1675 -0.0168 -0.2750
19304W        W34921   9.661   7.919  12.462  0.0938 -0.2368  0.2486
19305W        W34922   1.903  16.959   3.447  0.1870 -0.0595 -0.2746
19306W        W34923   8.346  17.925   3.590 -0.0711 -0.2595  0.2724
19307W        W34924   2.436  13.820   2.036 -0.3370 -0.0656 -0.1531
19308W        W34925   4.192   9.387   3.154 -0.2140 -0.2122 -0.0044
19309W        W34926  11.302  14.125  14.915 -0.0788  0.0199  0.0423
19310W        W34927  11.112   3.658  11.543  0.1746 -0.0380 -0.6027
19311W        W34928   7.573   1.579   2.784 -0.1547 -0.0793  0.0331
19312W        W34929  14.928   2.802   3.987 -0.1648  0.0963 -0.2434
19313W        W34930   4.560   1.052   1.882  0.0064  0.1691  0.1605
19314W        W34931   4.528   6.006   1.624  0.1440  0.0008  0.0874
19315W        W34932   0.907  13.358  12.120 -0.0899  0.1146 -0.2466
19316W        W34933   7.362   4.751   3.328 -0.1691  0.0234  0.2882
19317W        W34934   3.310  11.590  10.688  0.2023 -0.3811  0.1734
19318W        W34935   7.744   4.043  14.593  0.2607  0.0274 -0.0662
19319W        W34936   5.238  12.870  13.196  0.1145 -0.0952 -0.1947
19320W        W34937  17.580   8.627  15.004 -0.0784  0.0266 -0.0874
19321W        W34938   8.548   2.762   0.667  0.1562  0.0696  0.3837
19322W        W34939   9.709  14.257  13.045 -0.1441 -0.0031  0.1443
19323W        W34940  13.078  10.341  14.772 -0.1319 -0.0903 -0.1141
19324W        W34941  13.485  13.253   5.846  0.1487 -0.2111 -0.1351
19325W        W34942   6.842  10.318  14.453  0.0881  0.1804  0.2802
19326W        W34943  10.280   5.021  11.851  0.1039  0.0358 -0.0956
19327W        W34944   8.304   8.748  14.532  0.1787  0.1319  0.1582
19328W        W34945  11.425   8.089   4.108  0.1323 -0.2073  0.2291
19329W        W34946  15.336   4.446  12.620 -0.1258 -0.0101  0.4508
19330W        W34947   0.176   0.364  13.237  0.0449  0.3331  0.2663
19331W        W34948   3.156   5.647  14.333 -0.0594 -0.0747 -0.2587
19332W        W34949  17.518   3.195  11.840 -0.2951  0.0419  0.1700
19333W        W34950   5.999   1.210   5.201 -0.1065  0.1901 -0.1402
19334W        W34951   4.458  17.547  12.691 -0.0592 -0.1259 -0.1027
19335W        W34952  10.297  10.217   5.902  0.1903 -0.1058  0.2742
19336W        W34953   6.464   4.732   4.914  0.0133 -0.3512 -0.3320
19337W        W34954   3.328   6.501   5.434  0.1499  0.2485  0.0471
19338W        W34955   1.339   5.628   4.482 -0.1728 -0.1030 -0.0840
19339W        W34956   0.580  10.742   2.828  0.2853  0.2033  0.1397
19340W        W34957  16.776   3.874   3.171  0.1404  0.1242 -0.0326
19341W        W34958   1.121   9.489   4.825 -0.3507 -0.1042 -0.1979
19342W        W34959   3.641  13.851  11.126  0.1218  0.0121 -0.3532
19343W        W34960   2.289   8.325  12.967 -0.0029 -0.0269 -0.1026
19344W        W34961  13.545   6.364   3.130  0.0778  0.0021  0.0802
19345W        W34962  10.771   2.748  11.667 -0.0300 -0.3755 -0.2606
19346W        W34963   0.692  16.683  10.830  0.3690 -0.1620 -0.3915
19347W        W34964   3.005   5.706  13.477 -0.0589 -0.0649 -0.2011
19348W        W34965   1.426  14.031   0.193  0.0762 -0.0987  0.2192
19349W        W34966   1.930  16.747   3.021  0.2569 -0.1132 -0.1371
19350W        W34967  15.355   8.616  12.965 -0.1384  0.0649 -0.2048
19351W        W34968   8.249   2.141  15.620  0.2911 -0.1482  0.0108
19352W        W34969  18.345  10.310   4.656 -0.0086 -0.2487 -0.0089
19353W        W34970  17.117   1.500   2.351  0.3263  0.3013  0.0967
19354W        W34971   2.348  15.775  13.818 -0.0256  0.3652  0.2465
19355W        W34972   2.653  12.398   4.832 -0.1160 -0.2458 -0.2219
19356W        W34973  13.477   1.831  13.054  0.3525  0.0399  0.1663
19357W        W34974   6.460  16.995   4.315 -0.2882 -0.1908 -0.4196
19358W        W34975  13.204   7.615  14.137 -0.2004  0.0354 -0.1041
19359W        W34976   4.952   9.035   3.328 -0.1207 -0.1263  0.1724
19360W        W34977   4.548  15.529  13.736  0.1096  0.2326 -0.1310
19361W        W34978   0.673  12.228  10.102 -0.0347  0.0316  0.4221
19362W        W34979  12.705   6.653   3.926 -0.1354 -0.1892  0.0513
19363W        W34980  16.726   4.625  11.511  0.3868  0.1008  0.0949
19364W        W34981   4.029  12.791  11.322 -0.0745 -0.2563  0.1798
19365W        W34982  13.473   1.240  14.807 -0.0412 -0.4204  0.2409
19366W        W34983   9.506  16.830  10.619 -0.0016  0.0211 -0.0859
19367W        W34984  16.650   2.728   4.974 -0.0897 -0.0901  0.1545
19368W        W34985  16.921  10.296  11.970  0.2125  0.2565 -0.3340
19369W        W34986   2.391  15.497   5.245 -0.2824 -0.0507  0.3684
19370W        W34987   7.838   5.286   2.938 -0.0062  0.0426 -0.2281
19371W        W34988   8.158   2.639   3.010 -0.1126  0.1037  0.1645
19372W        W34989   8.422  12.994   4.632 -0.1864  0.1777  0.1961
19373W        W34990  16.219   5.786   1.335  0.0964 -0.0436 -0.1030
19374W        W34991   2.047   2.932  14.383 -0.0393 -0.0758  0.0925
19375W        W34992   0.387   8.976  10.657 -0.1502  0.0468 -0.0421
19376W        W34993  14.662   8.774   2.282 -0.0855  0.3181  0.0422
19377W        W34994   5.300  12.773   3.345  0.0529 -0.1358  0.0559
19378W        W34995   5.778   1.663   3.074 -0.3480  0.1810  0.1920
19379W        W34996   8.816   2.268  13.593  0.3179 -0.1268 -0.0231
19380W        W34997   7.131   2.455   3.390  0.0913 -0.1831  0.0920
19381W        W34998  13.097   8.397   3.075  0.1250  0.1703  0.0920
19382W        W34999   4.443   7.989  13.678  0.0756  0.0156 -0.1155
19383W        W35000  12.679  11.720   0.239 -0.0986  0.1917 -0.1496
19384W        W35001   7.126  13.000  14.546 -0.2483 -0.1487  0.0607
19385W        W35002  16.810   4.228   4.865 -0.1856 -0.0209  0.0278
19386W        W35003  16.569  10.609   4.688 -0.0359 -0.3619 -0.3700
19387W        W35004   3.490  16.455  14.877  0.0341 -0.0011 -0.0837
19388W        W35005  13.697  16.340  11.339 -0.2648 -0.0206 -0.1693
19389W        W35006   8.675  18.165  12.724  0.0403  0.0743 -0.0251
19390W        W35007   2.732   7.257  13.008  0.0109 -0.1937  0.2904
19391W        W35008  10.486   1.247  13.504 -0.1750  0.0464 -0.1126
19392W        W35009   5.867   6.848  11.686  0.1860  0.0516 -0.2239
19393W        W35010   3.382   4.990  13.787 -0.0027 -0.2587 -0.3540
19394W        W35011   8.487  12.084  12.817 -0.3777  0.0600  0.2029
19395W        W35012  14.562  12.451   1.950  0.4336 -0.1427  0.4185
19396W        W35013   3.271  14.391   4.813  0.2411  0.0500  0.5031
19397W        W35014  13.667   1.163   3.877  0.0230 -0.0629  0.1579
19398W        W35015   8.738  18.037   0.465 -0.3028 -0.2237  0.0226
19399W        W35016  16.295   9.874   0.903  0.2754  0.0038 -0.3209
19400W        W35017   7.939  12.132  14.772 -0.2494 -0.0480  0.0360
19401W        W35018   5.300   1.452   3.868  0.1297 -0.0796  0.0887
19402W        W35019   4.952   5.897   1.878  0.0330 -0.1338  0.2727
19403W        W35020  14.794   2.854   0.513  0.2325  0.0965 -0.2001
19404W        W35021  12.058   5.840   5.914 -0.2446  0.1370  0.0929
19405W        W35022   5.983   0.531  11.179 -0.2046  0.5460 -0.0069
19406W        W35023  12.009  11.142   4.459  0.0467 -0.2758  0.0272
19407W        W35024  10.512  14.718   2.890 -0.1772 -0.1302  0.0938
19408W        W35025  13.288   6.707  14.047 -0.0019 -0.3779  0.2093
19409W        W35026   3.221  17.728  14.957 -0.0618 -0.0620 -0.1770
19410W        W35027   7.236   2.188   4.815 -0.2037  0.2873 -0.1768
19411W        W35028  15.122   6.783  15.148  0.1075 -0.0981 -0.0464
19412W        W35029   9.363   5.619  13.836 -0.2592  0.3821 -0.1908
19413W        W35030   8.354  14.786  11.373  0.1361  0.1425 -0.2809
19414W        W35031   9.523  12.000   3.895 -0.0425  0.3209  0.1760
19415W        W35032   8.737  15.894   4.862 -0.1937  0.2167 -0.1588
19416W        W35033  14.661  10.081  11.125  0.0416  0.0609 -0.0726
19417W        W35034  12.774  18.478  12.224 -0.2060  0.3253 -0.2079
19418W        W35035   7.024  12.649   1.283  0.4303 -0.0150 -0.1669
19419W        W35036   4.925  13.758   1.066  0.0118  0.2611 -0.3437
19420W        W35037   5.602  17.325  11.102  0.2567  0.1826  0.1339
19421W        W35038  14.097  15.268   0.114 -0.2329 -0.0579 -0.0432
19422W        W35039  18.330  15.522  11.233  0.0475 -0.0215 -0.2734
19423W        W35040   4.698   8.418  14.492  0.1719  0.0508  0.2192
19424W        W35041   4.739  15.232  14.115 -0.0624 -0.0546  0.0891
19425W        W35042   7.800   2.488  15.241 -0.2250  0.0635  0.0013
19426W        W35043  12.656  18.557   0.174 -0.0125  0.2224  0.1411
19427W        W35044   8.488  15.419   2.660 -0.2047  0.0283  0.1760
19428W        W35045  15.620  14.617   0.133  0.1392 -0.2208 -0.1745
19429W        W35046   1.186   3.246  14.058 -0.0096  0.1339  0.0276
19430W        W35047   6.907  13.698  10.452  0.0230 -0.3833 -0.1170
19431W        W35048  10.955   5.547  14.938  0.0809  0.0224  0.1885
19432W        W35049  18.018   5.162  12.062  0.0625 -0.0893  0.3468
19433W        W35050   2.644   3.809  15.089  0.0601  0.0274  0.0999
19434W        W35051   7.022   1.106   2.293  0.2366 -0.0713  0.1748
19435W        W35052  15.456   5.964   4.152  0.0896 -0.1458  0.1594
19436W        W35053   0.579   7.698   2.666 -0.1891 -0.0842  0.2041
19437W        W35054   8.931  12.143  13.782  0.3085  0.0344 -0.0317
19438W        W35055  12.332  15.107  14.513 -0.0221  0.1864 -0.0770
19439W        W35056  11.784  13.263   3.447  0.2984  0.3457 -0.4956
19440W        W35057  14.973   0.573   0.016 -0.0403 -0.0627  0.1976
19441W        W35058   1.472   1.021  13.794  0.5391 -0.0230  0.3384
19442W        W35059   7.372   1.482  12.023 -0.1634 -0.0893  0.2952
19443W        W35060   5.896  16.575  11.112  0.2065  0.1289  0.3340
19444W        W35061   6.070   9.907  14.441  0.3912 -0.0298 -0.0218
19445W        W35062   0.286  14.681   1.287 -0.1760 -0.0066 -0.0347
19446W        W35063  13.666   4.277   5.414 -0.3467  0.2306 -0.0079
19447W        W35064   5.856  17.176   4.496  0.3404 -0.2596 -0.0442
19448W        W35065   2.907   7.081   4.108 -0.1038  0.0899 -0.0440
19449W        W35066   6.148   0.192   2.262 -0.0370 -0.1173  0.0139
19450W        W35067  13.244   8.783  11.358  0.3910  0.1096 -0.0411
19451W        W35068   5.747  16.299  15.169  0.2107  0.1930  0.0471
19452W        W35069  15.508  13.311   9.794 -0.0131 -0.0035  0.5395
19453W        W35070  10.332   9.195  14.889 -0.2468 -0.0913  0.0472
19454W        W35071   3.033   6.520   0.289 -0.1916 -0.1455 -0.1759
19455W        W35072  11.700   9.045   4.518 -0.0042  0.3124 -0.0607
19456W        W35073  15.852   1.641  11.921  0.1248 -0.0338 -0.2840
19457W        W35074   3.528  17.140  13.441  0.1699  0.0413  0.1933
19458W        W35075  13.317   5.637   5.495 -0.1012 -0.4184 -0.1839
19459W        W35076   0.076   4.076   2.448 -0.3590  0.0652  0.1172
19460W        W35077  16.323   1.284   0.615 -0.1046 -0.0577 -0.0513
19461W        W35078   1.652  11.608   2.959 -0.0388  0.1043 -0.5066
19462W        W35079   8.414   7.234  11.432 -0.0747 -0.0410  0.0902
19463W        W35080   1.964   0.653  15.459  0.1842 -0.1488 -0.3015
19464W        W35081   5.475  10.956  12.482 -0.1564 -0.0682 -0.4348
19465W        W35082   0.581   2.628   3.861 -0.2268  0.0055 -0.2837
19466W        W35083  10.382   5.449   3.814 -0.2268  0.1139  0.2652
19467W        W35084   7.812  10.968   3.708  0.0544 -0.1400  0.1459
19468W        W35085  13.024  17.351   3.910  0.1363  0.1583  0.0328
19469W        W35086  10.497  11.226   4.445 -0.0131 -0.0606  0.0125
19470W        W35087   1.775   6.502  10.872  0.1966  0.0126  0.0766
19471W        W35088  11.920   2.987   5.412  0.2747 -0.0158  0.1585
19472W        W35089   7.095  18.617  14.932  0.1454  0.0593 -0.1960
19473W        W35090   7.781  13.339  11.349 -0.3099 -0.2725  0.0927
19474W        W35091  15.857  15.492   2.816 -0.0224 -0.0770 -0.0294
19475W        W35092   4.680   2.260   3.860  0.1120  0.2166 -0.0903
19476W        W35093   9.659  12.517  13.861  0.1811  0.1424 -0.1415
19477W        W35094  12.537  15.715  13.559 -0.0383 -0.1208 -0.1158
19478W        W35095   3.552  12.446  11.262  0.0794 -0.4902 -0.0250
19479W        W35096  14.015   9.038  15.524  0.4008  0.0349 -0.0221
19480W        W35097   6.064  16.190   1.826  0.0493 -0.2453 -0.2944
19481W        W35098  11.381   6.702  10.938  0.2770 -0.1077  0.0505
19482W        W35099  15.951   0.674  13.028 -0.0997  0.0659  0.0101
19483W        W35100   3.435   2.337   1.163  0.1859  0.0671  0.0686
19484W        W35101  12.496   7.267   5.176  0.1209 -0.1566  0.0306
19485W        W35102  11.752  15.031  12.898  0.0988  0.0230 -0.3385
19486W        W35103   4.873   2.891   5.090 -0.3982 -0.1146 -0.3079
19487W        W35104   8.722   3.118   4.692 -0.1359  0.0724 -0.0765
19488W        W35105   7.623   4.155  13.666 -0.0047 -0.1781 -0.0007
19489W        W35106  18.652   7.465  14.000 -0.2186  0.0248 -0.1003
19490W        W35107   2.442   1.459  15.769 -0.0366 -0.3488 -0.1387
19491W        W35108   5.901   3.210  15.129 -0.2638  0.0750 -0.0507
19492W        W35109  14.442   8.187  13.163 -0.0902  0.2743 -0.1311
19493W        W35110  15.953  10.253   3.038 -0.0483 -0.0633 -0.2589
19494W        W35111   1.101  14.784  15.368  0.1020  0.0310  0.1931
19495W        W35112   4.477   6.195  12.812  0.0112  0.2138  0.2853
19496W        W35113  10.717  12.041   0.788 -0.1247  0.2250  0.0667
19497W        W35114   3.871  12.935  14.814  0.2217  0.0090 -0.1833
19498W        W35115  14.418   8.123  14.117  0.1022 -0.2307  0.2721
19499W        W35116  12.527  10.980   2.130  0.2023  0.0851  0.1874
19500W        W35117  16.210   3.738   2.169 -0.0186 -0.1446  0.0003
19501W        W35118  13.504   5.207   2.024 -0.1200 -0.1384  0.1172
19502W        W35119  17.399   6.377   2.214 -0.0400  0.2318 -0.4043
19503W        W35120   9.070   2.800   1.456  0.1426  0.2475  0.0095
19504W        W35121  13.486   5.391   1.425  0.0476  0.3380  0.0751
19505W        W35122   5.354   8.020  13.191  0.0905  0.2717 -0.1917
19506W        W35123  11.244  10.041  15.521 -0.0966 -0.0826 -0.2294
19507W        W35124  15.632   0.664   0.769 -0.1913  0.3689  0.3054
19508W        W35125   3.653  16.295  10.793 -0.3124 -0.0364  0.0358
19509W        W35126   4.079  16.657   3.011 -0.0821  0.2891  0.3944
19510W        W35127  11.760   2.837   4.909 -0.2271 -0.0393  0.0876
19511W        W35128   6.194   5.919  14.740  0.0144  0.0665  0.1837
19512W        W35129   3.213   1.791   3.204  0.0393  0.0733  0.2978
19513W        W35130   1.874   3.407  15.092  0.0845 -0.0127 -0.0319
19514W        W35131  17.084   2.044   0.137 -0.1088  0.0777 -0.1980
19515W        W35132  16.662   4.712   4.832  0.0801  0.0853  0.0026
19516W        W35133   5.213  18.110  11.674  0.3026 -0.1487  0.0473
19517W        W35134   8.423   0.258   0.443  0.1700  0.3101  0.2778
19518W        W35135  12.527   3.704  13.298 -0.0539 -0.2955  0.0203
19519W        W35136  13.656  17.110  11.075 -0.0015  0.0419 -0.0103
19520W        W35137   4.702  10.407  14.918 -0.0626 -0.2108 -0.2774
19521W        W35138   4.340   0.627   1.534 -0.1261  0.1619 -0.0091
19522W        W35139  13.642   9.900  13.325 -0.0582  0.0815 -0.2014
19523W        W35140  10.610   3.603  13.793  0.3231  0.0038  0.2774
19524W        W35141  14.420   4.931  12.997 -0.1008 -0.1632 -0.0411
19525W        W35142   0.306  10.231  11.945  0.0296 -0.0015  0.0942
19526W        W35143  11.814  17.286   2.683  0.0127 -0.0312  0.0640
19527W        W35144   5.581   2.804  14.443 -0.2043  0.1673 -0.2680
19528W        W35145  12.298  17.454  11.007 -0.1402 -0.1689 -0.1471
19529W        W35146   7.313  13.988  14.554 -0.0568 -0.0233  0.1714
19530W        W35147  12.105   1.682  11.266 -0.1307 -0.0150 -0.0888
19531W        W35148   6.282   3.861  14.701 -0.1877  0.1512 -0.0972
19532W        W35149  14.088   2.827   4.613  0.0717  0.0026 -0.2116
19533W        W35150   6.646  12.921  13.613 -0.0731 -0.0257 -0.1737
19534W        W35151   1.113   9.835  15.630 -0.3185  0.2072  0.2708
19535W        W35152   2.533   9.449  15.456  0.0470 -0.0178 -0.2256
19536W        W35153  18.533  14.365   0.972  0.2329 -0.2133  0.0113
19537W        W35154   8.736  13.168  13.356  0.5281 -0.0649  0.2178
19538W        W35155   8.944   2.026  12.446 -0.0045 -0.0957 -0.3762
19539W        W35156   9.604  15.256  15.283  0.1939 -0.0310  0.0474
19540W        W35157   1.976   5.872  10.749  0.0476 -0.2545 -0.2444
19541W        W35158   6.977   6.038   4.863 -0.2061  0.0881  0.2254
19542W        W35159  16.160  10.274   4.732 -0.3051  0.0818  0.0286
19543W        W35160   9.861  17.527  11.044 -0.3753  0.0962  0.1994
19544W        W35161  14.277   5.177  13.446  0.1106 -0.0294 -0.0766
19545W        W35162   6.510   8.429  12.762  0.0164  0.0835  0.1523
19546W        W35163   8.415   2.211  14.488  0.0421 -0.0674 -0.2397
19547W        W35164   0.969   7.130  12.194 -0.2461 -0.0061  0.0058
19548W        W35165  14.118  17.687   0.881  0.3535 -0.0169 -0.0858
19549W        W35166  13.156   5.120  14.593 -0.0794 -0.3626  0.2731
19550W        W35167   0.346   8.893  13.001  0.0056 -0.0251 -0.1376
19551W        W35168   4.279   3.127  14.222 -0.0563 -0.2676 -0.2600
19552W        W35169   1.091   2.037   5.268 -0.2384  0.0672 -0.1175
19553W        W35170  18.618  16.209  14.879  0.0748  0.3694  0.0976
19554W        W35171  13.295   0.506  14.636  0.2001  0.2062  0.1441
19555W        W35172   2.528  15.263   0.002 -0.0426  0.0695 -0.0955
19556W        W35173   0.435  15.750   2.323  0.0031  0.0035  0.1018
19557W        W35174  17.919  13.817   0.242  0.4117  0.4044 -0.2162
19558W        W35175  15.026  14.447   4.643 -0.1511  0.1051 -0.0959
19559W        W35176  17.950  15.029  10.891  0.0888 -0.2759  0.4104
19560W        W35177   1.993   6.237   0.849 -0.1480  0.4378 -0.2698
19561W        W35178  16.026  17.372  14.975 -0.0775  0.0520  0.0630
19562W        W35179   7.725   6.443   4.107  0.0506  0.5628 -0.0422
19563W        W35180   8.331   3.940   5.161 -0.1908  0.3370  0.2286
19564W        W35181   1.506  12.254   3.246 -0.2534 -0.1483  0.2776
19565W        W35182  17.895  13.028   0.132 -0.0216 -0.1614 -0.1446
19566W        W35183   6.749  15.922  14.924  0.1376  0.1598  0.1403
19567W        W35184  18.209  12.103   0.282  0.0212  0.2682  0.1154
19568W        W35185  14.987  15.810   2.216  0.1257  0.1932  0.4276
19569W        W35186   4.993   9.941   2.365 -0.3004  0.0522  0.3776
19570W        W35187   8.394  12.868   0.248 -0.2701  0.1251  0.0277
19571W        W35188   8.274   0.136  15.294 -0.1444  0.4592  0.0543
19572W        W35189   5.759  18.616   3.244  0.2374 -0.2831 -0.1313
19573W        W35190  10.825   7.952  13.412  0.0285  0.0207 -0.0238
19574W        W35191  12.185  13.220   2.717 -0.0825  0.0007 -0.0366
19575W        W35192  15.895   4.096  11.802  0.2211  0.1273  0.1453
19576W        W35193  11.304   6.985  13.547  0.3772  0.2130 -0.0154
19577W        W35194   3.563   5.709  12.587  0.0365  0.0706 -0.3348
19578W        W35195  14.939  14.006   0.988 -0.1353  0.1451  0.3560
19579W        W35196  10.593   4.998  15.172 -0.1378  0.0803 -0.2728
19580W        W35197   0.851  15.231   5.003 -0.0235  0.4855  0.1008
19581W        W35198  10.489  12.526   1.505 -0.0035 -0.2910  0.1953
19582W        W35199   9.463   0.309   4.664  0.1308  0.0493  0.2172
19583W        W35200   7.307   8.980   4.599 -0.0773  0.2539  0.0922
19584W        W35201   7.935  16.137  14.499 -0.0688 -0.1547 -0.1022
19585W        W35202  13.340  13.810  13.471  0.2712 -0.0347  0.0719
19586W        W35203   7.036   4.694   5.421 -0.0400  0.0281 -0.0835
19587W        W35204  18.160   4.120   1.803 -0.2195  0.3012 -0.1009
19588W        W35205   7.609   1.263  11.524 -0.2427  0.0023  0.0448
19589W        W35206   3.272  13.865   1.345  0.2876  0.1985 -0.0866
19590W        W35207  15.378   0.251   2.081  0.1120 -0.1591 -0.1613
19591W        W35208  17.893  16.813  14.966 -0.1586 -0.0164  0.0334
19592W        W35209  17.698   9.558  14.192  0.1175  0.0525  0.1560
19593W        W35210   7.811   3.919   0.865 -0.0180 -0.0870  0.0515
19594W        W35211  15.778   0.329   3.121  0.2515 -0.1944 -0.4508
19595W        W35212   6.251   0.295  13.979 -0.0111 -0.0476  0.0230
19596W        W35213   3.821   9.787  13.864  0.0084 -0.0996  0.0084
19597W        W35214   1.719   6.408  11.385 -0.0789  0.1186 -0.1533
19598W        W35215  10.587  13.665   2.017  0.1338  0.2462 -0.0014
19599W        W35216   3.141   5.182  12.872 -0.0552  0.2065 -0.0623
19600W        W35217  18.474   4.495   2.488 -0.1990  0.0085 -0.1688
19601W        W35218   8.737  11.506   2.193  0.1126 -0.2870 -0.2775
19602W        W35219  14.714  10.858   0.217  0.0027 -0.2181  0.1426
19603W        W35220  12.913   8.010   2.392  0.2013  0.0676 -0.0565
19604W        W35221   5.287   3.906   0.183 -0.1561 -0.2165 -0.2243
19605W        W35222   5.685   1.190   5.623  0.0143 -0.0758  0.0239
19606W        W35223   2.106  18.348  15.310 -0.0393  0.1126 -0.1189
19607W        W35224  16.608  11.803   5.066 -0.0580 -0.0471 -0.2670
19608W        W35225   5.865   6.314   0.923  0.1137 -0.1421  0.0346
19609W        W35226  15.081   9.703  10.478  0.4314 -0.2212 -0.0408
19610W        W35227   3.620   4.520  11.125 -0.3585 -0.1496  0.0523
19611W        W35228  14.360   8.536   4.657  0.1455 -0.0365 -0.0003
19612W        W35229  14.980   7.830  13.906  0.1703  0.2529  0.2151
19613W        W35230   2.624   2.998  15.708 -0.0335  0.0181  0.0410
19614W        W35231  11.923  12.611  15.752  0.3149 -0.0027  0.2582
19615W        W35232   8.445  14.628   4.019 -0.2239  0.3559 -0.2298
19616W        W35233  15.393   9.168   1.686 -0.2331 -0.2894  0.0656
19617W        W35234  17.078   8.951  11.625 -0.0173  0.1146  0.0765
19618W        W35235   5.164  17.043  14.276 -0.1983 -0.0492 -0.2329
19619W        W35236  13.082   6.268  11.398 -0.0440  0.1101  0.1557
19620W        W35237  14.304  14.861   1.466  0.1034  0.1069 -0.2042
19621W        W35238   3.169  11.319  15.659 -0.1562  0.0086 -0.0676
19622W        W35239  10.630   9.937   0.422  0.1449 -0.0844 -0.1349
19623W        W35240  17.952   8.274  13.481  0.4789 -0.0507 -0.0847
19624W        W35241   8.533   4.462  15.051  0.0301 -0.1320  0.1658
19625W        W35242  15.115  11.577   1.851 -0.2223 -0.2761  0.0155
19626W        W35243  17.878  13.647  11.228  0.1154  0.1890 -0.3161
19627W        W35244  17.274   0.860  13.433  0.0888  0.1546 -0.1886
19628W        W35245   6.380  13.015  12.084 -0.0829 -0.0809 -0.2830
19629W        W35246  10.573   8.092  12.099  0.2103 -0.1130  0.4088
19630W        W35247   2.424   9.425   4.456  0.1601 -0.2027 -0.0650
19631W        W35248  13.510   7.358  13.354 -0.0389 -0.0636  0.0553
19632W        W35249  12.549   6.001  15.225 -0.4141 -0.0358  0.1506
19633W        W35250  12.296  11.804   1.502 -0.5465  0.1242 -0.0002
19634W        W35251  10.513  11.442   3.416  0.1469 -0.0225  0.0107
19635W        W35252  17.319   9.523   3.999  0.0538 -0.1574  0.0064
19636W        W35253   8.716   3.644   4.875 -0.1071  0.2081 -0.5105
19637W        W35254   2.803  16.861   3.481  0.1407 -0.0247  0.1565
19638W        W35255   4.655   2.191   1.224 -0.0059  0.0624  0.3298
19639W        W35256  12.585   6.863   0.540  0.1930 -0.1037 -0.0620
19640W        W35257   7.586   0.508   4.560  0.0488 -0.1578  0.1413
19641W        W35258   2.386  15.844   1.238  0.1281  0.0618  0.0744
19642W        W35259  16.228   0.618  15.687  0.0110 -0.2300  0.2549
19643W        W35260  15.679   0.150   3.642 -0.0300 -0.1905  0.2193
19644W        W35261  14.697   9.298   4.295 -0.3292  0.1493 -0.1061
19645W        W35262  12.759   8.979  11.318  0.2537 -0.2353 -0.0359
19646W        W35263  16.201   9.049   0.833 -0.0191  0.2666 -0.2371
19647W        W35264   6.951   1.063  14.798 -0.0155  0.0848 -0.0915
19648W        W35265  16.301  11.211  15.280 -0.2989 -0.2386 -0.0282
19649W        W35266  18.427   9.759  15.219 -0.0084 -0.1939  0.2698
19650W        W35267  16.900  16.192   1.298 -0.0672  0.1501  0.1954
19651W        W35268   1.686   3.024   1.669 -0.4426  0.0614 -0.1518
19652W        W35269   1.179   3.842  13.028  0.3932 -0.0770  0.1593
19653W        W35270   8.340  15.903   4.553  0.0214 -0.1810 -0.0220
19654W        W35271  18.584   0.501  15.445  0.2355 -0.1138 -0.0771
19655W        W35272   3.788  17.573  14.325 -0.1169  0.3429  0.0555
19656W        W35273   3.586  18.446   5.268 -0.0652 -0.1334 -0.0511
19657W        W35274  13.041   8.689  10.790  0.0407  0.2719 -0.2619
19658W        W35275   9.702   4.470  15.506  0.1936 -0.1190  0.0205
19659W        W35276   8.857   1.033   3.775 -0.1018 -0.0479 -0.1131
19660W        W35277   5.665  17.380  14.163 -0.0924  0.0354  0.0299
19661W        W35278   6.094  13.078  14.261  0.0529  0.0735  0.4161
19662W        W35279   4.215   9.341  12.325  0.2660  0.3706 -0.2708
19663W        W35280  14.469   0.537  15.459 -0.2109 -0.2464  0.0093
19664W        W35281  11.834   9.134  13.492  0.1844 -0.0663  0.1376
19665W        W35282  15.733  12.970  14.880 -0.1020  0.1770 -0.0081
19666W        W35283   9.694   1.818  11.846 -0.1344 -0.1801  0.1422
19667W        W35284  10.951  10.056  12.322 -0.1512  0.0886  0.0665
19668W        W35285  15.349   9.259  10.649  0.4789 -0.0893  0.0971
19669W        W35286  16.393  11.115   0.788 -0.4750  0.0027  0.0963
19670W        W35287   7.212   3.092  13.490  0.1249 -0.1892 -0.4226
19671W        W35288   4.393   6.947   0.820  0.1717 -0.2175  0.1656
19672W        W35289   5.107   5.485  11.807  0.4863  0.0294  0.3498
19673W        W35290   6.531   5.652   1.434  0.2160 -0.0793  0.0228
19674W        W35291   2.898  17.724  12.587 -0.1674  0.1661 -0.2095
19675W        W35292  16.037   1.570   0.138 -0.0307 -0.1052 -0.0498
19676W        W35293   6.045   5.588   5.891  0.0346 -0.4022 -0.0450
19677W        W35294  14.937   3.817   5.595  0.0017  0.1400 -0.2584
19678W        W35295  10.780  18.241  15.613 -0.2782 -0.0352 -0.0247
19679W        W35296   0.441   9.666   1.073 -0.1982 -0.0347  0.0183
19680W        W35297   8.223   4.017  14.287 -0.1361 -0.3180  0.3019
19681W        W35298  10.616   6.229   1.265 -0.3176 -0.4924 -0.0879
19682W        W35299  16.388  16.306   4.377  0.3024 -0.0388 -0.2151
19683W        W35300   9.634  13.330  10.262 -0.1385 -0.2214  0.1856
19684W        W35301  12.163  11.881  10.141  0.0759  0.0440  0.1102
19685W        W35302   7.187  16.742   3.677 -0.1118  0.1426  0.1330
19686W        W35303   6.826   7.990  14.579 -0.2002  0.0501 -0.2962
19687W        W35304  18.192   1.400  11.863 -0.2805 -0.1104  0.1656
19688W        W35305  17.196  13.190  10.288 -0.0836  0.0084 -0.0710
19689W        W35306   9.995   6.862   1.511  0.2568 -0.0010 -0.1178
19690W        W35307   5.515   0.666  11.088  0.1293 -0.2524 -0.3847
19691W        W35308  10.835   4.755   5.109 -0.0561  0.0801  0.1384
19692W        W35309   8.117   9.670  10.945  0.3140  0.2155  0.1160
19693W        W35310   0.420  13.202   1.234 -0.0329 -0.0879 -0.2624
19694W        W35311  15.069   6.824  12.716  0.1579 -0.0621  0.2028
19695W        W35312   7.401   3.108  14.506 -0.1366  0.0537  0.0470
19696W        W35313  11.462   1.504   4.460 -0.0219  0.2004 -0.1384
19697W        W35314  11.453  13.638  14.973  0.2877  0.0949 -0.1362
19698W        W35315   6.021   0.330   4.782 -0.1372 -0.1816 -0.1352
19699W        W35316  10.740   7.898   0.790  0.2613 -0.0914  0.0124
19700W        W35317   1.314   4.935   0.635  0.3462 -0.1109 -0.4320
19701W        W35318  10.106   5.833   4.349 -0.1566 -0.1176  0.0717
19702W        W35319   4.682  16.896   1.432 -0.2855 -0.0925 -0.0993
19703W        W35320  18.322   7.795  10.528  0.2420 -0.1090 -0.1680
19704W        W35321   3.666   8.534   0.652 -0.1912 -0.2077 -0.0060
19705W        W35322   2.139   1.103   0.556  0.2902 -0.2005  0.1171
19706W        W35323  10.023  14.876  10.762  0.2704 -0.0257  0.0851
19707W        W35324   3.555  10.274   4.276  0.4035  0.0964 -0.1472
19708W        W35325   9.967   9.967  11.198 -0.1667 -0.2531 -0.0258
19709W        W35326   9.518   7.441  15.185 -0.0407 -0.0763 -0.3177
19710W        W35327  17.308  11.676   1.547 -0.3603  0.1185 -0.0865
19711W        W35328  16.305   0.805   5.944  0.3762 -0.2187 -0.1310
19712W        W35329   6.527   8.947   2.630 -0.2070  0.1629  0.1669
19713W        W35330   8.702  15.255  10.547 -0.0444 -0.0196  0.1568
19714W        W35331  15.720   5.414  14.076  0.3245  0.1991  0.0198
19715W        W35332   9.918   0.842   5.814  0.1505 -0.0787 -0.0627
19716W        W35333  16.709  10.798  14.072 -0.1834  0.1242  0.2208
19717W        W35334  17.796   1.379   1.394  0.0827  0.2054  0.0538
19718W        W35335   2.592  12.270  15.161 -0.0525  0.1139  0.0782
19719W        W35336   7.746   5.125  14.779  0.2218  0.0964 -0.3307
19720W        W35337  12.700   5.161  15.645  0.0417  0.0414 -0.1459
19721W        W35338   7.073   3.508   0.841 -0.2616  0.1037  0.0118
19722W        W35339  12.965   0.093  11.847 -0.1803 -0.0051  0.1027
19723W        W35340  18.600   8.111   2.237  0.0928 -0.2411 -0.5110
19724W        W35341   4.018   5.664  10.799  0.0433 -0.0326  0.1535
19725W        W35342  11.127   3.551  13.727  0.4444 -0.2438  0.0786
19726W        W35343   5.625  18.024   0.817  0.0001 -0.0131  0.0521
19727W        W35344  10.323   1.646  13.111  0.0402 -0.2024 -0.1097
19728W        W35345   0.811  11.702  10.342  0.2214  0.1179  0.1902
19729W        W35346   1.173  17.617  15.345  0.0969 -0.3813 -0.1362
19730W        W35347   7.477   7.929  15.224 -0.1540  0.1804 -0.0073
19731W        W35348   8.710   8.552  12.170  0.0989  0.0531  0.0568
19732W        W35349  17.354   0.563   4.068  0.4532 -0.5552  0.1148
19733W        W35350   2.265   3.352  12.307 -0.0446  0.0072 -0.1955
19734W        W35351   5.959  17.922   0.473 -0.1341 -0.0832 -0.2042
19735W        W35352  16.973   9.880   0.368  0.1063 -0.0245  0.3097
19736W        W35353   1.742   1.501   1.809 -0.0240 -0.1316  0.1746
19737W        W35354   1.156   2.832  13.760 -0.0084  0.0791  0.2209
19738W        W35355   8.737  12.562   4.746  0.3329 -0.1016  0.1385
19739W        W35356   3.169   6.889   3.547  0.3765 -0.0275  0.0481
19740W        W35357   3.714  11.661   1.708 -0.0803  0.2605  0.0575
19741W        W35358   4.442   5.208  14.749 -0.3210 -0.5172  0.0033
19742W        W35359  17.202   6.902   3.044 -0.1919  0.3844  0.0536
19743W        W35360   6.254   5.276  14.840  0.0631 -0.1443  0.2706
19744W        W35361  12.803  12.155   0.417 -0.3563 -0.0844  0.0051
19745W        W35362   0.874  16.362   3.446  0.1310  0.0406 -0.3320
19746W        W35363  10.849   8.193  11.655  0.1934  0.0648 -0.0825
19747W        W35364  10.074  10.706  11.874  0.1607  0.0965  0.2206
19748W        W35365   1.708  17.982  14.683  0.0471 -0.1680  0.0639
19749W        W35366  13.343  14.037  12.183 -0.2527 -0.1312  0.0084
19750W        W35367  13.178  17.112   4.361 -0.2551  0.0487  0.1696
19751W        W35368   1.478   7.763  12.647  0.2291  0.0909 -0.1701
19752W        W35369   9.625  15.154  10.579 -0.0110  0.2776 -0.1512
19753W        W35370  16.475   9.351  15.153  0.1237  0.0159  0.0423
19754W        W35371   2.859  18.157  14.799  0.0461  0.0397 -0.2690
19755W        W35372  15.629  16.397   2.769  0.2908 -0.0210  0.1146
19756W        W35373   3.439   5.901  13.971 -0.4691  0.2507  0.4515
19757W        W35374  10.506  18.263   6.521  0.1629 -0.1941  0.1116
19758W        W35375   5.100  18.416   4.781 -0.0632 -0.1651  0.4274
19759W        W35376   8.143  16.856  13.030 -0.0156  0.0121 -0.1447
19760W        W35377  18.652  12.210   0.941 -0.0031 -0.0547  0.0019
19761W        W35378   1.159   6.597   1.127  0.2730 -0.2214 -0.0971
19762W        W35379  13.768  13.576  13.497  0.1457 -0.2854  0.0962
19763W        W35380   7.227   4.737  15.594  0.2343  0.3235 -0.1950
19764W        W35381   0.424  15.211  11.224  0.2605  0.1637 -0.1678
19765W        W35382   4.842   6.754  13.107 -0.1833 -0.3684  0.0889
19766W        W35383   4.495  10.839   2.269 -0.3107  0.0239 -0.1482
19767W        W35384  11.323  11.602   1.472 -0.3238 -0.1630 -0.1525
19768W        W35385   1.850   7.375  12.670  0.0729  0.0819  0.2434
19769W        W35386   6.427   2.919   3.189 -0.0872  0.2281  0.0036
19770W        W35387  10.461   9.663  14.930 -0.3074 -0.1297 -0.1275
19771W        W35388   2.727   7.517   3.972  0.0527 -0.0250  0.4187
19772W        W35389   0.692   7.222   0.903  0.0773  0.1955  0.0486
19773W        W35390  13.942   1.832  13.359  0.2457  0.0773 -0.1948
19774W        W35391  13.861  12.814   3.869  0.2344 -0.0069  0.1644
19775W        W35392  14.530   0.635   3.099 -0.0214  0.0486 -0.0669
19776W        W35393  15.067   4.597  10.972  0.0938  0.2491  0.2566
19777W        W35394   9.850   6.291  12.144  0.2969  0.0507  0.0927
19778W        W35395  14.870  15.853   2.704 -0.0039  0.1019 -0.2415
19779W        W35396  13.791   0.011  15.341 -0.2329  0.3306  0.1667
19780W        W35397  12.775   2.842  14.986 -0.1605 -0.3338  0.1378
19781W        W35398   3.387   7.356   3.319 -0.1541  0.2038 -0.0262
19782W        W35399  14.321   8.705  12.313  0.0770 -0.1089  0.1173
19783W        W35400   1.334   7.552  13.112  0.0026  0.0260 -0.1447
19784W        W35401  12.786  15.080  15.357 -0.0839  0.0190  0.3478
19785W        W35402   4.343  10.562  10.731 -0.0128  0.0318 -0.0097
19786W        W35403   2.269   1.386   1.971  0.2359  0.1089 -0.3179
19787W        W35404   4.135  12.593   3.673  0.0761 -0.1152 -0.1136
19788W        W35405   8.199   8.818   2.732 -0.2023 -0.0211 -0.0847
19789W        W35406   7.944   7.511  15.563  0.0047 -0.0197  0.0606
19790W        W35407  10.005  15.871   1.328  0.1714  0.0262 -0.1048
19791W        W35408  11.731   1.028  11.586  0.0442 -0.2625  0.1656
19792W        W35409  17.288  16.010   5.241 -0.2407 -0.0625 -0.2045
19793W        W35410   8.203   1.353   4.552 -0.1888 -0.1332 -0.0812
19794W        W35411  15.915   7.587  14.844 -0.0084 -0.5280 -0.1029
19795W        W35412  13.512   6.977  12.850  0.0381 -0.3701 -0.1318
19796W        W35413   4.392  11.924   3.089  0.0663  0.3084  0.0824
19797W        W35414   5.652   8.002   0.989 -0.0202 -0.0408 -0.3312
19798W        W35415  13.663  13.086  13.229 -0.1102  0.1077 -0.2039
19799W        W35416  13.746   4.739   2.124 -0.0712  0.0859 -0.2444
19800W        W35417   0.462  15.633  10.985  0.2072 -0.2657 -0.0356
19801W        W35418  10.927  11.993  13.738  0.0379  0.1146 -0.1343
19802W        W35419   8.801   1.881   1.828  0.0151  0.0392  0.0377
19803W        W35420   2.996  17.952   1.509 -0.2086  0.2550  0.3147
19804W        W35421   5.651   5.608   4.592  0.0389  0.3734  0.1810
19805W        W35422  14.187  13.755   4.085  0.1014 -0.3640  0.1470
19806W        W35423  18.355  14.190   4.041 -0.0330 -0.1876 -0.0081
19807W        W35424   0.226  10.012  15.260  0.2836 -0.1386 -0.4456
19808W        W35425  13.764   6.783  13.319  0.1088  0.0077 -0.2891
19809W        W35426  13.504  16.272  10.630  0.0995  0.1464  0.0591
19810W        W35427  18.401  14.026   1.857  0.5147 -0.1569 -0.0016
19811W        W35428  18.341   4.238  15.330  0.2572  0.1238 -0.1007
19812W        W35429   4.822  14.926   1.689 -0.0418 -0.0762  0.0207
19813W        W35430  13.654  11.743  11.937 -0.0050 -0.0906  0.0758
19814W        W35431  10.165  17.943   0.347 -0.0854 -0.0592 -0.2066
19815W        W35432  17.785  10.162  12.492  0.2427  0.0942 -0.0640
19816W        W35433   0.490  10.024  12.384  0.0262  0.0550  0.0904
19817W        W35434  10.509  11.014   3.622  0.3960  0.2517 -0.2783
19818W        W35435   0.170  12.587   2.581  0.1170 -0.0519 -0.3271
19819W        W35436   9.129  18.323   4.704 -0.0227 -0.2784  0.3388
19820W        W35437   2.902  12.607  14.767  0.0593 -0.1959  0.2791
19821W        W35438  16.004   2.341   5.653  0.1542 -0.0014  0.2604
19822W        W35439   5.863  12.184  13.362 -0.0388  0.1641  0.2719
19823W        W35440   9.249  13.806   3.924 -0.3835  0.0158 -0.2951
19824W        W35441  18.185  14.136  13.588 -0.0210  0.0303 -0.0486
19825W        W35442  14.806   8.664   4.320 -0.0405  0.1765  0.1211
19826W        W35443  14.725   4.621   5.623 -0.1984  0.1780  0.1573
19827W        W35444   8.226  10.369   2.615 -0.1141  0.0253 -0.0003
19828W        W35445  17.417   5.693   4.167  0.1455 -0.3389 -0.1368
19829W        W35446   8.240   6.367   1.811  0.2467 -0.1963 -0.1520
19830W        W35447  11.271  14.021   2.429  0.1058 -0.1060  0.3398
19831W        W35448  10.538   6.865   3.093 -0.0045  0.1413 -0.0301
19832W        W35449   4.447   8.426   5.144  0.3285 -0.1961 -0.5918
19833W        W35450  10.204  15.947  12.486  0.1391 -0.2897  0.3595
19834W        W35451  12.885  15.073  10.336 -0.1185 -0.0553 -0.1086
19835W        W35452  16.997  10.097  14.716 -0.0910 -0.1173 -0.0538
19836W        W35453  15.561   9.475   4.547 -0.3587  0.0112 -0.0397
19837W        W35454  11.782  14.146  12.324 -0.1537  0.0399  0.1197
19838W        W35455   8.700   1.726   3.510  0.1017  0.2547 -0.0262
19839W        W35456   1.501   2.496   3.302 -0.2254  0.1893 -0.2842
19840W        W35457   7.092  10.110  11.955 -0.1699 -0.0781 -0.0898
19841W        W35458  15.701   9.972   4.677 -0.2552  0.0961 -0.0326
19842W        W35459   5.941   9.823   3.769 -0.0958  0.0364 -0.0737
19843W        W35460   5.100   0.445  13.242  0.0029 -0.0754  0.0042
19844W        W35461  13.322   6.449   2.706 -0.0409 -0.2725 -0.4034
19845W        W35462  10.880  11.116  12.157  0.0246 -0.2018  0.0534
19846W        W35463   1.875  11.786   0.488  0.1189  0.4011 -0.2072
19847W        W35464   1.667  15.323  14.053  0.0098 -0.2413 -0.1592
19848W        W35465   3.741  12.735   3.942  0.1274  0.0434 -0.0647
19849W        W35466   5.583   4.924   3.384  0.0942  0.0047  0.1525
19850W        W35467   2.548  13.570   2.769  0.1854 -0.0398  0.2333
19851W        W35468  15.789   9.396  12.941 -0.2153  0.1711  0.1846
19852W        W35469  18.171  18.580   3.235  0.0331 -0.3093  0.4490
19853W        W35470   0.187  16.036  15.764  0.0372 -0.1980 -0.2518
19854W        W35471  13.414  16.845  11.505 -0.0490 -0.1194  0.2530
19855W        W35472   4.019   3.273  11.706 -0.0120  0.0293 -0.1802
19856W        W35473  15.558   5.982  14.804  0.2856 -0.1165  0.1017
19857W        W35474  13.764  15.633  14.197 -0.3358 -0.1189 -0.1816
19858W        W35475   9.401  15.807  11.082 -0.0443 -0.0751 -0.3864
19859W        W35476   5.298  18.091   4.405  0.2458 -0.1546 -0.3442
19860W        W35477   8.171   2.651  12.963 -0.0495  0.2420  0.1924
19861W        W35478  12.415   9.279   4.059  0.2254  0.0429  0.1348
19862W        W35479  11.664   3.323   1.838  0.0601 -0.1068 -0.0170
19863W        W35480   5.641  10.114   2.991 -0.2032  0.0120 -0.0096
19864W        W35481  13.137  14.241   3.230 -0.0545  0.1049  0.1276
19865W        W35482  17.217  16.628  10.789 -0.2041 -0.0118 -0.0803
19866W        W35483  10.482   2.413  15.282  0.1502 -0.2099 -0.0072
19867W        W35484  12.985   0.208  15.736  0.2836 -0.0541 -0.0769
19868W        W35485  14.096  11.951  14.635  0.2408  0.1665 -0.0579
19869W        W35486   3.195   9.241   0.490 -0.0009  0.2864 -0.0243
19870W        W35487   5.833   4.587  11.466  0.0362 -0.0741 -0.0425
19871W        W35488   8.929   1.699   4.370 -0.0216 -0.0166  0.1445
19872W        W35489   3.429   4.698  12.055  0.0933 -0.0592  0.0497
19873W        W35490  11.409  16.911  13.878 -0.0148 -0.1347  0.3001
19874W        W35491   9.001  12.942   3.947 -0.1076  0.0752 -0.0943
19875W        W35492  12.439  11.635   2.825  0.0638  0.1688 -0.2019
19876W        W35493  16.220   3.248  12.271  0.0281 -0.4179  0.2991
19877W        W35494  12.153  15.053  13.233 -0.0661  0.1949  0.2110
19878W        W35495   2.286  14.733  11.253 -0.1106  0.1285  0.1191
19879W        W35496  16.881   1.508   4.256 -0.1767 -0.0554  0.0961
19880W        W35497  10.367   2.146   0.764 -0.1867 -0.0156 -0.0648
19881W        W35498   7.671   0.496   2.680  0.3740  0.0618 -0.0756
19882W        W35499   9.311  16.079  13.063 -0.1063 -0.1619  0.1616
19883W        W35500  17.814   9.474   3.050 -0.1786  0.0724 -0.1773
19884W        W35501  12.453   5.486  14.219 -0.3379  0.2142  0.1378
19885W        W35502  12.595  16.944   1.983  0.1076 -0.0425 -0.0058
19886W        W35503   2.888  16.255   4.033  0.1550 -0.0036 -0.1690
19887W        W35504  15.590  11.524   3.645 -0.1506  0.1431  0.1122
19888W        W35505  15.136  15.369  15.730  0.4248 -0.2103  0.0589
19889W        W35506  14.162   2.558  12.814  0.0829  0.0615  0.1240
19890W        W35507   7.366   1.963   0.110 -0.2613 -0.0077  0.0273
19891W        W35508   6.929   2.536  11.591 -0.1595 -0.0755 -0.1972
19892W        W35509   1.656  17.472   4.664 -0.2007 -0.0275 -0.0470
19893W        W35510  16.439   8.529  13.066  0.0821  0.3729  0.2306
19894W        W35511  14.211  11.672   4.924 -0.0688  0.2551 -0.1814
19895W        W35512   8.768   0.259  15.072  0.1018 -0.2906 -0.1708
19896W        W35513  15.830   6.319  15.050  0.1563 -0.2340 -0.1387
19897W        W35514  10.648   5.118   1.256  0.0904 -0.2234 -0.2588
19898W        W35515   3.840   0.478   1.548 -0.0284 -0.1393  0.1193
19899W        W35516  13.159  15.117   3.152  0.0375  0.0746  0.2384
19900W        W35517   9.603   1.781   4.020 -0.3317 -0.2628 -0.0502
19901W        W35518  14.791   7.463   4.903  0.1164  0.2784  0.0118
19902W        W35519   0.627  12.494   0.234 -0.2801  0.0166  0.0933
19903W        W35520   9.086   4.943  10.212 -0.1677  0.1370 -0.0071
19904W        W35521  14.503  14.447   3.002  0.0070  0.1711 -0.2798
19905W        W35522  15.396  11.428   2.718  0.3027 -0.4327  0.3805
19906W        W35523  17.270  12.070   9.709  0.0529 -0.3637  0.1454
19907W        W35524   8.753   8.447  14.805 -0.3376  0.1121  0.0758
19908W        W35525   7.532   5.511   0.522 -0.1702 -0.0001 -0.1448
19909W        W35526  16.920  11.855  14.115 -0.0659 -0.0472 -0.0072
19910W        W35527  10.516   8.412  12.480 -0.2708  0.2145 -0.1742
19911W        W35528  17.857   8.715  12.814 -0.1831  0.2233 -0.0146
19912W        W35529  10.207   1.396   3.662 -0.2410 -0.1736  0.0917
19913W        W35530   6.658   7.272   5.807 -0.0497  0.0197  0.1551
19914W        W35531   3.671   1.689   3.292 -0.2233  0.2770 -0.1395
19915W        W35532  13.309   2.729   5.319  0.0020 -0.0897  0.1365
19916W        W35533   0.595  13.596   4.969 -0.1947  0.0659  0.0542
19917W        W35534  16.436  17.658   5.063 -0.0302  0.0294  0.2346
19918W        W35535   0.632  16.892   4.608  0.2438 -0.0993 -0.4185
19919W        W35536  18.155  14.607  13.420 -0.0917 -0.2040 -0.1481
19920W        W35537  14.870   7.272   4.056  0.1255  0.0654  0.0695
19921W        W35538   9.100  17.619  12.127  0.2494 -0.0492  0.1424
19922W        W35539  15.795  13.697   9.836 -0.3791 -0.0311  0.2097
19923W        W35540   1.096   2.244  15.421 -0.0489  0.1251  0.2780
19924W        W35541   1.607  15.419  14.627 -0.2854  0.2990  0.1517
19925W        W35542  12.394   5.522   4.637 -0.4524 -0.1694  0.1718
19926W        W35543   2.730   3.619  14.593 -0.1673  0.0751 -0.0500
19927W        W35544  10.437   7.425  15.373 -0.3400 -0.1672 -0.1881
19928W        W35545  15.691   9.890   0.925 -0.0681  0.2124 -0.0273
19929W        W35546   4.606   6.112  11.791  0.2255 -0.0542  0.0138
19930W        W35547  17.382  16.448   1.969 -0.0465  0.0346 -0.1364
19931W        W35548  11.685   9.338   0.368 -0.1418  0.1260  0.2550
19932W        W35549   5.938   7.605   1.021 -0.0311  0.3855  0.0856
19933W        W35550   7.305   2.964   0.175 -0.3160  0.1453  0.0582
19934W        W35551  11.554   5.978  11.655  0.2138 -0.1445  0.1275
19935W        W35552   3.681   9.179   2.439 -0.1380  0.3417 -0.2618
19936W        W35553   8.200   6.430  14.196  0.0764 -0.0610 -0.0869
19937W        W35554   6.824   3.251  13.183  0.2155 -0.0396  0.1443
19938W        W35555  17.861  15.766  12.146 -0.3461 -0.0250 -0.1054
19939W        W35556   7.998  17.322   0.538 -0.0143 -0.2145 -0.2480
19940W        W35557  13.134   0.037   1.016 -0.3531  0.1409  0.1902
19941W        W35558  15.414  17.887   5.686 -0.0058 -0.0545 -0.0296
19942W        W35559  12.703  10.994   3.950  0.2384 -0.1199  0.1410
19943W        W35560  11.439  13.402   2.382  0.4348  0.0296  0.1219
19944W        W35561  17.507  16.090  14.527 -0.0113 -0.0565  0.0053
19945W        W35562  12.890   7.668   2.748 -0.0985  0.0648 -0.3774
19946W        W35563   0.381  16.056  14.679 -0.0726 -0.5222  0.0356
19947W        W35564  17.855  13.709  12.415  0.1668 -0.1242  0.0702
19948W        W35565  16.665   8.244   0.881 -0.0030  0.0640 -0.2332
19949W        W35566   8.805   2.934   5.186 -0.0060 -0.4670 -0.3173
19950W        W35567   1.519   7.274  11.363 -0.0576  0.1060 -0.2422
19951W        W35568  11.875   3.476  11.081 -0.0879 -0.1960  0.0218
19952W        W35569   4.070   1.954   3.126  0.1261  0.1443 -0.0760
19953W        W35570   3.759  10.796  11.597 -0.1698  0.0162 -0.2495
19954W        W35571   7.053   6.069   1.256 -0.0375 -0.3216  0.3446
19955W        W35572   1.089  12.934  11.713  0.1207 -0.0487 -0.1112
19956W        W35573  16.961   4.608   1.295  0.1708 -0.0925 -0.1497
19957W        W35574   0.433   4.142   4.376  0.2450 -0.3400  0.0285
19958W        W35575   4.081   7.478  12.919 -0.0730 -0.2448 -0.1636
19959W        W35576   0.063  15.747   0.373 -0.0079  0.3008 -0.2792
19960W        W35577  18.557  13.050  11.357 -0.0032 -0.2732 -0.1224
19961W        W35578   0.353  16.773   5.550  0.1897  0.2138  0.0387
19962W        W35579  14.734  18.011   5.328  0.1636  0.2630 -0.0854
19963W        W35580   4.873  18.504   0.204 -0.0022 -0.1614  0.1718
19964W        W35581  17.075   0.536   1.948 -0.2775 -0.2025 -0.1177
19965W        W35582  18.096  15.696  11.669  0.1441 -0.0757 -0.0470
19966W        W35583  14.293   9.732  12.547 -0.1013 -0.0172  0.2157
19967W        W35584  12.707  13.208   2.531  0.1900  0.1011  0.0316
19968W        W35585   5.594   8.286  11.543 -0.1976 -0.0915  0.0871
19969W        W35586   6.880   1.044  14.285  0.1800 -0.0538 -0.0470
19970W        W35587  16.318   4.329  12.838 -0.1251 -0.1714  0.1175
19971W        W35588  15.917  17.647   5.642 -0.0297  0.2077 -0.1421
19972W        W35589   9.440   0.779  15.487  0.0335  0.0818  0.1069
19973W        W35590  12.341   6.362   3.824 -0.1679 -0.1149  0.1295
19974W        W35591  17.498  13.048  10.723  0.4620 -0.3652 -0.0112
19975W        W35592   9.916   2.052   1.918 -0.0821  0.1197  0.0117
19976W        W35593   6.847   1.173  11.433  0.2285  0.2325 -0.3506
19977W        W35594   9.178   8.902   0.396 -0.0915  0.2057  0.1561
19978W        W35595  16.209  17.003   6.366  0.2327 -0.1215 -0.2244
19979W        W35596   0.443  10.990   5.532 -0.2204  0.1093 -0.3456
19980W        W35597   0.984  18.026   4.620  0.1013  0.1984  0.1073
19981W        W35598  13.009  10.033   1.306 -0.0336 -0.0485  0.2391
19982W        W35599  10.615  13.974   3.926  0.0140 -0.0661 -0.2144
19983W        W35600   4.362   7.460  12.419 -0.0652 -0.4529  0.2691
19984W        W35601   0.957   7.407  12.874 -0.0384  0.0008  0.2685
19985W        W35602  11.198  18.044   4.530 -0.0312  0.1542 -0.1028
19986W        W35603   7.046   2.696   0.556 -0.0355  0.0799  0.0361
19987W        W35604   0.634  15.015   1.434  0.2144  0.0906  0.1555
19988W        W35605   6.308  14.240   1.945  0.0026 -0.0043  0.1796
19989W        W35606  18.410  12.058   4.388  0.0119 -0.0347 -0.2390
19990W        W35607   3.508  13.810  10.576 -0.0674 -0.2458  0.2431
19991W        W35608   1.085   2.066  12.098 -0.0678  0.2170  0.1026
19992W        W35609   6.741   1.914  13.892 -0.2967  0.0914 -0.2278
19993W        W35610   1.508  10.351  12.660  0.0466 -0.0004 -0.0186
19994W        W35611   0.353   4.452   2.071 -0.1429 -0.0616 -0.3571
19995W        W35612   4.474   1.435   2.852 -0.1461  0.0861  0.0550
19996W        W35613  12.195   6.070   1.072  0.1538  0.1161  0.0177
19997W        W35614   2.028   0.981   3.529  0.0415 -0.2850  0.3248
19998W        W35615   7.958  18.131  14.666 -0.1302  0.0526 -0.0154
19999W        W35616   9.555  13.360   1.668 -0.1078 -0.3739 -0.0593
20000W        W35617   3.392   4.896   4.870  0.0167  0.0732  0.0997
20001W        W35618  16.487  11.475   0.133 -0.0801 -0.2796 -0.2327
20002W        W35619  16.596  17.718   3.474  0.0289 -0.1730 -0.1681
20003W        W35620  13.190   8.479   5.715 -0.1214  0.2279 -0.2456
20004W        W35621   9.188  13.234  14.665  0.0882 -0.1062  0.1108
20005W        W35622   1.269   9.227  14.828  0.1543 -0.1132  0.2342
20006W        W35623   9.558  18.226  12.088 -0.3733  0.3615  0.0096
20007W        W35624  14.883  17.284  11.083  0.2229 -0.1081 -0.1372
20008W        W35625  10.211   1.596  13.785  0.0180 -0.3473  0.2537
20009W        W35626  14.176  15.764  14.591 -0.1381 -0.0100 -0.3111
20010W        W35627  14.870  17.559  14.500  0.5766 -0.1157  0.6120
20011W        W35628   8.760   9.118   2.814 -0.0643 -0.1568 -0.0580
20012W        W35629  14.849  11.942  12.010 -0.4431 -0.0276  0.1333
20013W        W35630  12.653  14.638   0.337  0.0179 -0.5239  0.2361
20014W        W35631  18.653   3.035  10.653 -0.1050  0.3260  0.0704
20015W        W35632  10.018  18.646  11.342 -0.2066 -0.2453 -0.1657
20016W        W35633   6.716  14.043   0.031 -0.1217  0.1371  0.0707
20017W        W35634   9.307   0.414   6.246 -0.0190  0.1050  0.2838
20018W        W35635  10.837   8.112   3.949 -0.0014 -0.2070 -0.1027
20019W        W35636  12.688  15.313   2.295 -0.0452  0.0645  0.2945
20020W        W35637   7.916  17.067  14.469 -0.0813 -0.3258 -0.0491
20021W        W35638   1.901   5.919   2.189 -0.0629 -0.6035  0.1184
20022W        W35639   4.606   2.447   0.280  0.0538  0.0995 -0.1763
20023W        W35640   3.796   1.084  13.325 -0.1166  0.3482 -0.0820
20024W        W35641   9.090   3.960   5.017 -0.0980  0.0348 -0.0144
20025W        W35642  16.255  10.514  14.085  0.3137  0.1421 -0.0539
20026W        W35643   5.781   2.756   1.480 -0.1760  0.3391  0.1908
20027W        W35644   3.291   0.331   0.580  0.1450  0.3356 -0.1270
20028W        W35645   2.809   4.939  14.742 -0.0948  0.0245 -0.4042
20029W        W35646   3.357   8.804  11.203 -0.3768 -0.0886  0.0889
20030W        W35647   5.458   6.198  12.818 -0.0791 -0.0919  0.1610
20031W        W35648   0.033  16.458   5.058 -0.0462 -0.1439  0.0069
20032W        W35649  16.365   3.342  13.282 -0.2416  0.1429  0.2579
20033W        W35650  14.909   2.332   2.120  0.1030  0.2205  0.3695
20034W        W35651   6.724  18.648   0.869  0.1047  0.0332  0.2345
20035W        W35652  17.368   3.104  13.271  0.0440 -0.1617 -0.2121
20036W        W35653   0.968   7.862   5.069  0.1736  0.1190 -0.1142
20037W        W35654   5.471   9.181  13.616  0.1145 -0.2721  0.3760
20038W        W35655  12.782  17.227  13.923 -0.1555 -0.1043 -0.0896
20039W        W35656   8.760   2.168   4.445 -0.0958 -0.1571  0.0280
20040W        W35657   2.946   3.393   3.450 -0.3032 -0.0020  0.4227
20041W        W35658  17.831  17.309  14.902  0.0629  0.0135  0.0225
20042W        W35659   8.904   4.058  15.055  0.1824 -0.3007  0.3517
20043W        W35660  17.079  18.390  11.576 -0.0547 -0.1032 -0.3509
20044W        W35661  14.809   2.257   3.602  0.1335  0.0510 -0.0370
20045W        W35662   7.782   4.899   4.634  0.1040  0.1175 -0.1136
20046W        W35663   8.911   2.088  13.151 -0.0283 -0.1765 -0.0777
20047W        W35664   3.192  11.254   4.299 -0.2390 -0.0268 -0.1027
20048W        W35665  15.285   7.859  11.760 -0.1421 -0.0967 -0.0681
20049W        W35666   8.798  15.671  10.281 -0.0272 -0.1618  0.1203
20050W        W35667  13.918   9.616   3.536 -0.3552 -0.3245 -0.1837
20051W        W35668   4.894   3.309   3.535  0.0892 -0.1662 -0.0123
20052W        W35669   5.037   2.086   3.413 -0.0086 -0.0907  0.2810
20053W        W35670  16.297   5.793  14.566  0.0748 -0.0520  0.0523
20054W        W35671  15.468  13.097   1.809 -0.2550  0.0389 -0.0456
20055W        W35672   2.523   4.412  13.319  0.2039 -0.2172 -0.1559
20056W        W35673   8.225   3.155  14.183  0.3000  0.0196  0.0248
20057W        W35674   1.920   1.402   5.094 -0.1313 -0.1650  0.0992
20058W        W35675   4.184  10.281   3.480  0.2059  0.3199  0.0125
20059W        W35676  17.825  12.172   1.143  0.0250  0.0874 -0.1495
20060W        W35677   2.113   5.121  12.989 -0.1670  0.0263 -0.1532
20061W        W35678   2.856   9.699  12.522 -0.0645 -0.1698  0.1166
20062W        W35679   6.123   7.461  13.162  0.0296  0.1068 -0.0519
20063W        W35680  14.898   0.924  13.881 -0.5220  0.1029 -0.2640
20064W        W35681  13.517  10.536  15.123  0.0796  0.2041 -0.4694
20065W        W35682   7.602  15.315  11.414 -0.3027  0.1317 -0.0513
20066W        W35683   3.055   9.402   1.101  0.3250 -0.2542  0.3250
20067W        W35684   4.271  11.727  10.655 -0.1653  0.2491  0.0365
20068W        W35685  15.685  12.842  13.962  0.1636 -0.2270  0.3792
20069W        W35686   8.753  15.990   4.262  0.1296  0.0295 -0.0395
20070W        W35687  14.991  14.275   1.520 -0.2676 -0.2638  0.0061
20071W        W35688   8.719  13.350  13.876 -0.2451  0.0696 -0.1029
20072W        W35689   4.630   6.558  10.943  0.2286  0.1085 -0.0337
20073W        W35690   1.708  14.025   4.351 -0.1433 -0.0254  0.1738
20074W        W35691   0.706   9.641  13.370  0.1744 -0.1066 -0.2558
20075W        W35692  10.800   7.911   2.743  0.3765  0.1154  0.1008
20076W        W35693  11.310   1.843   2.338 -0.3264 -0.1877 -0.1028
20077W        W35694  17.067   1.376  13.383 -0.0797  0.3711 -0.2654
20078W        W35695   3.242  10.421   1.831  0.1945 -0.2316 -0.1134
20079W        W35696   7.844  18.364  13.453  0.2363 -0.0797 -0.0459
20080W        W35697  12.480   3.831   2.106  0.1474 -0.2473 -0.3291
20081W        W35698  12.350  15.059   2.605  0.1883  0.3828  0.0444
20082W        W35699   6.513   0.134   2.584  0.0522  0.3222  0.0573
20083W        W35700  14.454  10.497   4.019  0.3380 -0.1530  0.0717
20084W        W35701  15.471   3.346   3.354 -0.0966 -0.0008 -0.1264
20085W        W35702  12.707   8.681  15.260 -0.1254 -0.3087  0.1765
20086W        W35703   2.383  10.241  15.215 -0.1410  0.2431  0.1014
20087W        W35704  18.518  13.802  13.963  0.1536  0.1861 -0.1774
20088W        W35705   0.801   2.759  13.249  0.0603 -0.1049  0.1295
20089W        W35706   7.817  14.847  11.358  0.0080 -0.1875 -0.0640
20090W        W35707   6.254  15.132   4.950  0.2142  0.2805  0.0561
20091W        W35708  15.083   1.473   2.594 -0.2193  0.1104 -0.0287
20092W        W35709   8.840   3.911  13.162  0.2131 -0.0858  0.0377
20093W        W35710  13.153  15.592   4.643 -0.1305  0.1642  0.3267
20094W        W35711  14.237  13.987   0.968 -0.3061 -0.1554  0.0454
20095W        W35712   2.577  13.962  13.970  0.3711 -0.2305 -0.0788
20096W        W35713  13.501   4.316  14.188  0.1138  0.1128  0.0604
20097W        W35714  13.957  10.329   2.933 -0.0124  0.0126  0.2259
20098W        W35715   4.624  11.702   0.441 -0.3643  0.3291  0.1889
20099W        W35716   2.361   4.237  12.750  0.2542  0.0557  0.3184
20100W        W35717  11.542  11.998  10.956 -0.0975 -0.0740  0.1033
20101W        W35718  12.948   5.315  13.432 -0.1054  0.0569 -0.0431
20102W        W35719  17.277   6.312  12.229  0.2665  0.0809 -0.0599
20103W        W35720   7.316  14.647   1.958  0.1481  0.2802 -0.2501
20104W        W35721   8.805   4.826   0.409  0.2092  0.0034 -0.0033
20105W        W35722   4.957   6.699   1.235  0.1574  0.1373 -0.4634
20106W        W35723   6.526   4.306  11.750 -0.0676 -0.1086 -0.2703
20107W        W35724  11.596  12.069   1.322  0.0931  0.1609 -0.2660
20108W        W35725   1.260   4.444   1.954  0.0030  0.3099 -0.0459
20109W        W35726   3.392   9.878  13.181  0.1760  0.3043  0.0144
20110W        W35727   1.971   7.353   3.195 -0.0008  0.1292 -0.0377
20111W        W35728  17.692   4.603   4.591  0.1440 -0.0249 -0.2048
20112W        W35729   1.004   2.555   0.480 -0.0983 -0.3311 -0.2289
20113W        W35730   5.617  10.139  13.366  0.1211  0.4302 -0.1821
20114W        W35731   0.894  18.427  15.673 -0.0722 -0.2626 -0.0778
20115W        W35732  10.260   3.507   0.546 -0.0939  0.0910 -0.1022
20116W        W35733  10.952   1.273  15.532  0.2998  0.2880 -0.2926
20117W        W35734   9.465   9.154  13.130 -0.0286  0.1762  0.0760
20118W        W35735   1.281   1.377   2.419  0.0332  0.0914 -0.1091
20119W        W35736  16.565  11.809   2.091  0.0268 -0.0923  0.0632
20120W        W35737  10.879   9.979  14.705 -0.2897 -0.2238 -0.1505
20121W        W35738   5.982   1.745  13.227 -0.0115  0.1283  0.0790
20122W        W35739  14.791  12.054   0.629  0.2484  0.0275  0.0146
20123W        W35740  14.268  13.926   1.723 -0.3761  0.1915  0.2277
20124W        W35741  18.339  18.442   0.099  0.0916  0.0151  0.0420
20125W        W35742   7.219   2.627  11.042  0.0561  0.1513 -0.2243
20126W        W35743   3.204  10.136  15.601  0.1951 -0.1270  0.1009
20127W        W35744   4.263  14.378   2.864  0.0896  0.2524  0.0380
20128W        W35745   0.928  12.186   3.203 -0.1305 -0.2144 -0.0452
20129W        W35746  11.792  10.422  13.962  0.4523 -0.0237 -0.4121
20130W        W35747   7.786   1.821  13.852  0.1005 -0.1105 -0.2411
20131W        W35748  17.990  16.045  11.296  0.0958 -0.1752  0.2159
20132W        W35749   4.364   9.476   1.894 -0.0012  0.1104  0.1875
20133W        W35750  18.011  12.764   2.578 -0.3536  0.2388  0.1491
20134W        W35751   3.672  17.813  12.118  0.1571 -0.1814 -0.2128
20135W        W35752  18.459   3.083   3.912  0.2130  0.1544 -0.1058
20136W        W35753  10.797   0.855  13.343  0.2858  0.0680  0.0004
20137W        W35754  14.922  10.463   4.271 -0.0708  0.1523 -0.0825
20138W        W35755   6.520  10.681   3.846  0.0262  0.0617 -0.2659
20139W        W35756   7.199  18.117  15.008 -0.1366  0.0995  0.2759
20140W        W35757  13.569  11.330  13.146  0.1980  0.0993  0.1359
20141W        W35758   0.874  17.909  13.068 -0.0382 -0.0544 -0.2213
20142W        W35759   9.511   4.496  14.427 -0.0200  0.0177  0.1911
20143W        W35760  17.835   5.417  10.880  0.3024 -0.2186  0.0296
20144W        W35761   9.473  11.812  11.788 -0.0409  0.1067  0.1238
20145W        W35762  12.428   4.505   1.147 -0.1673  0.1016 -0.0617
20146W        W35763   2.609   7.184  14.347 -0.1192 -0.1604  0.0494
20147W        W35764  13.452   4.390  12.803  0.3583 -0.2967 -0.0878
20148W        W35765  14.168  11.522   3.227  0.0728 -0.1116 -0.1036
20149W        W35766  15.650  17.848   3.232  0.0098  0.0523  0.0523
20150W        W35767  16.789  13.323   1.345  0.1442 -0.1185  0.3397
20151W        W35768   2.063   3.792  15.518 -0.2212  0.0048 -0.1678
20152W        W35769   8.317  18.082  11.055 -0.1837  0.1016 -0.1995
20153W        W35770   2.406   5.957  13.635 -0.1698 -0.1753  0.2488
20154W        W35771  18.094  14.071   1.172 -0.1610  0.1383 -0.0063
20155W        W35772   5.732  18.523  11.526 -0.0696  0.1422 -0.0628
20156W        W35773   6.663   0.543   1.450  0.0531 -0.1925  0.2187
20157W        W35774  12.972   3.524  11.090  0.1249 -0.0368 -0.0404
20158W        W35775  13.207  13.258   0.768 -0.0196  0.1932  0.3195
20159W        W35776   3.244   6.451   1.266  0.2904 -0.1527 -0.2472
20160W        W35777   2.366   6.315  14.595 -0.0620  0.1608 -0.0489
20161W        W35778  18.332  13.937   2.608 -0.0678 -0.0334 -0.1121
20162W        W35779   2.629   9.733   5.212  0.2316 -0.1963 -0.2295
20163W        W35780   6.681  15.861  13.423 -0.1028 -0.2011  0.3347
20164W        W35781  17.100   8.640   4.750 -0.1244 -0.0568  0.2832
20165W        W35782  15.693   8.462  14.188  0.0395 -0.2054 -0.0576
20166W        W35783   7.792  12.002  11.971 -0.0087 -0.1793  0.3099
20167W        W35784  15.572  12.430  15.708 -0.0727  0.0652 -0.0486
20168W        W35785  17.935   5.415  11.611  0.0710 -0.1295  0.3410
20169W        W35786  11.069  13.816   0.161 -0.3279 -0.4980 -0.0108
20170W        W35787  12.639  10.078   0.486  0.0810  0.0969 -0.1291
20171W        W35788  18.274   5.997  12.266  0.0467  0.1970  0.3312
20172W        W35789  14.562  16.586   4.349  0.1481  0.2307  0.0025
20173W        W35790  10.280  15.111  14.218  0.4471 -0.1497 -0.0847
20174W        W35791   0.309   9.318   0.424 -0.2275 -0.0289  0.0228
20175W        W35792  17.542   3.347   4.972  0.0256 -0.1050 -0.0681
20176W        W35793   5.778   5.112  14.599 -0.2939 -0.1593  0.2609
20177W        W35794  11.957   3.131   3.879  0.1661 -0.3408  0.2617
20178W        W35795   5.208   6.471   6.023  0.1567  0.0165 -0.2220
20179W        W35796   3.150  12.426   1.563 -0.0025  0.2939 -0.2214
20180W        W35797   5.236  11.506  10.870 -0.0155 -0.0266  0.2991
20181W        W35798   3.811   6.456  11.767 -0.1237  0.0084 -0.2341
20182W        W35799   4.809   5.153  12.193 -0.1083  0.2048  0.1247
20183W        W35800   8.658   4.063  14.073  0.1547 -0.2121  0.3943
20184W        W35801   6.305  11.298   0.072  0.0415 -0.1492  0.1070
20185W        W35802   5.726  15.989   1.344 -0.2207  0.0686  0.0207
20186W        W35803  14.632  11.021  14.209 -0.0380 -0.0681 -0.1093
20187W        W35804  13.463   6.563   0.084  0.0799  0.1173  0.0157
20188W        W35805  11.204   0.755   4.587 -0.1373  0.2454  0.3189
20189W        W35806   5.370  12.540  11.739  0.1167 -0.0043  0.1478
20190W        W35807  10.846   3.457  12.389  0.0216 -0.0740  0.2224
20191W        W35808   5.143   8.146  11.662  0.1513 -0.1014 -0.0386
20192W        W35809  11.191  14.365   3.969 -0.0240  0.2999  0.0238
20193W        W35810   5.105   5.061   2.309  0.1841 -0.1056  0.0423
20194W        W35811   9.521   9.884   4.801  0.1596  0.3464 -0.2120
20195W        W35812   6.126  15.154   3.022 -0.2424 -0.1349 -0.1455
20196W        W35813   9.639   4.885   0.986  0.2799 -0.2855  0.1651
20197W        W35814  10.808  12.268   5.144  0.1221 -0.0321  0.0379
20198W        W35815   4.796   5.435   4.537  0.0203 -0.0983  0.1156
20199W        W35816  13.772   4.731  11.949  0.1006 -0.0801  0.0516
20200W        W35817   4.690   5.153   4.935  0.1403 -0.0314 -0.2078
20201W        W35818   5.540  16.744   2.194  0.1560 -0.3153 -0.0213
20202W        W35819   7.625  15.008   0.489  0.1915  0.0415  0.2869
20203W        W35820   8.768   9.561   3.066  0.0509 -0.0455  0.0196
20204W        W35821   6.401  11.869  10.712 -0.2330 -0.1138 -0.0779
20205W        W35822   6.908  14.784   1.134 -0.0437 -0.0467  0.1837
20206W        W35823  11.883  11.368   2.712 -0.3056  0.0253  0.4049
20207W        W35824   5.211   2.207   1.931  0.1470 -0.1158  0.4203
20208W        W35825  14.716  12.949   3.860 -0.2220 -0.1218  0.0374
20209W        W35826   7.592  10.321  11.305 -0.1189 -0.1379 -0.0972
20210W        W35827   4.059   2.524  11.944  0.3223  0.0998 -0.1672
20211W        W35828   3.598   8.543   2.728 -0.0468  0.0348 -0.1295
20212W        W35829   1.347  18.075   0.818  0.3788  0.4530  0.1150
20213W        W35830  14.109  12.550  10.432  0.3343  0.2405  0.0195
20214W        W35831  14.686   1.209   1.264 -0.1794  0.1730  0.0570
20215W        W35832  14.154  12.529  14.807 -0.3063 -0.0291  0.0414
20216W        W35833  11.412   4.854   3.444  0.3631 -0.1481 -0.2554
20217W        W35834  18.131  13.153  12.405 -0.0929 -0.0250  0.0316
20218W        W35835   8.194   0.819   5.317  0.0591  0.2314 -0.2173
20219W        W35836   7.884   3.114  13.024 -0.2005  0.0810 -0.2934
20220W        W35837  18.412   1.560  11.336 -0.1581 -0.0129 -0.0014
20221W        W35838   9.594   3.845  11.417  0.1097  0.0159 -0.0577
20222W        W35839  12.786  11.783  14.836 -0.1807  0.0056 -0.2683
20223W        W35840   4.513   6.431   1.183  0.0678  0.3096 -0.2327
20224W        W35841   2.494  13.054   3.064 -0.1966  0.2993 -0.0525
20225W        W35842  13.130  14.398   2.236  0.1971 -0.0423 -0.0370
20226W        W35843  13.434  18.343   3.365 -0.1084  0.5520  0.0358
20227W        W35844   2.666  12.408   4.283 -0.0963 -0.0235  0.2047
20228W        W35845   5.749  10.011  11.580  0.0667  0.2947 -0.2457
20229W        W35846   6.991   9.033  15.745  0.0884  0.1007 -0.3808
20230W        W35847   6.894   3.999   2.884 -0.3543 -0.0590 -0.0491
20231W        W35848   9.977   0.510  14.992  0.1878 -0.2355  0.0917
20232W        W35849  14.409   9.083   2.596  0.2115 -0.1957 -0.1606
20233W        W35850   7.944   3.029   5.918 -0.4190 -0.1867  0.1885
20234W        W35851   5.532   2.436  11.924 -0.0901  0.2006  0.2184
20235W        W35852  15.705   4.316  13.519 -0.0845 -0.1169  0.0781
20236W        W35853  14.198  14.689   4.709 -0.0991 -0.1007 -0.1097
20237W        W35854   6.019  15.876  12.855 -0.1018  0.2431  0.0627
20238W        W35855   7.830  14.800  10.380  0.0772  0.2350  0.0546
20239W        W35856  15.604   6.715  15.292  0.3357 -0.0811 -0.1649
20240W        W35857  10.433   6.566   5.654 -0.1986 -0.0119  0.0703
20241W        W35858  16.371  18.000  13.136  0.1197 -0.2644 -0.1896
20242W        W35859   7.097  15.556  11.121 -0.0506  0.1574  0.0317
20243W        W35860   5.388  16.218  13.502 -0.1480 -0.1408  0.0624
20244W        W35861   3.897  10.711   0.838  0.0382 -0.1917  0.0563
20245W        W35862  15.728   0.735   4.060  0.0047  0.1539 -0.0517
20246W        W35863   9.191  11.893  13.497 -0.3033  0.2779  0.1671
20247W        W35864   5.575   0.464  13.569 -0.1148 -0.1825  0.0289
20248W        W35865  12.783   7.981  15.760  0.3072 -0.0884  0.0454
20249W        W35866  13.104  16.386   3.883  0.0979 -0.3912 -0.0789
20250W        W35867   6.275   9.530   1.172 -0.2186 -0.0723  0.3588
20251W        W35868  17.197   4.580  11.683  0.3648 -0.1273  0.1701
20252W        W35869  12.965  12.320   0.832  0.0207 -0.1593  0.0149
20253W        W35870   0.381  16.177  15.185 -0.0834  0.1074  0.2950
20254W        W35871  12.781   4.052   3.171  0.1990 -0.1216 -0.1068
20255W        W35872  16.110   5.868  12.643  0.0099 -0.0519  0.0153
20256W        W35873  11.326   8.775   2.640 -0.4237 -0.0532 -0.4103
20257W        W35874  10.298  10.199  13.827  0.0173 -0.3752  0.2705
20258W        W35875   5.365   7.443  12.043  0.0698 -0.1947 -0.0195
20259W        W35876  11.093   1.449   3.181 -0.0656  0.1819 -0.1477
20260W        W35877   6.153   2.486   0.121 -0.1266 -0.0366 -0.1964
20261W        W35878   6.340   1.918  11.547  0.2297  0.1479 -0.2579
20262W        W35879   1.533   0.117   4.642 -0.1617 -0.0899 -0.1144
20263W        W35880   5.005  16.567   0.687  0.3579 -0.0451 -0.1652
20264W        W35881  10.995   0.653   4.119  0.2353  0.0895  0.1992
20265W        W35882  17.680  16.618  15.766  0.0530  0.0083  0.1294
20266W        W35883  11.786   9.553  14.483  0.1224 -0.1484 -0.3214
20267W        W35884  18.628   6.739  12.858 -0.2695 -0.0390  0.2614
20268W        W35885  16.805   1.196   3.287  0.3346  0.4096  0.0059
20269W        W35886  10.061   3.934   3.081 -0.0579  0.0455  0.3480
20270W        W35887   0.225   6.855  15.276 -0.0994  0.0113 -0.0919
20271W        W35888   2.162   7.042  11.840  0.1602 -0.1227  0.0695
20272W        W35889  16.207  10.116  11.532  0.1127  0.0311  0.1773
20273W        W35890   2.082  11.926  11.827  0.4080  0.0043  0.2554
20274W        W35891   8.457   8.782   3.811  0.1039  0.1724 -0.0502
20275W        W35892   9.236  15.937  15.330 -0.0533  0.3305 -0.0222
20276W        W35893  10.361   7.795  12.451  0.1126 -0.1321  0.3971
20277W        W35894   0.871  10.432  10.497  0.0883  0.1137  0.3472
20278W        W35895  11.917   7.415  14.787  0.0429 -0.0561 -0.1453
20279W        W35896  11.189  13.966  15.389  0.0355 -0.0316  0.0377
20280W        W35897   1.259  18.067  15.783  0.1771 -0.1590  0.2566
20281W        W35898  16.211  11.982   2.408 -0.2787  0.0801 -0.0809
20282W        W35899   4.289  14.144  13.024  0.1361  0.0177 -0.0522
20283W        W35900  13.338  16.252  13.783 -0.2714 -0.1806  0.0346
20284W        W35901  17.410   4.495  10.774  0.2408  0.0590 -0.0516
20285W        W35902   1.002  17.457   3.233  0.1614 -0.1253  0.0789
20286W        W35903   0.805  16.061  14.312  0.4041 -0.1354  0.0389
20287W        W35904   5.464  12.499   0.537 -0.0942 -0.0370  0.3646
20288W        W35905  13.911   9.812  15.379  0.1019  0.0366 -0.2144
20289W        W35906   7.305  18.492  15.370  0.0945 -0.1742 -0.1339
20290W        W35907   7.953  10.110   4.838 -0.1286 -0.1275 -0.1087
20291W        W35908   1.415  10.304  13.238 -0.1053 -0.0347 -0.0595
20292W        W35909   6.178   5.761   9.831  0.2827 -0.0306 -0.1692
20293W        W35910   1.177   5.903   4.900  0.0150  0.3188 -0.1013
20294W        W35911  13.525  15.150  13.774  0.0799 -0.1442  0.3311
20295W        W35912   0.604   8.249  12.035  0.1315 -0.2793  0.2453
20296W        W35913  18.455   7.668  12.437  0.3667  0.0832  0.1821
20297W        W35914   0.295  12.897  12.450 -0.0548 -0.0020 -0.0915
20298W        W35915   1.290   4.562  14.453 -0.1141  0.1434 -0.2405
20299W        W35916  14.004   9.893   1.618  0.0622 -0.0657 -0.1581
20300W        W35917   8.640   9.844   1.099 -0.2357  0.1513 -0.1233
20301W        W35918  10.564  10.460  10.624 -0.0226 -0.1112  0.3765
20302W        W35919   6.957  16.451   5.718  0.2424 -0.0494  0.0015
20303W        W35920   0.826   7.859  15.184  0.2008 -0.2579 -0.3287
20304W        W35921   2.152   9.517  10.904  0.0151 -0.1056  0.2224
20305W        W35922   1.271   2.207  14.464  0.0821 -0.1197 -0.1302
20306W        W35923  16.481  13.926   2.947  0.1102  0.2066 -0.2040
20307W        W35924   8.288   2.381  11.845 -0.2908 -0.0063  0.2327
20308W        W35925   3.214  17.204   3.059 -0.1983  0.0453 -0.0059
20309W        W35926   4.403  16.503  15.275  0.2286  0.4969 -0.3599
20310W        W35927  16.773  13.576  13.123 -0.3063 -0.1637 -0.0443
20311W        W35928  17.719  14.147   0.582 -0.1154  0.2195 -0.0372
20312W        W35929   7.393  11.933  15.391  0.0980 -0.1331 -0.1045
20313W        W35930   3.573   4.044   3.949 -0.3059  0.0618  0.1567
20314W        W35931   5.837  12.434   1.234  0.1565 -0.1294 -0.2201
20315W        W35932   7.727   2.370  12.286 -0.2452 -0.0109 -0.3792
20316W        W35933   6.863   0.979   2.775 -0.1556  0.0072  0.0399
20317W        W35934   5.687   4.923   1.896 -0.0764 -0.3047 -0.4538
20318W        W35935  13.954  17.395   5.167  0.0114 -0.0120 -0.0331
20319W        W35936  17.329  10.991   2.238  0.2000  0.1621 -0.0921
20320W        W35937  12.499   2.554  12.567  0.0379 -0.0698 -0.1131
20321W        W35938  17.488  16.453   5.727 -0.2233 -0.4128  0.0561
20322W        W35939   3.643   7.444   1.217 -0.1123  0.3135 -0.3094
20323W        W35940   7.969  10.840  14.902  0.0133  0.5337 -0.1573
20324W        W35941   8.739  18.082  14.909  0.2128  0.0211  0.0234
20325W        W35942   4.201  17.314  11.307 -0.3501 -0.0136 -0.0638
20326W        W35943   5.289  12.561  14.675  0.0117  0.1973  0.0236
20327W        W35944  17.676   9.098   2.806  0.1999  0.0222  0.0271
20328W        W35945  10.984  17.552   3.272  0.0357 -0.0250 -0.1802
20329W        W35946   4.036   0.897  11.035 -0.1286  0.1095  0.1711
20330W        W35947   2.053  13.505  10.956  0.0750 -0.2531  0.2928
20331W        W35948  10.337  14.281   0.741 -0.2569 -0.3162  0.0604
20332W        W35949   7.704  16.046   0.307  0.1799 -0.2584 -0.4446
20333W        W35950  12.592   0.753  13.115  0.1335  0.1092 -0.0334
20334W        W35951   9.669   3.421   6.090 -0.0640  0.2673  0.2135
20335W        W35952   4.911  11.285  11.738  0.0584 -0.0382 -0.0233
20336W        W35953   0.318  15.434   4.430 -0.1052  0.0145  0.0449
20337W        W35954  13.049   3.695   4.068 -0.0204  0.2711  0.2834
20338W        W35955  15.193   3.906   1.005  0.0562 -0.0333 -0.1667
20339W        W35956   8.687   8.396  13.397  0.2054 -0.1981 -0.1737
20340W        W35957   9.302   4.176  12.467 -0.1421 -0.0407 -0.3209
20341W        W35958   4.556   8.760   3.559  0.3543 -0.3929 -0.1557
20342W        W35959   6.619  17.485  15.649  0.0749 -0.0967 -0.1245
20343W        W35960   3.358   3.474   5.602 -0.1303  0.1182 -0.1232
20344W        W35961   5.319  18.245  11.168  0.0403 -0.2126  0.0549
20345W        W35962   2.936   3.026  12.955  0.0732 -0.2064  0.2328
20346W        W35963   6.653   9.312   3.841 -0.2829  0.2910 -0.0733
20347W        W35964   3.257   0.862   2.742 -0.0269  0.0779 -0.5124
20348W        W35965  12.103   0.168   2.190  0.0053  0.0030  0.1103
20349W        W35966  18.571   5.868  13.750 -0.1508  0.1440 -0.1264
20350W        W35967   1.508   6.200  15.204  0.2867  0.2039 -0.0085
20351W        W35968   7.191   5.541  12.667  0.2641  0.4127 -0.0375
20352W        W35969   7.846  11.927   4.043  0.0422  0.0783 -0.1005
20353W        W35970  15.374  14.573  12.664  0.3110 -0.1753 -0.1952
20354W        W35971  13.501  14.191  14.228 -0.2483 -0.1843 -0.2698
20355W        W35972   5.236  13.084   1.731 -0.0454 -0.0729 -0.1884
20356W        W35973  13.786   2.181   5.000 -0.2561 -0.0962  0.3189
20357W        W35974   5.109  14.579   4.604  0.0980  0.2283  0.1595
20358W        W35975  16.026  14.671  10.868  0.1519  0.1730  0.1305
20359W        W35976   4.996  15.441  12.006  0.0954  0.0496  0.1603
20360W        W35977   2.159  10.453   4.211  0.2039 -0.0050  0.1810
20361W        W35978   6.002  14.896  10.568 -0.1974 -0.0406 -0.1650
20362W        W35979  17.563   3.656  11.609  0.2082  0.1708  0.1908
20363W        W35980  16.334   4.662   2.045  0.0299 -0.2378  0.0044
20364W        W35981  16.465   0.730  13.043 -0.0441  0.0964  0.1117
20365W        W35982  18.332   9.927   0.550  0.1424 -0.0466 -0.0845
20366W        W35983   2.443   5.989   5.327 -0.0648 -0.4194  0.2552
20367W        W35984   3.583  15.048  14.091 -0.1852  0.1789 -0.0441
20368W        W35985  15.247  12.524  13.770 -0.0883 -0.0832 -0.0294
20369W        W35986   1.338   2.477  14.993  0.0301 -0.0960  0.4487
20370W        W35987  14.314   6.713  11.503  0.0368 -0.3583  0.0064
20371W        W35988   4.745  16.452  10.345  0.0806  0.1581  0.4077
20372W        W35989   0.801  13.479  12.780 -0.1625  0.1821  0.2308
20373W        W35990   9.258   3.089   6.319  0.2028 -0.1093  0.2318
20374W        W35991   0.914   5.160   1.061  0.0471 -0.0012  0.0329
20375W        W35992  12.696  11.143  12.791  0.1125 -0.1490  0.0618
20376W        W35993   1.568  17.154  14.044 -0.1963 -0.0904 -0.2281
20377W        W35994   4.630   6.310   2.627 -0.1477 -0.3149 -0.0361
20378W        W35995  11.222   2.213  14.013 -0.0902  0.0617 -0.1753
20379W        W35996   2.650   9.316  14.212 -0.1272 -0.1199  0.0657
20380W        W35997   0.498   9.134  15.773  0.3949 -0.1275  0.3744
20381W        W35998  16.506   7.704  12.501 -0.2496 -0.1673  0.1925
20382W        W35999   5.671   7.813   0.548  0.1263  0.0479 -0.0014
20383W        W36000  10.160   5.711   5.919 -0.1892  0.0405  0.4018
20384W        W36001  14.973  10.353   1.390  0.1712  0.1617 -0.1272
20385W        W36002   0.931  13.613   4.623  0.1197  0.1852 -0.0390
20386W        W36003   9.421  18.594  11.770 -0.1887  0.0384  0.3050
20387W        W36004  14.359  17.735  13.972 -0.2319  0.1230 -0.0406
20388W        W36005   0.466  13.372   5.400 -0.2712 -0.3223  0.1045
20389W        W36006  17.618  14.548  15.428  0.4581 -0.5359 -0.3559
20390W        W36007  15.240   9.196   4.915  0.1128  0.0236 -0.2855
20391W        W36008   4.675   3.867  10.449  0.0038 -0.2330 -0.3712
20392W        W36009  15.339   8.338   5.147 -0.1141  0.1075 -0.1948
20393W        W36010   1.935   9.030  15.649  0.1397 -0.1034  0.3079
20394W        W36011   9.074  11.402   3.053  0.1455  0.2279  0.1438
20395W        W36012  18.255   9.226  13.527  0.2276 -0.0598  0.0219
20396W        W36013  18.091  14.779   4.748  0.1107  0.2484  0.0910
20397W        W36014  14.323   3.812   3.583 -0.1815 -0.0789  0.1891
20398W        W36015  10.159  14.064   3.298  0.1298  0.0900 -0.1696
20399W        W36016   6.434  15.059   1.232  0.1630  0.2195 -0.0603
20400W        W36017   7.788   1.535   0.897  0.2000  0.0025  0.1106
20401W        W36018  14.436  10.425  13.124 -0.2763  0.1885 -0.1648
20402W        W36019   2.344  17.163   3.657 -0.0631 -0.1040  0.1199
20403W        W36020   1.265  15.431  15.011 -0.1867  0.1883 -0.4180
20404W        W36021   7.195   5.123  11.168 -0.0571 -0.0341  0.1240
20405W        W36022   6.226   4.428   5.551  0.0299  0.0224  0.0290
20406W        W36023   0.947   5.047   2.051  0.0201  0.0077 -0.3641
20407W        W36024   9.318  15.693   0.677 -0.0797  0.0709  0.0746
20408W        W36025  15.095  12.442  15.603  0.2618 -0.0364  0.1586
20409W        W36026   2.923   0.487   2.768  0.1762 -0.1031 -0.0981
20410W        W36027   8.343  16.770  10.691  0.1628 -0.1769 -0.3710
20411W        W36028   5.199  10.359   1.170  0.2247 -0.1035  0.3797
20412W        W36029  18.518  11.504   3.632 -0.1354 -0.2078 -0.2074
20413W        W36030   4.151  18.261   5.249  0.0453 -0.1425 -0.0540
20414W        W36031  18.230  14.185   0.086 -0.2761 -0.1303  0.1235
20415W        W36032  15.567   9.550   9.431  0.0084 -0.0559  0.0674
20416W        W36033  16.298  14.339   4.194  0.3071 -0.1378 -0.3039
20417W        W36034  10.047   1.692   0.967  0.1568 -0.2581  0.2190
20418W        W36035   7.651   6.080   5.133  0.0739  0.0336 -0.0504
20419W        W36036   4.634   2.629   2.592  0.1833 -0.1542  0.2448
20420W        W36037  16.129   0.074   3.871  0.1284 -0.0854 -0.0196
20421W        W36038   7.709  14.295  10.249 -0.0382 -0.0755 -0.1635
20422W        W36039   7.147  17.001   2.577 -0.0683 -0.0621 -0.2080
20423W        W36040   7.879  15.032  14.474  0.0420  0.1992 -0.2023
20424W        W36041  14.828   2.678   4.982  0.0030  0.0359  0.1559
20425W        W36042   8.577   9.347   1.119 -0.0078 -0.1627 -0.0108
20426W        W36043   0.187   2.787   0.637  0.2147 -0.0415  0.1322
20427W        W36044   1.890   5.263  14.603 -0.0696  0.1825 -0.2786
20428W        W36045   0.462  11.812  11.193  0.0637  0.0771  0.0350
20429W        W36046  11.992  11.890   2.941  0.0552  0.0816  0.0284
20430W        W36047  10.745   9.360  11.349  0.0390 -0.1502  0.1696
20431W        W36048  14.248  15.366  14.198 -0.1508 -0.0215 -0.0077
20432W        W36049  11.751   7.235  14.280  0.0179  0.3151 -0.2427
20433W        W36050   9.810   4.318   3.818 -0.1184 -0.3629  0.5115
20434W        W36051   8.008   0.189  15.790 -0.0073  0.1263  0.1236
20435W        W36052   1.863   2.392   1.589 -0.0939  0.0940 -0.1809
20436W        W36053   0.485   8.437   4.103  0.1305 -0.1574  0.2965
20437W        W36054  16.871   7.343  15.750 -0.2649  0.3633  0.1151
20438W        W36055  17.475   3.440   3.613 -0.0126 -0.0223 -0.1860
20439W        W36056  14.046  14.103   3.134  0.1704 -0.0819 -0.2646
20440W        W36057  15.334  15.360  11.100 -0.0998 -0.0542 -0.1346
20441W        W36058   6.482   2.332  14.119  0.0475  0.1113 -0.3466
20442W        W36059  10.321   4.135   0.268 -0.1229  0.2650 -0.1389
20443W        W36060   8.676  12.475  14.107  0.0897  0.3293  0.1395
20444W        W36061   8.539  10.831   2.842  0.2686  0.2789  0.1926
20445W        W36062   9.858   0.459   0.933 -0.1046  0.0008 -0.0195
20446W        W36063  18.476  14.873  15.343 -0.0502  0.0559  0.0361
20447W        W36064  14.253   2.331  13.744 -0.2916 -0.2959 -0.0611
20448W        W36065   1.438  11.072   4.158 -0.0171  0.0223  0.0647
20449W        W36066  14.732  16.836  13.306  0.0167 -0.3291 -0.1040
20450W        W36067   8.234   9.227   3.600  0.0828 -0.1153  0.0416
20451W        W36068  10.097  10.729   2.927  0.1525 -0.0240 -0.1899
20452W        W36069  14.891   0.575   2.602 -0.1378  0.2180 -0.0861
20453W        W36070   5.293  18.329   2.510  0.1219  0.0083 -0.2743
20454W        W36071   9.523   3.897   5.953 -0.1672 -0.2066 -0.0912
20455W        W36072   4.715   9.845  15.551  0.0070 -0.1260  0.0349
20456W        W36073   0.496   3.566   2.376  0.2214 -0.1634 -0.1179
20457W        W36074   6.079   9.729  13.394 -0.1137 -0.0554 -0.2252
20458W        W36075  10.676  12.618   4.002 -0.1079  0.1558  0.0832
20459W        W36076  17.572  10.350   4.378 -0.3972 -0.0741  0.0447
20460W        W36077   6.426   9.529  12.222  0.3502 -0.0907 -0.2607
20461W        W36078   8.970   8.917   1.350 -0.2701  0.0533  0.0442
20462W        W36079  11.675   0.092  15.419 -0.3659  0.1245  0.0724
20463W        W36080   2.901   4.834  12.559 -0.0353 -0.2368 -0.0322
20464W        W36081  12.566   8.778   4.183 -0.1084 -0.1669  0.2702
20465W        W36082   9.922   0.961  15.458  0.2453 -0.1010  0.3133
20466W        W36083   4.576  17.487   1.315  0.0684  0.1959 -0.1359
20467W        W36084  11.698  16.375  10.420 -0.2092  0.2665 -0.2288
20468W        W36085  12.863   4.100   0.027  0.0647  0.0078  0.0467
20469W        W36086  17.400   0.391   1.575 -0.2212  0.0176 -0.2719
20470W        W36087  11.747   7.876   5.397 -0.0841  0.0571  0.2467
20471W        W36088   5.128   3.656   5.394  0.0596  0.4153 -0.0813
20472W        W36089  15.520  18.215  14.154 -0.0168 -0.0496  0.2508
20473W        W36090  17.113  17.071   1.831 -0.0257 -0.6250  0.2169
20474W        W36091  11.822  13.262  11.376  0.3478  0.1042 -0.1885
20475W        W36092   3.138   0.795  15.341  0.3537  0.0601 -0.1561
20476W        W36093  17.968  10.509   0.833  0.3077  0.1846  0.0838
20477W        W36094   9.932  13.778   2.708 -0.0295  0.1101 -0.2937
20478W        W36095  14.895   9.905  14.624 -0.0071 -0.3851 -0.0430
20479W        W36096  12.324   6.231  10.973  0.1643  0.1116 -0.1771
20480W        W36097   3.609  18.256  11.928 -0.0931 -0.0514  0.1143
20481W        W36098  12.788  12.490   2.674  0.0151  0.2359  0.3468
20482W        W36099   4.638  18.098  15.788  0.2786 -0.0575 -0.2610
20483W        W36100  18.511   7.536  14.947 -0.0577 -0.1256 -0.1474
20484W        W36101   2.635   9.354  12.163 -0.1266 -0.3574  0.3483
20485W        W36102  13.972   8.553   0.589 -0.1858  0.0089 -0.0368
20486W        W36103  13.066  10.888   4.395  0.0501  0.1818  0.3646
20487W        W36104   4.209  12.116  13.478  0.0752 -0.0962  0.0874
20488W        W36105  18.327   5.070  15.576  0.3773 -0.1571  0.0635
20489W        W36106  14.811  13.360   5.612  0.1224  0.0697  0.5484
20490W        W36107  11.845   0.064   6.584 -0.3190 -0.3668  0.0544
20491W        W36108   4.079   3.107   2.076 -0.1160 -0.1550 -0.0224
20492W        W36109   6.542   8.945  15.551 -0.2433  0.1201  0.0370
20493W        W36110  10.312   9.185   1.204  0.2069  0.1778 -0.2189
20494W        W36111   7.302   9.770   0.747 -0.1691  0.0548  0.3425
20495W        W36112   3.418  17.264   0.184  0.2540  0.1422 -0.0892
20496W        W36113   8.994  14.840  15.643  0.0991  0.0992 -0.1953
20497W        W36114  10.177   8.150   4.075  0.0042  0.3427  0.1935
20498W        W36115   5.598   7.555   2.025 -0.1956 -0.2658 -0.2422
20499W        W36116  14.609   0.244  12.684 -0.0079  0.1943 -0.2385
20500W        W36117   3.793   1.665  15.191 -0.2044 -0.1026  0.0605
20501W        W36118   9.355   7.266   1.595 -0.0816  0.1067 -0.1425
20502W        W36119  15.504   7.095  14.003  0.2760 -0.1390 -0.1258
20503W        W36120  11.922   2.483   0.795 -0.2319 -0.0836  0.0097
20504W        W36121  16.089   4.450   3.781 -0.1980  0.3530 -0.6177
20505W        W36122   7.235   8.116  11.267  0.0146 -0.2960 -0.1310
20506W        W36123   5.126   2.982  12.686  0.1683  0.0009 -0.0353
20507W        W36124  11.164  18.560   2.603  0.2628 -0.0020 -0.1371
20508W        W36125  12.224   8.629  15.222 -0.0804  0.0632 -0.1340
20509W        W36126   2.695   7.603  14.033  0.1666 -0.2530 -0.0819
20510W        W36127  18.646  11.954   0.504  0.0114  0.2557  0.0067
20511W        W36128  13.961   2.495   2.116  0.0143 -0.1779 -0.2724
20512W        W36129   5.745   1.536   1.003 -0.1558 -0.1163 -0.2391
20513W        W36130   7.430   6.078  12.774 -0.1151 -0.2590  0.2209
20514W        W36131  13.234  15.977  14.247 -0.1097  0.0759 -0.0424
20515W        W36132  16.116  14.154   1.666 -0.3176  0.0120 -0.0676
20516W        W36133  11.436   8.788   5.224 -0.1231  0.1145 -0.0692
20517W        W36134   0.602  12.880  12.078 -0.0996  0.1713  0.1843
20518W        W36135  11.101  16.594   5.180 -0.0204 -0.0585 -0.2526
20519W        W36136   5.295  17.708  11.312 -0.2820 -0.5916 -0.0122
20520W        W36137  10.819   9.002   3.378 -0.1164  0.1274  0.0693
20521W        W36138   8.751   1.494   5.820 -0.2944  0.1046  0.3980
20522W        W36139   4.624   4.082   0.004 -0.2788 -0.3395 -0.1339
20523W        W36140   8.074   6.896   3.400  0.0583  0.0152 -0.1072
20524W        W36141  12.233  16.958  11.053 -0.1999 -0.4886  0.1006
20525W        W36142   5.057   1.268  12.647  0.0547  0.2915 -0.1894
20526W        W36143   5.629   4.605   4.673  0.0947  0.0991 -0.1005
20527W        W36144   8.346  18.210   1.356 -0.3963 -0.2012  0.1915
20528W        W36145  13.328  11.233  10.588  0.0182 -0.0627  0.0141
20529W        W36146   5.153   9.823  14.256  0.0856  0.3244 -0.0793
20530W        W36147  13.417  13.488   4.755 -0.1248 -0.1494  0.0856
20531W        W36148   4.353  16.270   4.928  0.4630  0.0435 -0.3096
20532W        W36149   0.257  18.572   4.617 -0.1561  0.1823  0.1139
20533W        W36150  14.726  10.756  12.465  0.1582 -0.1667 -0.0996
20534W        W36151   7.327  17.780   5.154 -0.2389 -0.1788  0.0566
20535W        W36152   3.601   6.468   4.965  0.2759  0.0011  0.2183
20536W        W36153  15.742   3.019   4.548 -0.2072  0.1616  0.0880
20537W        W36154   0.272   4.435   3.935 -0.1161 -0.0458  0.1007
20538W        W36155  11.772  13.357  10.263  0.3271  0.0768  0.0388
20539W        W36156  11.672  11.649   0.958  0.2230 -0.0566 -0.0668
20540W        W36157   7.557  18.310  13.853 -0.0635  0.0067  0.1419
20541W        W36158   0.246  17.593  13.630 -0.4159  0.0723 -0.0961
20542W        W36159  16.823  13.701  11.677 -0.0572  0.0181  0.0672
20543W        W36160  15.163  11.773  10.558 -0.0824 -0.1651 -0.3898
20544W        W36161   5.762   3.939  14.375 -0.3685  0.2989  0.1123
20545W        W36162  11.908   6.644  13.268  0.0316  0.3829 -0.0520
20546W        W36163  12.893   9.695   2.058 -0.2821  0.1278 -0.1031
20547W        W36164  11.548  14.305   0.988 -0.2704  0.0279 -0.0801
20548W        W36165  13.703   8.492  12.666 -0.0600 -0.0368  0.1547
20549W        W36166   4.450  12.456  13.109  0.0654  0.0608 -0.0354
20550W        W36167   2.626   2.987   5.012  0.0704 -0.1995 -0.3027
20551W        W36168  15.824   0.779   5.910 -0.0451  0.1645 -0.1435
20552W        W36169   7.033   3.018   1.016 -0.0679 -0.2868  0.0538
20553W        W36170   6.663   7.059  14.149 -0.1603 -0.0135  0.0765
20554W        W36171   8.684   4.789  12.986  0.0354 -0.0933  0.0082
20555W        W36172  12.973  15.112   4.826  0.0100  0.1187  0.0845
20556W        W36173   7.272  18.331   2.201 -0.0376 -0.2167 -0.0296
20557W        W36174   3.181   5.665  15.432 -0.0516 -0.0313  0.4091
20558W        W36175   8.999   8.293  15.259  0.1367 -0.1955  0.1819
20559W        W36176  14.097  10.817  10.709  0.1235  0.0310  0.1002
20560W        W36177   8.698   2.170   1.409 -0.0911 -0.0485  0.0384
20561W        W36178   4.016   7.290   4.586 -0.1767  0.0801 -0.0522
20562W        W36179  14.527   8.149   2.811 -0.1653  0.1316 -0.2057
20563W        W36180   5.890   5.631   0.607 -0.0975 -0.1896 -0.2193
20564W        W36181   8.422   7.564  15.036  0.1062 -0.0656  0.1707
20565W        W36182   1.176   6.503   5.493  0.0073  0.0500 -0.1623
20566W        W36183   5.786   5.324   5.438 -0.1187  0.0011 -0.0576
20567W        W36184  11.253  18.580   5.843 -0.3311 -0.0650 -0.0239
20568W        W36185   1.295   7.298  13.543 -0.1177  0.1659  0.2843
20569W        W36186   5.188  12.621  10.574 -0.0359 -0.5264 -0.1352
20570W        W36187   2.479   3.506   3.184 -0.0890 -0.1289  0.0072
20571W        W36188   0.658  10.268   5.499 -0.3326  0.2303  0.0676
20572W        W36189   2.434   6.621  12.521  0.2877 -0.1446  0.4431
20573W        W36190  10.523  11.236  13.490 -0.1030  0.0109  0.1390
20574W        W36191   1.351  18.245  11.569 -0.0182  0.2583 -0.2956
20575W        W36192  10.474  11.390  12.422  0.1446 -0.2130  0.0176
20576W        W36193  16.563   8.965  12.695 -0.0640 -0.2228 -0.1340
20577W        W36194   7.612   3.768  11.697  0.0436  0.0287 -0.2362
20578W        W36195  13.398   3.709  14.168  0.0039 -0.0604 -0.0058
20579W        W36196   0.141   4.862  12.749 -0.3127 -0.2250  0.1634
20580W        W36197   6.622   2.317   0.288  0.0771  0.0024  0.0675
20581W        W36198   1.664   7.858   0.639 -0.0084  0.2098 -0.0564
20582W        W36199   9.312  13.253  12.403 -0.0267  0.1012 -0.1218
20583W        W36200  14.993   3.036  11.585  0.3264  0.2114 -0.1963
20584W        W36201   1.777  16.690   0.965  0.1476 -0.1122  0.0781
20585W        W36202   1.622   2.527  11.506  0.3386  0.2270 -0.2761
20586W        W36203  18.419  10.848  12.464 -0.0378 -0.1366  0.0944
20587W        W36204   1.083   0.883  14.031  0.3808  0.3008  0.4050
20588W        W36205  13.492   1.257   0.895 -0.1741 -0.0480 -0.0842
20589W        W36206   4.318   4.660  12.960  0.2610 -0.0181  0.3599
20590W        W36207   4.615   0.260  13.480 -0.0038  0.2074  0.0288
20591W        W36208  11.315   6.672   2.411  0.1381 -0.1570 -0.2940
20592W        W36209  14.035   9.853  11.823  0.1089 -0.3386  0.0669
20593W        W36210  13.199   7.570   4.884  0.3363  0.2315  0.2637
20594W        W36211  13.875  15.656   0.336 -0.2011  0.0132 -0.0074
20595W        W36212   2.394   5.513   5.997  0.1962 -0.0597  0.1631
20596W        W36213   1.184   4.626  10.938  0.2407  0.2945  0.0868
20597W        W36214  17.788  13.963  10.724 -0.0017 -0.0418  0.0340
20598W        W36215   3.896  17.173   0.442 -0.0722  0.2778 -0.1043
20599W        W36216   7.283   0.173  10.862 -0.0879 -0.0930  0.0437
20600W        W36217   1.918   7.817   2.899 -0.0141 -0.3055 -0.2388
20601W        W36218   4.297   3.197   5.989  0.0512 -0.3791  0.3083
20602W        W36219   8.506   8.851  12.717 -0.0973  0.0719  0.0670
20603W        W36220  12.958  15.232  12.023 -0.0774 -0.0229  0.2038
20604W        W36221  11.498  12.880   4.680  0.0062 -0.0344 -0.0504
20605W        W36222  11.056   7.035   3.016  0.2665 -0.0436 -0.1538
20606W        W36223   0.850  11.386   1.269  0.1712 -0.2255  0.0589
20607W        W36224  17.317  12.128  10.726 -0.4867  0.1131  0.1165
20608W        W36225  17.441   5.641   3.636  0.3082  0.0791 -0.1351
20609W        W36226  15.126   9.623   4.668 -0.0844 -0.1113 -0.2303
20610W        W36227  13.695   8.694  11.220  0.0052  0.0327 -0.0679
20611W        W36228   4.945   7.157  15.366  0.0757  0.3085 -0.0464
20612W        W36229  14.949   1.007   4.683 -0.1975 -0.0807 -0.1100
20613W        W36230  13.924   4.357  11.444  0.1739 -0.5237 -0.0091
20614W        W36231   8.454  16.941  11.195 -0.3392  0.1164 -0.0344
20615W        W36232   0.334  18.440  11.459  0.0135 -0.5705 -0.0001
20616W        W36233  12.117  10.179  11.961 -0.1239  0.0436 -0.3802
20617W        W36234   5.474  12.676   2.788  0.0870  0.0653  0.0219
20618W        W36235  18.046  11.736  11.888 -0.2654 -0.3331  0.2926
20619W        W36236   8.142   8.808   0.506 -0.3026 -0.0445 -0.0463
20620W        W36237   5.611   4.896  13.863  0.2102 -0.0732  0.2176
20621W        W36238   7.179  10.575   4.260  0.3584 -0.1150 -0.3274
20622W        W36239  14.952   7.249  15.257 -0.1663  0.0541  0.0947
20623W        W36240  14.236   2.051  13.031  0.1196  0.0970  0.1550
20624W        W36241   2.625  13.508  14.369 -0.3470  0.2305 -0.0203
20625W        W36242   7.092   3.888   3.996  0.0474 -0.3963 -0.2063
20626W        W36243  12.484  15.544   2.789  0.1000 -0.0495  0.0949
20627W        W36244  15.193   2.490   0.462 -0.0350 -0.0106  0.0956
20628W        W36245   3.862  18.178  13.700 -0.1564  0.1201 -0.2250
20629W        W36246  12.878  12.590  14.806  0.0872  0.0773 -0.0855
20630W        W36247   0.983   1.056   2.702  0.0143 -0.0489  0.0365
20631W        W36248  14.483  16.202  11.703  0.0379  0.2161 -0.0310
20632W        W36249   1.423  15.210  11.541  0.3444  0.0265  0.2237
20633W        W36250  14.369   3.174   0.626  0.0464 -0.1465 -0.2792
20634W        W36251   0.005   9.550   0.812  0.2749  0.0344 -0.3386
20635W        W36252   5.227   1.137  11.209 -0.0136  0.0200  0.0242
20636W        W36253  14.330  17.124  11.751 -0.0646 -0.0228  0.2216
20637W        W36254   5.766  13.214   0.581 -0.0725 -0.1188  0.3218
20638W        W36255   2.032   1.046  14.967 -0.3613 -0.1335 -0.0980
20639W        W36256   2.321   9.117  13.403 -0.1664 -0.1230  0.1225
20640W        W36257  16.548   6.342  13.589 -0.3527  0.3102  0.0380
20641W        W36258  16.417  10.666  10.534  0.1888  0.0487 -0.0922
20642W        W36259  13.419   5.907  11.197  0.2260 -0.0820  0.2472
20643W        W36260   4.859   2.171  15.689 -0.1419 -0.0105 -0.0079
20644W        W36261  12.708  16.434  14.166  0.0270  0.0592 -0.0279
20645W        W36262   3.199   9.780   4.426 -0.0121  0.0701  0.1770
20646W        W36263   3.328   8.722   2.380 -0.0433  0.3282  0.0257
20647W        W36264   6.186  11.606  11.071  0.0309 -0.0530  0.3807
20648W        W36265   2.156  11.553  11.521 -0.1177 -0.4393  0.1854
20649W        W36266  11.114   2.165  13.543 -0.1161  0.0558 -0.2780
20650W        W36267  12.082   6.788   0.663  0.0584 -0.2641 -0.0780
20651W        W36268   6.369   7.226   2.827  0.1848 -0.2871  0.2539
20652W        W36269   1.447   6.973  15.701 -0.0522  0.1087  0.4070
20653W        W36270  15.552   1.623  13.311 -0.2689 -0.2829  0.1755
20654W        W36271  17.824  13.706   4.273 -0.1636  0.2929  0.0832
20655W        W36272   4.233   0.037  14.922 -0.3957 -0.0225 -0.3235
20656W        W36273  15.388   1.668   0.754 -0.1741  0.2701  0.0071
20657W        W36274  14.222  15.585   2.225 -0.0666  0.0353  0.0216
20658W        W36275  13.319  14.279  11.690  0.0215  0.2662 -0.0891
20659W        W36276   5.677   9.644   2.652  0.2224  0.1207  0.0246
20660W        W36277  17.660  17.292  11.016  0.0166  0.1096  0.2838
20661W        W36278  15.113  17.069   2.439 -0.1684  0.0679 -0.0156
20662W        W36279  11.404  16.790  15.201  0.2308 -0.4080 -0.1932
20663W        W36280   8.771  15.852   0.019  0.1804  0.1169  0.2440
20664W        W36281  11.457  10.203   4.886 -0.0526 -0.1658  0.3495
20665W        W36282   0.225   8.127   0.052  0.4456 -0.3000  0.0940
20666W        W36283   2.173  11.417   0.618  0.1567 -0.1280 -0.1497
20667W        W36284   3.696   9.914  10.622  0.2731  0.1646  0.3227
20668W        W36285   5.645   1.532   5.179 -0.1372  0.0633  0.0227
20669W        W36286  10.577  15.347  11.860  0.0510 -0.3160 -0.0493
20670W        W36287   6.772  13.275  12.086  0.1392  0.1244  0.3840
20671W        W36288   8.932   9.326   2.408  0.0133 -0.1440  0.2136
20672W        W36289   2.796   6.455  13.279  0.3017  0.0294  0.2969
20673W        W36290   6.071  10.415   3.882  0.1962  0.1470 -0.2345
20674W        W36291  11.551  12.992   0.009 -0.0546  0.2121  0.1416
20675W        W36292   4.129  15.241  11.765 -0.0106  0.2070 -0.0412
20676W        W36293   5.624  16.957   2.623  0.1898  0.1104 -0.2206
20677W        W36294  12.655  17.850  12.884  0.0388 -0.1633 -0.1397
20678W        W36295   2.527  15.927  12.653  0.0914  0.0422  0.2568
20679W        W36296  13.431   5.629   0.923  0.0432  0.0860  0.0807
20680W        W36297   1.216   4.227  15.326 -0.2224  0.2221  0.2486
20681W        W36298  16.644   7.329   3.604 -0.0913  0.0311  0.1326
20682W        W36299   9.799   0.924   1.848  0.1467  0.3110 -0.2187
20683W        W36300   7.872  12.758  13.705  0.2557 -0.3037 -0.2801
20684W        W36301   7.778  17.096   4.380  0.0592 -0.0168  0.2654
20685W        W36302  17.499   1.107   4.448  0.2470 -0.4934 -0.0165
20686W        W36303  17.396   1.046   6.756  0.3050  0.6193  0.0120
20687W        W36304  15.691   2.084  11.816  0.4423 -0.1153  0.2736
20688W        W36305   6.597   3.946   0.059  0.1072  0.0673 -0.3485
20689W        W36306   2.818   4.436  14.977  0.2657  0.1771  0.2432
20690W        W36307   0.922  18.403   2.145  0.1857  0.1351 -0.1409
20691W        W36308   5.783   0.735   5.990  0.3748 -0.0967  0.0889
20692W        W36309   4.069  17.122   3.123 -0.1379 -0.0933  0.2782
20693W        W36310   5.379   4.175   5.900 -0.0347  0.1986 -0.3322
20694W        W36311  14.334   4.105   4.050 -0.2410  0.3674  0.3637
20695W        W36312  13.639   6.708  11.857  0.3849  0.0145  0.1176
20696W        W36313   0.227   2.888   2.101 -0.0832  0.4290  0.1269
20697W        W36314   3.838  17.357  13.837 -0.0313  0.1949  0.4439
20698W        W36315   8.896   4.640  11.573 -0.1172  0.1532  0.0894
20699W        W36316  12.134  16.000  13.847 -0.0213 -0.0897 -0.0110
20700W        W36317   9.088  10.037  13.265  0.2301  0.1686  0.2037
20701W        W36318  17.356  17.770  13.041 -0.1883 -0.0870 -0.0726
20702W        W36319   2.417   9.764   9.572  0.2059  0.0399 -0.0541
20703W        W36320   3.883   3.621   2.919 -0.2718  0.2258 -0.2366
20704W        W36321   9.440   5.036   2.191 -0.2090  0.1096 -0.0021
20705W        W36322   3.807  16.956  15.038  0.0117 -0.0681 -0.2807
20706W        W36323   6.377   0.256  14.545  0.1843  0.1815  0.1837
20707W        W36324  10.192   2.505   1.896 -0.1312 -0.1170  0.2166
20708W        W36325  14.978   2.987   2.934 -0.1523 -0.1491  0.0398
20709W        W36326  11.348  12.305  11.688  0.2056 -0.0516 -0.1449
20710W        W36327  15.145  14.973   4.758 -0.2359 -0.2141 -0.3622
20711W        W36328   3.529  16.033   1.087 -0.1901  0.3126  0.0318
20712W        W36329   2.990  14.760  12.348 -0.1666 -0.1760 -0.0345
20713W        W36330   4.240   0.655   2.512  0.0007  0.3247  0.0340
20714W        W36331   8.338  13.332  11.556  0.0683 -0.0770 -0.1461
20715W        W36332   3.700   4.990  14.213  0.0812 -0.2291 -0.1777
20716W        W36333   3.797  17.853   1.167  0.0416  0.0531 -0.1269
20717W        W36334   8.289  17.091   5.180 -0.1883 -0.0504 -0.0530
20718W        W36335   4.998  15.814  13.587 -0.0292  0.1103  0.4319
20719W        W36336   9.635   1.187   1.040 -0.0073 -0.1332 -0.0170
20720W        W36337  16.478  16.704   5.175  0.0543  0.0243 -0.0456
20721W        W36338  16.876   1.099   5.002 -0.3347 -0.2290  0.0864
20722W        W36339   3.087   7.586  15.017 -0.0862  0.1071  0.1368
20723W        W36340  16.244  12.016   3.159  0.1162 -0.0116 -0.0777
20724W        W36341  16.863  14.833  12.594  0.1899  0.1161  0.1653
20725W        W36342   2.476  18.251  13.426 -0.2356  0.1922 -0.1661
20726W        W36343   6.219  13.494   3.519 -0.0456 -0.0306 -0.3828
20727W        W36344   6.000  17.987   2.840 -0.0425  0.0852  0.1527
20728W        W36345  15.157   3.683   2.503  0.0680  0.1158 -0.0151
20729W        W36346   0.658   2.711   3.409 -0.0695  0.1278 -0.1520
20730W        W36347   7.014   0.090  11.994  0.4181 -0.0721  0.2364
20731W        W36348   9.686   0.280   5.296  0.0399  0.0062 -0.0792
20732W        W36349   9.476   9.001   3.687 -0.0735 -0.0395  0.3064
20733W        W36350  12.991   0.219  12.681 -0.0482  0.0830  0.0444
20734W        W36351   1.060   0.235  13.371 -0.1028 -0.1964  0.1033
20735W        W36352  11.059   4.332  14.186  0.0056 -0.1350 -0.0178
20736W        W36353  12.854   5.554  14.514 -0.2801 -0.0580 -0.0509
20737W        W36354   8.470   5.714  14.449  0.1575 -0.5538  0.1039
20738W        W36355  13.598   3.707   5.298  0.0002  0.0502  0.2796
20739W        W36356  16.891  16.806  12.350 -0.3738 -0.1243  0.2249
20740W        W36357  12.193   6.385  15.613 -0.2990  0.2554  0.1874
20741W        W36358  10.016  17.795  11.514  0.3245 -0.0664 -0.2097
20742W        W36359   8.445   6.863   1.123  0.0125  0.0579  0.2125
20743W        W36360  17.588   7.426   2.903 -0.1353 -0.0442 -0.0932
20744W        W36361  15.840   2.662  14.266  0.1538  0.1448 -0.0256
20745W        W36362  10.452  10.903  10.750  0.4829 -0.3531  0.1999
20746W        W36363   2.403  12.460  14.226  0.0643 -0.1172 -0.0122
20747W        W36364  16.601  15.940  10.926 -0.4397 -0.1244 -0.1984
20748W        W36365   1.346  15.294   5.184  0.1003  0.0796  0.0618
20749W        W36366  14.736  15.735   4.788  0.1879 -0.3986 -0.1655
20750W        W36367  12.683   5.069  14.280 -0.1944 -0.2802  0.0631
20751W        W36368  13.268   4.332  10.717 -0.0924 -0.0486 -0.1874
20752W        W36369  10.260   6.760   4.123 -0.0486  0.1431 -0.1047
20753W        W36370  17.865   3.114   1.866 -0.1056  0.0156  0.4866
20754W        W36371   9.559  17.753  11.810 -0.4941 -0.0056 -0.0496
20755W        W36372  17.035   1.632  12.232 -0.1458 -0.3816 -0.3371
20756W        W36373   8.402   6.423  11.892  0.2875  0.0896 -0.2553
20757W        W36374   4.819  18.047   1.018 -0.0791 -0.3196  0.1191
20758W        W36375  18.251   3.364  12.284  0.0246  0.2251  0.1440
20759W        W36376  16.912   9.981   5.175  0.2513 -0.0217  0.0815
20760W        W36377   1.198   4.683   4.267 -0.0364 -0.1799 -0.2940
20761W        W36378   7.955   6.099  11.188  0.1129  0.0920  0.0698
20762W        W36379  12.091  17.699   2.702 -0.0781 -0.0112 -0.0022
20763W        W36380   4.131   0.477  13.934 -0.0016 -0.0321 -0.1963
20764W        W36381  13.806   7.778  15.722  0.2238  0.1929 -0.2581
20765W        W36382   0.431   2.023   2.630  0.0068 -0.1915 -0.0706
20766W        W36383  16.304   0.235   2.211 -0.2094  0.3224 -0.3142
20767W        W36384   4.226   8.649  15.309  0.2545 -0.1321  0.1926
20768W        W36385  15.732   9.166  10.349 -0.2745  0.0095  0.1812
20769W        W36386   8.114  18.586  11.989  0.2069  0.2564 -0.0420
20770W        W36387  12.648   6.832   2.151 -0.2095 -0.4813  0.2093
20771W        W36388  13.799   7.641   1.245  0.2118 -0.0153 -0.2494
20772W        W36389   0.071   9.810  10.484  0.1695 -0.2670 -0.2013
20773W        W36390   4.694   8.400  12.374 -0.2470  0.1520 -0.1503
20774W        W36391  12.296  18.611   5.233 -0.1872 -0.2984  0.1057
20775W        W36392   0.020   3.910  14.526  0.1633 -0.1235 -0.4301
20776W        W36393  15.686  11.749  12.455  0.3675 -0.2085  0.0206
20777W        W36394   4.574   3.082  12.407 -0.3859 -0.2541  0.0802
20778W        W36395  11.105  10.661   3.062 -0.0732 -0.0026 -0.0047
20779W        W36396   7.312   7.629  13.469 -0.0683  0.2783 -0.2434
20780W        W36397   9.823   7.114  12.328 -0.1116  0.2259 -0.0783
20781W        W36398  13.421   1.385  15.290 -0.3723 -0.1918  0.2083
20782W        W36399   8.649  13.717   2.504 -0.0429 -0.1489 -0.0909
20783W        W36400  16.812  10.083  11.547 -0.1042 -0.1276  0.2485
20784W        W36401  11.622   2.558  12.264 -0.1324 -0.1762  0.0235
20785W        W36402  11.225  11.997   3.688 -0.2832 -0.2144  0.4134
20786W        W36403  10.275   5.507   5.347 -0.2443  0.0346  0.2736
20787W        W36404  13.813  16.637  14.698  0.1189 -0.2849 -0.0462
20788W        W36405  12.937  12.160  14.495 -0.1586 -0.1919  0.1161
20789W        W36406  10.322   8.022  15.200  0.1578  0.1728 -0.4586
20790W        W36407   8.769   3.425  11.454 -0.3115 -0.1657 -0.1446
20791W        W36408   1.074   1.840   3.230 -0.0231  0.1674  0.2194
20792W        W36409  13.717  12.861   1.514 -0.1793 -0.3990  0.0571
20793W        W36410   7.866   4.597  13.836  0.3145 -0.0724  0.0590
20794W        W36411   4.436  13.365   3.402  0.1405  0.1222  0.0994
20795W        W36412   4.280  10.035  11.822 -0.3466 -0.0130  0.2719
20796W        W36413   0.886   4.741   0.140  0.2276 -0.3695 -0.0053
20797W        W36414   5.384   8.293   0.294  0.0106  0.1377  0.1036
20798W        W36415   1.643   5.176   3.026  0.0305  0.0305  0.2535
20799W        W36416  11.126  10.243   2.128  0.1661  0.1711 -0.0973
20800W        W36417   3.796   4.999  13.507  0.0767  0.1846  0.2338
20801W        W36418  18.500  13.904   4.415 -0.1648 -0.1553  0.1320
20802W        W36419  17.026   4.160  15.800  0.0505  0.1282 -0.2962
20803W        W36420   0.408   4.513   2.651 -0.1840 -0.1814 -0.2611
20804W        W36421   8.654   6.459  11.402 -0.1212 -0.0724 -0.0915
20805W        W36422  11.059  12.650  11.468 -0.0020 -0.1550  0.5015
20806W        W36423   5.569   6.158   4.635  0.2314 -0.4047 -0.1310
20807W        W36424   1.534   0.405  13.123  0.1108  0.0886 -0.2909
20808W        W36425   8.551   4.343   0.632  0.0186  0.3958 -0.1101
20809W        W36426  17.696   1.808  11.729 -0.0346  0.0907 -0.1464
20810W        W36427   1.332   4.134   2.984  0.3193  0.0818  0.0915
20811W        W36428  11.738   0.249  12.996 -0.0455 -0.0155 -0.0341
20812W        W36429   8.711   6.391   2.101 -0.0204  0.0251  0.0993
20813W        W36430   9.605   9.355   3.180 -0.1214 -0.1472  0.0479
20814W        W36431  14.373   3.608   1.480 -0.2532  0.3261 -0.2469
20815W        W36432  14.326  17.622  12.933  0.3101  0.1563  0.0562
20816W        W36433   3.508   1.203  11.754  0.3025 -0.3002  0.1594
20817W        W36434  17.084   1.627  12.957 -0.1154 -0.3725  0.0061
20818W        W36435   4.469  10.263  14.341  0.1454  0.0204 -0.4414
20819W        W36436   6.273   4.070  14.254  0.2049 -0.0591  0.3583
20820W        W36437   9.393   4.648   2.604  0.3786  0.2593 -0.0683
20821W        W36438  14.633  16.460   3.712 -0.2358  0.7748  0.0433
20822W        W36439  15.555   6.509  11.560 -0.2215 -0.0347 -0.3787
20823W        W36440  12.675  18.443   4.429  0.0695 -0.2823  0.2048
20824W        W36441   5.552  16.282   1.768 -0.0113 -0.0920 -0.3162
20825W        W36442   7.530  16.465   0.838  0.1547 -0.2070  0.0246
20826W        W36443  12.391   4.864   0.240 -0.2846  0.2746 -0.2184
20827W        W36444  10.659   7.490   1.206  0.0299 -0.2835 -0.0179
20828W        W36445  13.593   7.444   4.656 -0.1125 -0.1979  0.0185
20829W        W36446  11.344  15.994  11.125  0.3484  0.0632 -0.0951
20830W        W36447   4.000   2.354   4.875  0.2406 -0.1320 -0.3706
20831W        W36448  12.299  15.190   0.474 -0.1539  0.1389  0.0089
20832W        W36449  11.842  13.031   0.505  0.1351 -0.2281 -0.1362
20833W        W36450   1.483   9.261  15.492  0.2681  0.2078  0.1361
20834W        W36451   7.106  12.969  11.289  0.4728  0.0364 -0.1367
20835W        W36452   4.232   5.413  15.513 -0.1981 -0.0316 -0.0502
20836W        W36453  15.662   2.688  12.708 -0.2343 -0.0899 -0.0870
20837W        W36454   7.483  17.295   0.995  0.2929  0.0277 -0.2031
20838W        W36455   8.962  15.461  11.219  0.4374 -0.1048 -0.0262
20839W        W36456   1.883   1.126  12.448 -0.0977  0.1249 -0.0763
20840W        W36457   1.474  18.320   6.072 -0.1545 -0.2616 -0.1195
20841W        W36458  15.331   3.888   0.536  0.4294 -0.3423  0.1514
20842W        W36459  15.973   0.451   1.063 -0.0601  0.0405  0.1305
20843W        W36460   8.142   4.903  13.109  0.0293 -0.0947  0.0021
20844W        W36461   0.813  18.262   0.901 -0.1364 -0.0904 -0.1254
20845W        W36462   9.250   4.343  15.283 -0.2464 -0.0498  0.1656
20846W        W36463  11.065   7.044   1.184 -0.1186  0.2353  0.0122
20847W        W36464  13.787  11.283  11.689 -0.3589 -0.1748  0.0764
20848W        W36465   4.148  11.963   1.752 -0.0776  0.3164  0.0980
20849W        W36466   8.542   3.916   1.788  0.1294  0.1469  0.2586
20850W        W36467  17.639   7.672   0.209  0.4277  0.2835 -0.2810
20851W        W36468   1.624  13.365   5.441  0.0229 -0.3549  0.3077
20852W        W36469   9.560   4.036   5.466 -0.1252  0.0728  0.2367
20853W        W36470   5.872  16.949  15.400  0.0354  0.3290  0.0502
20854W        W36471  11.284   9.850   9.793 -0.0633 -0.1052  0.0112
20855W        W36472  12.977   0.107   1.491 -0.0855 -0.0593 -0.0353
20856W        W36473  13.057   7.322   3.221  0.0496 -0.0958  0.0393
20857W        W36474   9.932   2.870  14.844  0.0543 -0.0461 -0.4329
20858W        W36475   5.178  18.440   3.972  0.2812  0.0114  0.1195
20859W        W36476  14.749   1.293  12.522 -0.0721  0.2297 -0.4101
20860W        W36477   6.157  17.794   1.513 -0.1564 -0.1937  0.0668
20861W        W36478   3.149   8.081   5.024 -0.2984  0.1774 -0.1499
20862W        W36479  12.257  11.399  15.667 -0.3593 -0.2780 -0.1960
20863W        W36480  14.120  16.694  11.987 -0.1337 -0.3833 -0.0545
20864W        W36481   5.901  17.578  12.539  0.5283  0.0432  0.1019
20865W        W36482   0.009   4.138   5.285 -0.3329  0.0039 -0.0755
20866W        W36483  18.370   4.348  14.649 -0.1719  0.1806 -0.0616
20867W        W36484   9.188   7.308  14.232 -0.0101  0.1107 -0.0171
20868W        W36485   7.254   0.756  14.484 -0.0889 -0.0894  0.0642
20869W        W36486   6.280   0.788   1.124  0.0895  0.2122  0.2215
20870W        W36487   1.160   9.139  11.773  0.2459  0.0216 -0.0508
20871W        W36488  11.845  15.302  14.326  0.1486  0.1797 -0.0371
20872W        W36489  13.455  13.912   0.625  0.1262  0.3753  0.0164
20873W        W36490  15.894   7.091  14.509  0.0079 -0.0185 -0.1959
20874W        W36491   6.508  12.237   3.907 -0.4082  0.0193  0.2926
20875W        W36492   3.889   2.809  15.364 -0.0437  0.2799 -0.0665
20876W        W36493   3.173  15.223   0.852 -0.1383  0.2150  0.0877
20877W        W36494   8.322  11.118   5.094  0.1351  0.2173  0.2338
20878W        W36495  16.915   9.986   2.905  0.1863  0.0983  0.2724
20879W        W36496   0.222  11.378  15.679 -0.1498  0.1287 -0.0328
20880W        W36497  14.702   1.249  10.732 -0.0067  0.1135 -0.1122
20881W        W36498  18.149   9.744   1.497  0.1112 -0.0927 -0.0691
20882W        W36499   5.236   8.275  12.753 -0.1619  0.4034  0.1923
20883W        W36500  10.983  12.032   2.275 -0.2669  0.1705 -0.1895
20884W        W36501  16.176   2.799  12.540 -0.0307 -0.0957 -0.0351
20885W        W36502  17.874   9.703  13.695 -0.0116  0.2428 -0.2030
20886W        W36503   6.152   8.111  12.158 -0.3336  0.1371 -0.0854
20887W        W36504  10.101  12.452  15.218 -0.1511 -0.1242  0.0962
20888W        W36505   6.748   9.354   3.365  0.1900 -0.1391 -0.2177
20889W        W36506   1.635  11.935  11.650 -0.1008 -0.0697  0.0797
20890W        W36507  16.671  17.908   2.999 -0.3081 -0.0908 -0.0603
20891W        W36508   3.635  11.581   4.881  0.2460  0.0309  0.0791
20892W        W36509  12.508  12.098   4.831 -0.0871 -0.2516 -0.1874
20893W        W36510   9.416  17.113  11.010  0.0525 -0.1011  0.1651
20894W        W36511  14.770   9.704   0.849  0.0409 -0.3034 -0.1098
20895W        W36512   5.414   4.094  12.765 -0.2707  0.1069  0.1295
20896W        W36513  14.122   4.017  12.242  0.1515 -0.2303  0.0054
20897W        W36514   6.020   8.115  15.410  0.1477  0.0463  0.1975
20898W        W36515  13.962   4.710  15.311  0.2614 -0.0993  0.1287
20899W        W36516   6.208   7.772  13.561 -0.0636 -0.0384 -0.3957
20900W        W36517  15.601   6.704   3.769 -0.2854 -0.4268 -0.1496
20901W        W36518  18.326   6.393  13.029 -0.3242 -0.0923  0.1677
20902W        W36519   4.032   6.210   2.092  0.2449 -0.1212  0.3268
20903W        W36520  11.241   7.634   4.083 -0.1276  0.2632 -0.1765
20904W        W36521   0.858   3.885   0.023 -0.1886  0.3004 -0.1125
20905W        W36522   9.350  15.677   2.296 -0.0922  0.3099 -0.0708
20906W        W36523   2.532   8.453  11.603 -0.0835 -0.0844  0.1347
20907W        W36524   4.919   8.052   3.615 -0.2511  0.1200 -0.0298
20908W        W36525   4.582   2.103   2.656  0.0172 -0.1568 -0.0046
20909W        W36526   9.277   1.282   3.032 -0.3828  0.3945 -0.2270
20910W        W36527   9.523  12.991  14.110 -0.1621 -0.2897 -0.1269
20911W        W36528   8.157  14.866   4.466 -0.0309 -0.5318 -0.0668
20912W        W36529   6.974  12.032   3.912 -0.0772 -0.0684  0.0184
20913W        W36530   1.122  12.667   3.116  0.1439 -0.1372 -0.0098
20914W        W36531  11.548   7.848  12.236 -0.1741  0.0181  0.0165
20915W        W36532  18.275   6.695  11.454  0.1783 -0.1033 -0.0357
20916W        W36533   1.645   4.059   2.572  0.3461 -0.2508 -0.2804
20917W        W36534  11.101   1.581   2.703 -0.0998  0.1202  0.0603
20918W        W36535  14.187   3.154  13.896  0.0089  0.1280  0.2316
20919W        W36536   1.412   8.404  10.707 -0.1756  0.1128 -0.2703
20920W        W36537   0.485  12.717   1.249  0.0887 -0.0607 -0.1942
20921W        W36538   4.969   5.657  13.313  0.0650  0.1434 -0.1516
20922W        W36539  13.027   3.725  13.767 -0.0934  0.1356  0.5511
20923W        W36540  16.932   1.619   1.501 -0.3374 -0.0086 -0.0933
20924W        W36541  11.663  18.148   5.766 -0.0622 -0.3035 -0.0250
20925W        W36542  16.609  12.133  13.296 -0.1586 -0.1647 -0.0766
20926W        W36543   4.647  10.820  11.400  0.1213 -0.1374  0.1873
20927W        W36544   7.352   0.366  11.622  0.0739  0.0167  0.1787
20928W        W36545   8.063   6.166   5.517  0.1677  0.1640 -0.0809
20929W        W36546   6.986  17.786  11.976  0.4743 -0.1063 -0.3103
20930W        W36547   9.325   2.199   5.572 -0.2634 -0.1263 -0.0677
20931W        W36548  15.722   8.521   1.402 -0.3313  0.0745 -0.0656
20932W        W36549   7.719  16.179  15.398  0.2393  0.3412 -0.2110
20933W        W36550   0.319  10.856  15.768 -0.1595 -0.2196 -0.0670
20934W        W36551  14.973   2.997   1.265  0.0777  0.1133  0.0738
20935W        W36552  10.382  12.845   5.205 -0.0685 -0.1768 -0.0551
20936W        W36553   4.823  10.225  12.612  0.2171  0.0651  0.1188
20937W        W36554  10.775  10.451  14.596 -0.0410 -0.1077 -0.2728
20938W        W36555   7.365   3.863   2.863 -0.0239 -0.1793 -0.1256
20939W        W36556  11.518   5.480  15.042  0.0781  0.0137 -0.0609
20940W        W36557  13.927  10.062   4.296  0.1121  0.1063 -0.0915
20941W        W36558  18.183   6.472   3.864  0.0805 -0.1026  0.1766
20942W        W36559   3.980   5.716  13.595  0.0051  0.0217  0.0674
20943W        W36560  10.522  12.992   1.397  0.0291 -0.1786  0.1216
20944W        W36561  13.298  11.950   3.563 -0.2328  0.5279  0.0112
20945W        W36562  17.566   5.668   2.961  0.1521  0.0274  0.2065
20946W        W36563   8.770   6.896   3.693  0.0883 -0.3831 -0.1831
20947W        W36564   6.007  16.904   4.106  0.0480 -0.1204 -0.1719
20948W        W36565  15.205   4.489   2.233 -0.1746 -0.0017 -0.1869
20949W        W36566  17.790  16.417  14.281  0.1286  0.2149 -0.2416
20950W        W36567   2.432  18.510  14.984 -0.0957 -0.2591  0.0838
20951W        W36568  17.831   0.899  14.808 -0.3402  0.0246 -0.0987
20952W        W36569   4.393   2.104  15.782  0.0688 -0.1189  0.0006
20953W        W36570  14.097   5.091   5.096  0.0231 -0.1660  0.2297
20954W        W36571   3.385   9.587   4.924 -0.0371  0.0858 -0.0372
20955W        W36572  14.154   0.807   0.354  0.0662  0.0684  0.1656
20956W        W36573   3.059   7.694   2.469  0.0868 -0.1327  0.1750
20957W        W36574   6.087   8.125   4.834 -0.0905  0.1375  0.0195
20958W        W36575   8.779   0.588   1.238 -0.0027  0.1794  0.1694
20959W        W36576  10.711  17.373   1.236 -0.2394 -0.1666 -0.1598
20960W        W36577  16.112  10.808   1.193  0.0276  0.1435 -0.6489
20961W        W36578   4.061   3.608  11.261  0.0330  0.2227  0.4298
20962W        W36579   3.010  12.272   2.072 -0.0207 -0.0641  0.2233
20963W        W36580   6.116   9.787   2.376  0.1089 -0.0517  0.0849
20964W        W36581   5.407   6.196   1.895  0.0716 -0.2601  0.0289
20965W        W36582   3.750   1.141  13.864  0.2259 -0.2395 -0.2174
20966W        W36583   2.768  14.793   3.609 -0.2387 -0.2144  0.1118
20967W        W36584  15.235   3.443  12.402  0.1759  0.1757  0.1950
20968W        W36585  13.281  16.526  11.107 -0.3021  0.1131 -0.0097
20969W        W36586   6.512   3.080  12.750 -0.0945 -0.3030  0.1267
20970W        W36587  12.768  18.551   2.018  0.1436 -0.0051 -0.3759
20971W        W36588   4.962   4.911   5.816  0.3466 -0.1240 -0.3433
20972W        W36589   2.401  17.242  15.778  0.1813 -0.1635 -0.2137
20973W        W36590   0.677   9.079  11.697 -0.0266  0.0688  0.1526
20974W        W36591  12.824  18.089   5.784  0.2387  0.2335 -0.0436
20975W        W36592   9.782  15.489  12.403  0.2037  0.0564  0.1747
20976W        W36593   8.452  16.325   3.529 -0.1140 -0.2218  0.0335
20977W        W36594   3.689  17.483  15.154 -0.1057 -0.2361 -0.0326
20978W        W36595   3.980   3.102  14.987  0.2578 -0.0437 -0.2730
20979W        W36596  10.725   6.319  14.834  0.2704  0.2343  0.1607
20980W        W36597  16.072   2.228   5.191  0.0881 -0.0861 -0.0764
20981W        W36598   4.600   9.783   4.947  0.2787 -0.2298 -0.0862
20982W        W36599   4.159   7.845  14.936 -0.3944  0.1965  0.1122
20983W        W36600   6.888   9.344   0.899 -0.1387  0.2207  0.2491
20984W        W36601   4.920   7.428  13.798 -0.0333 -0.4033  0.0215
20985W        W36602  11.144   4.258  14.687  0.0795  0.2210 -0.1508
20986W        W36603   7.172   8.148   2.778 -0.1944 -0.0410  0.2113
20987W        W36604  13.850  10.196  14.991  0.0183  0.1278 -0.1131
20988W        W36605   6.212   4.145   1.426  0.1718 -0.0241 -0.0570
20989W        W36606  13.638   0.530   3.102 -0.4893 -0.4952  0.0414
20990W        W36607  18.457   0.425   0.817  0.2800  0.0923  0.0754
20991W        W36608   5.087  10.958   5.452  0.0083 -0.0436 -0.2478
20992W        W36609   3.614   7.211  14.719  0.1667 -0.1338 -0.1596
20993W        W36610   1.822  14.909  11.541  0.2993 -0.0807  0.0022
20994W        W36611  10.192  13.346  13.570 -0.2544 -0.2413  0.1056
20995W        W36612   2.874  13.413  11.901 -0.1999  0.0427 -0.1676
20996W        W36613   3.587  14.714  15.798 -0.0834  0.0092  0.4840
20997W        W36614   1.312  13.229   0.423 -0.0405 -0.0010  0.4122
20998W        W36615  13.246   1.933  12.610 -0.0033  0.1928 -0.2446
20999W        W36616  12.418  17.691   1.762  0.0078 -0.1669  0.0134
21000W        W36617  13.589  15.626   4.182 -0.1127 -0.1934  0.1229
21001W        W36618   8.894  15.235   3.297  0.0654  0.0743  0.2019
21002W        W36619  15.012  12.297  11.285 -0.2769 -0.0108  0.0420
21003W        W36620  10.931   1.830   0.975 -0.0147  0.1295 -0.0024
21004W        W36621  17.772   6.695  14.465  0.0429 -0.1876 -0.1364
21005W        W36622   1.815  15.078   3.257  0.1903 -0.0773  0.1379
21006W        W36623   1.834   6.437  14.616 -0.0727 -0.1633  0.1486
21007W        W36624   3.834  12.174   3.921 -0.2746 -0.2050  0.1229
21008W        W36625   0.821  11.955  11.640 -0.3835 -0.1183 -0.0527
21009W        W36626  14.959  12.255  14.150  0.0201 -0.1911  0.0622
21010W        W36627   8.030   6.656   2.139  0.2348  0.0151  0.0322
21011W        W36628   2.469   1.364  13.809  0.2029  0.3142  0.2255
21012W        W36629  18.005   9.721  14.490 -0.2755 -0.2968  0.1487
21013W        W36630  11.794  13.611   5.119 -0.1497  0.0133  0.2165
21014W        W36631   0.491   6.973  13.512  0.2738  0.1757  0.0081
21015W        W36632   8.180  10.382   1.531 -0.0055 -0.0159 -0.0708
21016W        W36633  11.070  15.713  14.738 -0.1392 -0.2101 -0.2708
21017W        W36634  14.231   4.438   1.183 -0.0579 -0.0264 -0.0344
21018W        W36635  10.519   5.127  13.071  0.1518 -0.2799  0.2794
21019W        W36636  11.763   6.267   4.521  0.0622  0.0865  0.0243
21020W        W36637  16.699  12.970  11.191 -0.0440 -0.0744  0.2368
21021W        W36638  11.845   2.565   2.267 -0.1682 -0.2780  0.0555
21022W        W36639   7.319   8.466  13.844  0.2614  0.2935  0.2463
21023W        W36640   6.334  17.728   3.177  0.1143 -0.1760 -0.1075
21024W        W36641  10.720   2.548   1.692  0.0069 -0.1846 -0.0697
21025W        W36642  13.481   1.708  11.723 -0.6612  0.0952  0.1989
21026W        W36643   2.940   7.108   3.161  0.0260  0.1916 -0.2153
21027W        W36644  14.124  16.363  13.122  0.2433  0.1409  0.3086
21028W        W36645  12.791   6.827   4.512 -0.2452  0.1818 -0.2826
21029W        W36646   1.986   4.678  12.130 -0.1751  0.0265 -0.2010
21030W        W36647  15.879  10.499   3.494  0.3851  0.1244 -0.2704
21031W        W36648   6.980  13.084  13.985  0.0797  0.0721 -0.0460
21032W        W36649   4.445  10.625   1.667  0.2479  0.1443  0.3443
21033W        W36650  11.052  11.919  11.890  0.0659  0.2713 -0.1555
21034W        W36651  14.016  12.809   0.409  0.1549  0.0360 -0.3305
21035W        W36652   3.512  17.848  11.623 -0.0133 -0.0747 -0.1889
21036W        W36653  14.363   6.243   2.483  0.1930 -0.1094  0.0011
21037W        W36654   2.331   6.286  10.070 -0.1446  0.1280 -0.1213
21038W        W36655   9.403   2.124  15.227  0.2034 -0.0262 -0.3362
21039W        W36656  12.507  16.142   2.098  0.0971  0.0865 -0.1158
21040W        W36657  15.143   1.477   4.172 -0.0172  0.0190  0.0182
21041W        W36658   4.810  15.796   1.533 -0.2381  0.0225 -0.0044
21042W        W36659   8.360  14.227  13.203 -0.1171  0.0843 -0.4309
21043W        W36660  11.010   9.438   4.650 -0.0994 -0.2653  0.0199
21044W        W36661  18.391  11.212   1.361 -0.3403 -0.0940  0.1657
21045W        W36662  15.554   5.664   0.955 -0.0091  0.1637 -0.0805
21046W        W36663  17.761  18.495   0.382  0.2376 -0.3672  0.1010
21047W        W36664  15.315   3.136   1.628  0.3022 -0.2540  0.2492
21048W        W36665   6.709  12.112   1.318 -0.1001 -0.1609  0.0495
21049W        W36666   4.790   5.392  14.459 -0.0810 -0.2732 -0.1270
21050W        W36667   3.370   6.225  15.183  0.1597  0.0372 -0.1340
21051W        W36668   2.491   5.959  14.912  0.1931 -0.0361 -0.1425
21052W        W36669   4.855   9.654   1.892 -0.2809  0.0869  0.1364
21053W        W36670   2.809   3.268   1.340 -0.3313  0.1331 -0.0163
21054W        W36671  10.009  13.218   1.580 -0.3067  0.2855  0.0834
21055W        W36672   9.373   8.612   1.788  0.2887 -0.0711 -0.2334
21056W        W36673   8.569  11.370  11.480 -0.0550  0.0101  0.1515
21057W        W36674   3.312   2.301  13.538  0.0631  0.0653  0.0630
21058W        W36675   3.777  13.523   2.504  0.1126  0.3736  0.1476
21059W        W36676   7.471   0.901  12.151 -0.2213 -0.3992  0.4153
21060W        W36677   4.942  13.190  12.931  0.0195  0.0754 -0.1048
21061W        W36678   8.140  11.879  10.715 -0.3007  0.1992 -0.1722
21062W        W36679   5.457  15.393  12.409  0.2929 -0.1002 -0.1009
21063W        W36680   7.933   5.617   5.216  0.2127 -0.2022  0.2009
21064W        W36681   1.934  15.330   0.737  0.1955 -0.1533  0.1104
21065W        W36682  17.148  17.158   3.604 -0.1425  0.1788  0.1436
21066W        W36683   4.132   3.469   1.667 -0.0346  0.1970 -0.1987
21067W        W36684   5.144  10.384  11.871 -0.1315 -0.0486  0.0184
21068W        W36685   1.987  14.017  13.969  0.1520 -0.1857 -0.0508
21069W        W36686  11.835  15.965  10.923 -0.2591 -0.1558  0.1004
21070W        W36687   3.556   6.141  11.373 -0.0532 -0.1043  0.0615
21071W        W36688   2.147   5.257   0.246  0.2204 -0.0267  0.1304
21072W        W36689   0.169  18.604  11.988 -0.0979  0.2844  0.1841
21073W        W36690  10.285  16.522   2.138  0.3351 -0.0409 -0.2134
21074W        W36691   8.029   0.472  14.111  0.2267 -0.2449  0.0220
21075W        W36692  16.027  14.530   1.939  0.0966 -0.5134 -0.0724
21076W        W36693   9.034   4.964   0.907  0.0064 -0.3393 -0.1511
21077W        W36694  12.728   2.805   3.405 -0.2160  0.0206  0.0188
21078W        W36695   0.193   3.121  11.179  0.1755 -0.0354  0.0061
21079W        W36696   5.500   1.116  12.491 -0.0835  0.0120  0.0275
21080W        W36697  15.551   3.632  13.646 -0.0330 -0.0267  0.1655
21081W        W36698   6.503   8.777   1.693 -0.1955  0.4435  0.2528
21082W        W36699  16.169   7.961  14.402  0.4319  0.3294 -0.2106
21083W        W36700  11.037  17.621   2.747  0.1080 -0.3030 -0.0646
21084W        W36701  14.189  13.556   1.339 -0.5191  0.2028 -0.1018
21085W        W36702   5.710   7.313   0.662  0.2790 -0.1406  0.1410
21086W        W36703  11.365   6.509   4.692 -0.0444 -0.0884 -0.1337
21087W        W36704   4.864  13.081  12.471  0.1414 -0.2647 -0.2034
21088W        W36705  17.193   8.833   1.666 -0.3013 -0.4134 -0.3251
21089W        W36706  15.359   5.208  15.182  0.2794  0.1596  0.0174
21090W        W36707  15.528   7.003  12.813 -0.1103  0.2332 -0.1182
21091W        W36708  18.007  12.179  10.460 -0.1401  0.0132  0.1943
21092W        W36709   4.522   8.857   5.438 -0.2905 -0.1419 -0.0479
21093W        W36710  10.468  14.650   2.275 -0.2256  0.4124 -0.3543
21094W        W36711  13.340  11.688   2.572 -0.1511 -0.0959  0.1464
21095W        W36712  11.864   4.059   3.656  0.0093  0.2705  0.0806
21096W        W36713  15.576  14.922  13.010 -0.3623 -0.1932  0.4575
21097W        W36714  11.799   8.858   0.201  0.0364 -0.0672 -0.1148
21098W        W36715  17.253   1.777   0.607 -0.0030  0.2602  0.1931
21099W        W36716  16.395  16.020  12.899  0.0926  0.0471  0.0485
21100W        W36717   7.541  18.061  11.192  0.1041 -0.0380 -0.0343
21101W        W36718   8.178   1.402   1.188 -0.3145 -0.2985 -0.0096
21102W        W36719  17.571  15.526   0.362 -0.3571  0.1834  0.2969
21103W        W36720   5.878   0.584  12.064  0.1112  0.0549 -0.2944
21104W        W36721  12.463   4.506  13.527 -0.0523 -0.1994 -0.2198
21105W        W36722   6.961   2.099   1.260  0.1048  0.3660  0.1995
21106W        W36723   8.311  17.827   2.810  0.2908 -0.3793 -0.2794
21107W        W36724  13.313  18.613  13.014  0.0481  0.0186 -0.4019
21108W        W36725   4.790   2.709   4.102 -0.0451 -0.0034  0.1258
21109W        W36726   6.982   2.925  12.868 -0.1025  0.1692  0.1389
21110W        W36727  10.872   9.549  14.452 -0.0346 -0.2400  0.1104
21111W        W36728  15.341  18.459  15.559  0.3299  0.1220 -0.2488
21112W        W36729   8.253  10.566   4.952 -0.0138 -0.4126 -0.0051
21113W        W36730  13.356   4.046   0.641 -0.1595  0.1294 -0.0454
21114W        W36731   4.953   0.913   0.204  0.0822  0.0680  0.0955
21115W        W36732   7.412  14.680  10.642  0.0668  0.0327 -0.2849
21116W        W36733   6.494   3.946  15.146  0.0477 -0.0777 -0.2800
21117W        W36734  10.331   6.082   5.479 -0.2819  0.1250  0.1879
21118W        W36735   5.230   2.051  12.040 -0.0124  0.1181  0.2185
21119W        W36736  11.097   3.632  10.980 -0.2063 -0.3540  0.1433
21120W        W36737   4.356  18.092  13.797 -0.3943  0.0617 -0.2140
21121W        W36738   1.646   6.938   4.219  0.1122  0.0372 -0.2095
21122W        W36739  16.896   7.088  14.606 -0.3786 -0.1076 -0.1556
21123W        W36740  16.288   8.708   4.727  0.0699 -0.0757  0.1910
21124W        W36741  16.626   8.485  12.602 -0.1323  0.0244 -0.4462
21125W        W36742   7.637  13.966  14.958 -0.0975 -0.3584  0.0107
21126W        W36743  16.998  15.877   5.686  0.2471 -0.0586 -0.0656
21127W        W36744   4.635  15.561   2.925 -0.0888  0.2048  0.1812
21128W        W36745  12.284  12.282  12.227 -0.0977  0.0814 -0.2931
21129W        W36746   0.803  16.780   1.012  0.1006  0.0974 -0.0302
21130W        W36747   4.307   7.625   4.326 -0.1033  0.1130 -0.2090
21131W        W36748   0.499   8.088  11.512  0.1345  0.0821  0.1673
21132W        W36749  12.187  14.694  15.700  0.0545  0.4189  0.2247
21133W        W36750   6.319   7.001   2.238  0.3207 -0.6160 -0.0921
21134W        W36751   6.305   4.985   3.562  0.1339  0.1248  0.1177
21135W        W36752   7.704  10.399  13.208  0.1124  0.1268 -0.1898
21136W        W36753   1.579   0.952  15.231  0.2380  0.1923  0.4644
21137W        W36754   7.249   6.082   2.124  0.0560  0.1626  0.2214
21138W        W36755   9.486  15.276  14.768 -0.2370 -0.0715  0.0645
21139W        W36756   1.394   8.540  15.006  0.0454  0.1133 -0.0240
21140W        W36757  10.055  10.254   3.708 -0.1012  0.1841 -0.0269
21141W        W36758   5.841  14.551   9.577 -0.0337 -0.3147 -0.2601
21142W        W36759   3.389   8.305  15.166  0.0659 -0.0475  0.1047
21143W        W36760  13.765  11.906   4.968 -0.1273 -0.1787  0.0640
21144W        W36761  11.873   2.048   3.291 -0.0793 -0.2062  0.1751
21145W        W36762  13.152   3.796   1.048 -0.0621  0.2640  0.1670
21146W        W36763   8.109  15.815   2.603 -0.0174 -0.2405  0.1648
21147W        W36764  18.000   4.472   2.930  0.4504 -0.3711 -0.1711
21148W        W36765   2.310   8.564  12.064  0.0259 -0.0887 -0.0329
21149W        W36766  18.414  17.303   3.233 -0.0712  0.1427 -0.2330
21150W        W36767  13.931   3.467  15.653 -0.0450  0.0529 -0.1006
21151W        W36768  11.934  13.745  13.043  0.5754 -0.1429 -0.2308
21152W        W36769   2.525   4.282  11.100 -0.0356  0.1510  0.2025
21153W        W36770   1.996  13.340  14.573  0.0831  0.0673 -0.0988
21154W        W36771   7.273   8.093   4.348  0.1711  0.0107  0.0338
21155W        W36772   1.834  13.052  14.224 -0.1529 -0.4118  0.1915
21156W        W36773  18.161  18.423   2.294 -0.1442 -0.1308 -0.1775
21157W        W36774  13.287  10.709   5.448 -0.2877  0.1430  0.2679
21158W        W36775   8.367  18.043  15.273  0.0749  0.4052 -0.1728
21159W        W36776  14.964   9.087  10.948  0.2202  0.1925  0.0641
21160W        W36777   7.664  14.639  12.684 -0.0945  0.0328  0.2202
21161W        W36778  15.685  18.413   5.138 -0.2150  0.0301  0.0400
21162W        W36779   4.871   1.204   1.512 -0.2689 -0.1910 -0.0361
21163W        W36780  15.325  13.274  15.671 -0.2218  0.0699  0.0084
21164W        W36781  17.382  16.135  12.612  0.4093  0.0310  0.0492
21165W        W36782  10.962  13.177  14.544  0.0680  0.1247  0.2555
21166W        W36783  15.991   1.394   5.312 -0.3205  0.1779 -0.0501
21167W        W36784  17.888   9.250  11.369 -0.0101  0.1683 -0.2728
21168W        W36785  15.624  15.307  15.747  0.3425 -0.2265 -0.1949
21169W        W36786  16.866   9.769  10.561  0.2205  0.0377 -0.1433
21170W        W36787  13.522  11.541   3.906  0.0893 -0.4285  0.1723
21171W        W36788  13.509   0.202   2.633  0.3617  0.0732  0.3415
21172W        W36789  13.054   9.120  11.831 -0.3264  0.0388  0.0303
21173W        W36790   1.997  15.453   2.468 -0.0709  0.3578  0.1419
21174W        W36791   6.681  16.142   1.093 -0.2436  0.1141 -0.2191
21175W        W36792   6.823  11.089   9.900 -0.3899  0.0528  0.2354
21176W        W36793  12.803   6.555  11.945  0.1374 -0.1431  0.2573
21177W        W36794   6.591  14.347   2.478  0.1286  0.0957 -0.0719
21178W        W36795   5.696  17.984  11.485 -0.3700  0.1138 -0.0204
21179W        W36796   8.656   1.438  11.771  0.1789  0.1241  0.4563
21180W        W36797  14.541  16.244   0.274  0.0210  0.2461  0.1327
21181W        W36798  14.140   4.543   4.216  0.0594  0.2013 -0.0686
21182W        W36799  11.286   1.697   0.578  0.0138  0.1280 -0.0409
21183W        W36800   2.530   3.573   1.034 -0.1206 -0.2193 -0.0257
21184W        W36801   8.215   4.007  14.950 -0.3225 -0.2796  0.0885
21185W        W36802  13.857  12.163  13.177 -0.0866 -0.0669 -0.0971
21186W        W36803   5.304   3.282   5.076  0.0470  0.2969  0.2432
21187W        W36804   2.567  15.489   3.456 -0.1033  0.0746  0.2446
21188W        W36805   5.343   0.555   2.123 -0.0135 -0.0475 -0.0777
21189W        W36806  14.146   4.139   3.061 -0.0278 -0.4491 -0.3245
21190W        W36807  13.127   4.268  12.235 -0.0119  0.0439 -0.2325
21191W        W36808  17.473   7.303   5.177  0.1659  0.0382 -0.2193
21192W        W36809   7.585   4.875  14.293 -0.4086  0.1658  0.0729
21193W        W36810   5.033  14.242  12.085 -0.1057 -0.3340  0.3337
21194W        W36811  12.239  15.920   1.219 -0.0976 -0.0226 -0.2176
21195W        W36812  12.585   3.017   4.675 -0.0444 -0.2589  0.0745
21196W        W36813  17.139  10.497   4.539 -0.0158  0.0140 -0.1499
21197W        W36814   5.030   8.442   2.388  0.1625 -0.0711 -0.0488
21198W        W36815   8.101  18.509   5.204 -0.0622 -0.0874  0.1753
21199W        W36816  18.344  13.872   5.044 -0.2157 -0.0017  0.1747
21200W        W36817  17.090  17.701  14.692 -0.1741  0.0191 -0.4364
21201W        W36818  17.941   6.106   2.988  0.0106 -0.0727 -0.5142
21202W        W36819  16.395   0.254   1.707 -0.2989 -0.1845 -0.1537
21203W        W36820   0.958  17.149  15.427 -0.0722  0.0072 -0.4259
21204W        W36821   5.256  15.837  12.217 -0.1610 -0.0154  0.0028
21205W        W36822   3.397   5.591   1.117 -0.3307  0.2310 -0.2039
21206W        W36823   4.411  15.739   4.974 -0.1473  0.0257  0.4516
21207W        W36824   1.733  17.815  13.365  0.0904  0.0170  0.1361
21208W        W36825   3.246  14.215   5.499  0.1124  0.3309  0.0720
21209W        W36826   3.201  15.276  12.871 -0.4192 -0.2178  0.0461
21210W        W36827   5.064  13.945   2.746 -0.0957 -0.0631 -0.3783
21211W        W36828  14.681   3.253  14.016 -0.3661  0.1443  0.0525
21212W        W36829   0.240   7.243  14.429  0.0136 -0.0413 -0.0192
21213W        W36830   1.023   4.869  12.312  0.2375  0.0793  0.0159
21214W        W36831   9.424  16.779  10.048 -0.3804  0.0618 -0.0053
21215W        W36832  15.092  16.377   5.763  0.2959 -0.1117  0.0506
21216W        W36833   0.261  12.178   0.078 -0.1367 -0.2736  0.0221
21217W        W36834  11.507  12.380   3.118  0.1513 -0.0238  0.0814
21218W        W36835  11.602   1.272   3.864  0.0122 -0.1048 -0.0187
21219W        W36836  15.531   2.782   3.488  0.0820  0.1348 -0.0527
21220W        W36837  10.055  13.968  13.348  0.0276 -0.3268  0.1460
21221W        W36838   1.010   2.166   4.502 -0.2787  0.0995  0.3703
21222W        W36839  15.072   9.801  15.522  0.0199 -0.0766  0.0496
21223W        W36840  17.994  10.128   3.687 -0.2249  0.1432 -0.2335
21224W        W36841   7.033  12.512   4.365  0.0494 -0.0390 -0.0545
21225W        W36842  11.897   4.732   1.173 -0.2663  0.1696 -0.0687
21226W        W36843   2.766  16.271  13.295 -0.1000  0.2735 -0.3163
21227W        W36844   4.165   1.958  13.828  0.0200  0.1198  0.1798
21228W        W36845  13.058   5.713   1.294  0.1738 -0.2570  0.1243
21229W        W36846  15.302   6.054   0.743 -0.3775 -0.3246 -0.1048
21230W        W36847   6.240  15.886  14.614  0.0693  0.0235 -0.1883
21231W        W36848  16.362  16.808   0.849 -0.2736 -0.2575 -0.0706
21232W        W36849  10.049  11.677   1.910  0.0160  0.1223 -0.1446
21233W        W36850   9.202  17.600  11.116 -0.5221 -0.1999 -0.1294
21234W        W36851   8.966  12.025   3.548  0.2899  0.0471 -0.2388
21235W        W36852   5.504  14.857   0.473  0.3995 -0.1290 -0.1165
21236W        W36853  17.157  13.481   1.747  0.0018 -0.0929 -0.4929
21237W        W36854  11.974  15.932   3.753  0.4326  0.1832  0.1248
21238W        W36855   5.920   2.366   3.182 -0.0556 -0.0059 -0.1824
21239W        W36856   9.446   8.292   1.365 -0.0184 -0.0078  0.0667
21240W        W36857   0.461   2.509   1.894  0.3340  0.1648  0.1081
21241W        W36858  18.545  15.618  15.711 -0.0373 -0.0154 -0.0075
21242W        W36859  13.652   4.313  12.361  0.3858 -0.0213 -0.0290
21243W        W36860   2.846   9.671  14.654 -0.1892 -0.1142 -0.3181
21244W        W36861  12.589  14.776  11.280  0.1822 -0.0906  0.0897
21245W        W36862   1.136   3.236   2.633  0.0163  0.2717 -0.1636
21246W        W36863   3.578   9.749   2.335  0.3141 -0.1755 -0.3702
21247W        W36864  12.693  16.802  11.002 -0.0792  0.1223  0.0604
21248W        W36865  16.404   6.188   3.700  0.0079  0.0972  0.0668
21249W        W36866   6.679  13.962   2.793  0.1393 -0.0942 -0.2161
21250W        W36867  16.755   1.985   1.946  0.2090  0.2298 -0.1164
21251W        W36868  10.674   3.861   0.589 -0.2055  0.1153 -0.0163
21252W        W36869   7.138   5.660  15.501  0.1943 -0.1113  0.2373
21253W        W36870  10.496   8.895  15.524  0.2137 -0.1907 -0.0802
21254W        W36871  13.139  17.042   1.733 -0.2370 -0.1452  0.3626
21255W        W36872   5.059   7.584  14.220  0.0996 -0.1551 -0.1403
21256W        W36873  10.705  12.304  13.392  0.1573 -0.0207 -0.0525
21257W        W36874   3.432  13.131   0.175 -0.0552  0.1189  0.4338
21258W        W36875  12.642   4.564  12.052 -0.2042  0.0310 -0.3028
21259W        W36876  12.084   0.655   1.283  0.2264 -0.0179  0.0809
21260W        W36877  15.746  16.247   5.177 -0.1222 -0.2009 -0.2557
21261W        W36878  17.617  15.421  11.522 -0.2594  0.1727 -0.3028
21262W        W36879  11.598   2.050  13.268  0.0275  0.0878 -0.0005
21263W        W36880   1.475   9.939  11.585 -0.0158  0.1577 -0.0303
21264W        W36881  14.230  10.390  10.385  0.0265  0.0339 -0.1390
21265W        W36882   6.723   9.162  15.018 -0.0123 -0.2244 -0.1658
21266W        W36883   7.881   1.148  11.935 -0.3427 -0.2774  0.0990
21267W        W36884  16.855   2.670  13.136  0.2113 -0.1302  0.1414
21268W        W36885  17.848  14.522   2.467 -0.1166  0.2048  0.1295
21269W        W36886   9.681   2.578  15.368  0.0175 -0.0774  0.0336
21270W        W36887  18.521  17.330  11.761 -0.2991  0.1393  0.0906
21271W        W36888  13.779  11.447   2.832 -0.1588 -0.0448  0.0550
21272W        W36889  14.437  11.178  10.393 -0.1606  0.2450 -0.0182
21273W        W36890   1.028   3.831  11.632  0.0538  0.1700  0.0802
21274W        W36891  17.686  11.481  12.598  0.0035 -0.0892  0.1872
21275W        W36892  16.681  14.168   2.387  0.2659 -0.2155 -0.1449
21276W        W36893  16.126  15.659  12.607  0.1694  0.1183 -0.1873
21277W        W36894   7.981  16.036  12.547 -0.0485  0.1930 -0.0002
21278W        W36895  16.328  17.949  15.535 -0.1651 -0.1900  0.1168
21279W        W36896   5.868   4.454   1.191 -0.2523 -0.0139  0.0469
21280W        W36897   7.335   9.286  12.170 -0.0542 -0.0109  0.2302
21281W        W36898   3.208  13.991   4.482  0.1095  0.0512  0.0700
21282W        W36899   1.392   5.505  10.712  0.1271 -0.4372 -0.0423
21283W        W36900  12.925   9.443  13.183 -0.1188  0.0223  0.1711
21284W        W36901   1.269   8.824   3.183  0.2544 -0.1024  0.0702
21285W        W36902   5.261  12.631   3.822 -0.2000 -0.0334  0.2456
21286W        W36903   9.132  13.029  13.815  0.0043  0.0173 -0.2117
21287W        W36904  17.912   1.213  15.575 -0.1918  0.0376 -0.2622
21288W        W36905  12.418  12.289  14.844  0.0073 -0.2877  0.0525
21289W        W36906   2.065   3.646   5.008 -0.1282 -0.3772 -0.3139
21290W        W36907  16.807  10.369   2.486 -0.0747  0.1786 -0.1725
21291W        W36908   8.902  13.882  12.300 -0.1607 -0.1348 -0.1801
21292W        W36909   6.547   5.545  11.828  0.0497  0.0683 -0.3317
21293W        W36910  13.259   5.488  10.271  0.3227 -0.0868 -0.0699
21294W        W36911  12.158   5.554   1.092  0.1783  0.1887 -0.1480
21295W        W36912   7.018   5.511   5.037  0.0722  0.2262  0.0236
21296W        W36913  17.596   1.308   0.395  0.1373 -0.0144  0.2371
21297W        W36914  15.906  16.759   2.532  0.3528  0.0427  0.0934
21298W        W36915  17.175   3.657  13.155  0.1114  0.1009 -0.0380
21299W        W36916  12.444  11.517   4.559 -0.1343  0.0611  0.0587
21300W        W36917  11.541   8.312   3.195  0.3040  0.0391  0.1769
21301W        W36918  16.213  18.515  12.959  0.2141  0.0004  0.3047
21302W        W36919  18.006  17.434   0.519  0.5951 -0.0591  0.0920
21303W        W36920  14.454   2.991   3.174  0.3882  0.1490  0.0885
21304W        W36921  12.821  16.495   1.809  0.2328  0.3499 -0.4039
21305W        W36922   8.713  13.628  10.348  0.3624 -0.1854  0.0731
21306W        W36923  10.782  12.091   1.382 -0.1724  0.0483 -0.0081
21307W        W36924  10.953   1.926  11.825 -0.2185 -0.0511 -0.0903
21308W        W36925  10.298   1.139   3.133  0.3340  0.2173 -0.1340
21309W        W36926  17.204   4.866   1.817 -0.3851  0.1589  0.2503
21310W        W36927  11.488  15.562   5.862 -0.0242  0.0456  0.0064
21311W        W36928  12.594   7.550   0.112 -0.0291 -0.0881  0.0426
21312W        W36929   1.061   8.225  14.803 -0.1400  0.0433  0.1493
21313W        W36930  10.081   8.047  12.763 -0.0593 -0.1866  0.1792
21314W        W36931  11.390  17.666   0.736 -0.1073  0.0862  0.0684
21315W        W36932  10.316  17.695  11.046  0.0097  0.1046  0.2934
21316W        W36933   6.638  14.878   4.736  0.0883 -0.3410  0.0548
21317W        W36934   8.878  18.026  13.472  0.4389  0.0147 -0.0620
21318W        W36935   1.413  17.447   2.923 -0.0961 -0.0395  0.1978
21319W        W36936  18.452  17.850  13.944 -0.0807 -0.2523 -0.1190
21320W        W36937  18.325   4.928   0.927 -0.3305  0.1272 -0.3867
21321W        W36938  12.148  17.374   3.114 -0.1486 -0.0441  0.2230
21322W        W36939   3.362   9.519  14.945 -0.1966 -0.0463  0.2082
21323W        W36940  11.790  17.566   3.994  0.4932 -0.1916  0.0452
21324W        W36941   7.020  14.778  15.416 -0.3409  0.0770  0.0400
21325W        W36942  10.614  13.690   4.415 -0.0796  0.3955  0.0593
21326W        W36943  11.924   3.836   5.598  0.4183 -0.2716  0.0999
21327W        W36944  13.103   7.907   3.211  0.1322  0.0213  0.1420
21328W        W36945   1.199  17.913  14.464  0.1439  0.2139 -0.0705
21329W        W36946  16.037   8.840  11.343 -0.1201  0.2289 -0.0184
21330W        W36947  17.623   4.885  13.414 -0.2009 -0.2937 -0.0683
21331W        W36948   2.860  10.914  13.045 -0.0938  0.2031 -0.3598
21332W        W36949   4.235   9.211   4.534 -0.1780  0.1860 -0.0847
21333W        W36950  13.380   4.575   5.139  0.0991  0.1078  0.1866
21334W        W36951   0.014   2.089  12.911 -0.4230  0.0888 -0.1045
21335W        W36952  10.443  14.872  12.011  0.2873  0.0701  0.1703
21336W        W36953   0.411   8.917   1.492 -0.1593  0.0301 -0.1785
21337W        W36954   0.543  16.846  13.948 -0.2576 -0.2385  0.0392
21338W        W36955  16.119   5.688   4.732  0.3113 -0.1245 -0.0529
21339W        W36956  14.576  14.028  13.603  0.0737  0.1287 -0.2017
21340W        W36957  17.303  11.564  13.441 -0.0955  0.0913  0.0436
21341W        W36958  17.728   8.968   1.722  0.0506  0.0578 -0.0502
21342W        W36959   3.256   2.944   0.716 -0.2561  0.0780 -0.3143
21343W        W36960   0.745   0.677   5.830  0.0275 -0.0056  0.0595
21344W        W36961   2.795  13.316   4.857  0.1410 -0.0902  0.0731
21345W        W36962  18.455   1.012  12.047 -0.0463  0.0786  0.1921
21346W        W36963   4.869  11.192  11.073  0.2218  0.0574 -0.0400
21347W        W36964  17.614   5.791   1.473 -0.0063  0.2668  0.1062
21348W        W36965   6.009   8.083  14.405 -0.3650  0.1796 -0.1276
21349W        W36966   4.354   9.734   5.389  0.2631  0.1289 -0.1590
21350W        W36967   5.422  11.328  11.261 -0.2204 -0.0187 -0.0331
21351W        W36968  16.635  15.365   0.114  0.4608 -0.1747 -0.2357
21352W        W36969  14.619  14.663   4.447 -0.3234  0.0619  0.2180
21353W        W36970  12.182  10.915   3.947 -0.4905  0.3760 -0.0299
21354W        W36971   1.297   3.763   3.295  0.2410 -0.1823  0.1477
21355W        W36972  18.045   3.861  13.661  0.2285 -0.0179  0.1417
21356W        W36973   5.232   5.751   0.074  0.2977  0.1026 -0.4979
21357W        W36974  18.218  12.565   4.777  0.3004  0.3813 -0.2622
21358W        W36975   0.801   2.124  14.644  0.3212 -0.2035  0.3189
21359W        W36976  13.296  13.757   3.004  0.0205  0.1052  0.1512
21360W        W36977   0.503   2.549  14.621 -0.0712 -0.0996 -0.1345
21361W        W36978  14.499  11.148   3.183 -0.0015 -0.0159 -0.2705
21362W        W36979  12.489  13.524   2.996 -0.0318  0.0081  0.3112
21363W        W36980   3.158  10.150  12.794  0.1174 -0.1992 -0.0381
21364W        W36981   0.669   7.645  11.481  0.2061  0.1989  0.0940
21365W        W36982   0.277   8.465   2.154  0.1188  0.2356  0.0038
21366W        W36983  10.905  18.151   4.142 -0.5123 -0.0840  0.0897
21367W        W36984  12.621   7.346   2.422  0.1665 -0.1768  0.1762
21368W        W36985  10.181   1.500  14.858 -0.4092  0.1689  0.0467
21369W        W36986   8.748   7.619  13.228 -0.0037 -0.1099  0.3059
21370W        W36987  13.538  17.524   4.702 -0.0978  0.2695  0.0071
21371W        W36988   4.389  10.202  15.694  0.0684  0.1790 -0.2704
21372W        W36989   8.558   4.993   2.483 -0.1048  0.0467  0.0387
21373W        W36990   9.187   4.090   1.150  0.4151 -0.2321 -0.1432
21374W        W36991   4.825  17.704  12.448  0.0530 -0.1147  0.1360
21375W        W36992   8.484   1.347   2.827 -0.0956 -0.0393 -0.0870
21376W        W36993  17.656   4.800  14.231  0.0706  0.4033 -0.0372
21377W        W36994  11.643   1.962   0.883 -0.0312  0.3489 -0.1664
21378W        W36995   3.240  17.930  13.001 -0.2943 -0.2387 -0.0468
21379W        W36996  18.030  10.548  14.854  0.1560  0.3788 -0.0783
21380W        W36997  17.580   6.122  13.528  0.1679  0.1955 -0.2394
21381W        W36998   5.390   9.239  13.038 -0.0012 -0.0187 -0.0827
21382W        W36999  13.963  12.075  10.559  0.2117 -0.0325 -0.0098
21383W        W37000  15.886   3.178   5.268  0.0995 -0.0915 -0.3915
21384W        W37001  10.856  13.735  11.916 -0.2812  0.2975  0.0953
21385W        W37002  16.808  15.166   5.010 -0.0873  0.0358 -0.0503
21386W        W37003   7.525  15.756  12.403  0.0745  0.1279 -0.0800
21387W        W37004   6.000   1.407  15.748  0.3522  0.0122  0.1915
21388W        W37005   8.276  17.863  11.517  0.1214  0.1847  0.0992
21389W        W37006   0.895  16.922   3.194 -0.1314 -0.0811  0.0326
21390W        W37007  14.310  10.096  15.143 -0.1214 -0.3369 -0.0152
21391W        W37008  14.623   3.346   3.791  0.0991 -0.2467  0.0644
21392W        W37009  13.551  14.026   0.067  0.4902 -0.1289  0.0289
21393W        W37010   7.960  17.967  13.831  0.2229  0.0394 -0.3362
21394W        W37011  12.847   5.739   4.630 -0.3467  0.1457  0.0996
21395W        W37012   8.329  10.359   2.027 -0.0185  0.2873  0.0621
21396W        W37013  10.511  10.156  15.754 -0.5289  0.0409  0.2730
21397W        W37014   1.698   7.367   0.229  0.1188  0.0086  0.0736
21398W        W37015  14.515   8.788  13.892 -0.1498 -0.0340 -0.0126
21399W        W37016  15.453  11.932   2.778 -0.0356 -0.0186  0.1645
21400W        W37017   9.700  14.817   2.963  0.2123 -0.0835 -0.3864
21401W        W37018  15.418   7.613  13.890  0.1083 -0.0018 -0.0762
21402W        W37019   3.847   2.586   5.414 -0.0160 -0.1436 -0.1008
21403W        W37020   5.998   4.541   4.168 -0.0876  0.2772  0.1546
21404W        W37021  13.679  12.298  12.112 -0.0757  0.0029 -0.2480
21405W        W37022  15.384   9.045   3.424  0.0552  0.2112 -0.0897
21406W        W37023  15.648  12.242   5.148 -0.0910 -0.0232 -0.0027
21407W        W37024  12.202   5.408   3.943 -0.1101 -0.1616 -0.2088
21408W        W37025   7.816   8.522  13.874 -0.0367 -0.1319  0.1061
21409W        W37026  10.981  13.607   2.397 -0.0664 -0.0530 -0.0047
21410W        W37027  10.710  13.415   3.082  0.2487  0.0685 -0.0085
21411W        W37028  13.411   0.240  15.469  0.0627  0.0977 -0.0612
21412W        W37029  15.878   6.044   5.102 -0.2211  0.2878  0.3034
21413W        W37030  17.435   9.618   3.488 -0.0234 -0.1740 -0.1441
21414W        W37031  12.365   7.801   0.457  0.1614  0.0966  0.0298
21415W        W37032  14.999  14.616   6.001  0.5108 -0.5670 -0.1125
21416W        W37033   9.396   5.993   4.214 -0.4412 -0.0885 -0.0655
21417W        W37034   4.447  12.226   4.904  0.4949  0.0878  0.0797
21418W        W37035  15.140   3.045  14.235  0.4626 -0.0290  0.1635
21419W        W37036  15.670   7.539   3.115  0.2970  0.3196  0.1702
21420W        W37037  15.007   4.040  14.761 -0.2323 -0.0883 -0.2600
21421W        W37038  12.003   6.277   2.721  0.3126  0.0314 -0.1228
21422W        W37039  18.265   2.843  15.685  0.2056  0.1336  0.0201
21423W        W37040  15.415  14.219   4.813  0.0478  0.0907 -0.1294
21424W        W37041  12.639  12.159   1.589 -0.0789  0.1524  0.3358
21425W        W37042   7.174   6.407  11.795  0.1760  0.1119 -0.2851
21426W        W37043  15.766   5.288   0.734  0.1291 -0.2094 -0.0413
21427W        W37044  10.857   3.918  14.986  0.0873  0.1144 -0.2812
21428W        W37045   3.600  18.139  14.136  0.2608  0.3548  0.1785
21429W        W37046   9.822   5.629  15.058  0.0135  0.0866 -0.2393
21430W        W37047   3.114  14.210  12.084  0.1049 -0.1501 -0.4745
21431W        W37048   3.298  11.589   0.735  0.0448  0.2531 -0.0292
21432W        W37049  17.151   5.778  14.913  0.2102 -0.4752  0.1601
21433W        W37050  14.861   7.746   3.176 -0.3180  0.2007  0.0853
21434W        W37051  11.427   0.512  11.578 -0.1908  0.3324 -0.0748
21435W        W37052   6.829   9.265   4.758  0.4277 -0.1821  0.1201
21436W        W37053   7.740   2.588   2.597  0.3307 -0.2503 -0.1028
21437W        W37054   7.896  15.805  15.732 -0.0839 -0.1408  0.2258
21438W        W37055   9.607   0.090   0.332 -0.0643 -0.1017 -0.2192
21439W        W37056  11.501  18.131   0.992  0.3081 -0.2972 -0.0768
21440W        W37057   3.138  16.737  13.358 -0.0285 -0.0159 -0.1184
21441W        W37058   6.744   3.476   6.158 -0.1088  0.0755  0.0096
21442W        W37059  17.842   9.733  10.531  0.0851  0.0520 -0.0587
21443W        W37060  17.830  14.563  12.083 -0.1542  0.3218 -0.3252
21444W        W37061  11.987   2.880  12.021  0.0116  0.0704  0.3318
21445W        W37062   1.664  15.899   3.140 -0.1399  0.0909 -0.3376
21446W        W37063   1.589  12.666   2.452 -0.0679  0.1659 -0.1212
21447W        W37064   5.854  17.082  13.752 -0.0687  0.0764 -0.2094
21448W        W37065  18.059   2.883   3.114  0.1844 -0.0252 -0.0745
21449W        W37066   9.923   0.483  12.236  0.0891 -0.0686 -0.0998
21450W        W37067  14.923   5.392   4.507  0.0848 -0.1194  0.2040
21451W        W37068  17.302   6.519   0.457  0.1301 -0.2459 -0.0688
21452W        W37069   7.662   3.612   3.913  0.1723  0.0475 -0.1466
21453W        W37070   0.652  18.224  13.458  0.1200 -0.2419 -0.0540
21454W        W37071  10.743  11.433   2.540 -0.2954 -0.1193  0.2011
21455W        W37072   1.912  11.376  14.697 -0.1505 -0.1601 -0.4223
21456W        W37073   8.868  11.804   2.575 -0.1905 -0.1058 -0.1092
21457W        W37074   5.681   9.243   1.888  0.1754  0.0194 -0.1036
21458W        W37075  16.467  14.068  14.920  0.3748 -0.1315 -0.0379
21459W        W37076   1.423  10.215  15.523  0.0822 -0.0936  0.0371
21460W        W37077   8.541   5.268  12.952  0.0540 -0.0450  0.1945
21461W        W37078  10.913   0.392   0.141  0.0824 -0.0337 -0.1159
21462W        W37079  14.583  17.425   4.749  0.2499 -0.0495  0.0979
21463W        W37080  13.458  17.442  11.456 -0.2223  0.1215  0.2184
21464W        W37081   1.552   8.057  13.567  0.1782  0.0077 -0.1504
21465W        W37082   0.093  17.798   5.587  0.0592  0.3092  0.1642
21466W        W37083   6.175   0.836   4.816  0.1392  0.0686  0.0506
21467W        W37084  15.412   4.309   6.126 -0.0235  0.0339 -0.2923
21468W        W37085   4.484  12.326   2.815 -0.1584  0.0353 -0.1542
21469W        W37086   4.637  14.500   1.973 -0.1650  0.3155  0.0387
21470W        W37087   4.497  16.616  14.722 -0.1088 -0.4565  0.0306
21471W        W37088   1.066   1.828  11.340 -0.0663 -0.0654 -0.1594
21472W        W37089   9.226   5.600   3.836 -0.5761  0.1184  0.0302
21473W        W37090   7.641   4.904  11.391  0.2472 -0.5031 -0.1193
21474W        W37091  10.433  12.209   4.239 -0.0921 -0.1008  0.0600
21475W        W37092   4.219   5.201   1.357  0.1462  0.2003  0.0947
21476W        W37093   6.873  16.270   1.615  0.0064 -0.0385  0.0638
21477W        W37094  13.996   2.473   1.090  0.1226 -0.0405  0.0153
21478W        W37095  11.864  12.509   1.297 -0.1305  0.2297 -0.1073
21479W        W37096   0.697   1.114  11.058  0.0531 -0.1466  0.1197
21480W        W37097   3.218   2.283   2.624  0.0036  0.2482  0.1434
21481W        W37098   9.898  15.150  11.253 -0.0802 -0.2331 -0.1317
21482W        W37099   5.541   9.737   0.496 -0.1224 -0.0032  0.0698
21483W        W37100   0.504   3.096   4.444  0.1236 -0.0430  0.1323
21484W        W37101   7.925  12.227   2.279  0.0314  0.0232 -0.2127
21485W        W37102   7.402   1.908   2.421 -0.3671  0.0426  0.2283
21486W        W37103  15.665  17.141  15.322 -0.2063 -0.1200  0.2700
21487W        W37104   9.243   1.141  15.168  0.0743 -0.3588  0.4119
21488W        W37105  13.356   3.967   0.138  0.0909  0.1502 -0.0077
21489W        W37106   5.416   5.450   3.539  0.1084 -0.0670 -0.1023
21490W        W37107  10.143   9.137   5.028 -0.1091  0.0655 -0.1894
21491W        W37108   1.665  13.155  14.996  0.1685  0.0884 -0.1041
21492W        W37109   5.587   1.992   4.769 -0.1236  0.0049 -0.1124
21493W        W37110  17.257   3.622   0.390  0.2111  0.2635 -0.0535
21494W        W37111  13.691   8.118   4.050 -0.1606  0.0280 -0.1942
21495W        W37112   5.229   7.965   0.661  0.4171  0.2415 -0.1309
21496W        W37113  12.108  12.689   4.013 -0.1848  0.0815  0.1640
21497W        W37114   0.714  15.530   1.920 -0.0014 -0.1437 -0.2538
21498W        W37115  13.330   2.390  12.475 -0.0845  0.2272 -0.1393
21499W        W37116  15.200  10.845   5.669  0.1089  0.0619 -0.2808
21500W        W37117   4.136  11.462  12.752  0.1533 -0.1806  0.0697
21501W        W37118  10.515   5.605   2.166  0.2274  0.0293 -0.0796
21502W        W37119   8.361   3.812   0.671  0.2400  0.4108 -0.0584
21503W        W37120   1.881  15.104   0.264  0.0139  0.0363 -0.0848
21504W        W37121  12.514  13.544   4.579 -0.0845 -0.2907  0.0461
21505W        W37122   1.042   5.019  11.837  0.0623 -0.4481  0.0906
21506W        W37123   6.183  15.920  10.630  0.1417  0.3383 -0.3953
21507W        W37124   4.212  16.803   0.160 -0.1264 -0.2234  0.3025
21508W        W37125   6.918  15.712   4.984  0.4387 -0.0275  0.1508
21509W        W37126   1.509  10.635   3.118  0.0412  0.1452  0.0179
21510W        W37127   4.030   7.106  13.272 -0.3861 -0.4305 -0.0238
21511W        W37128  12.810  18.385   5.353 -0.2092  0.0366 -0.0551
21512W        W37129  16.218  18.656   2.863  0.3540 -0.1353 -0.0554
21513W        W37130   0.144   8.799   0.475 -0.0621  0.0572  0.1843
21514W        W37131  13.244  15.540  14.031 -0.1356 -0.1592 -0.2255
21515W        W37132   6.792   8.969  11.263 -0.0349 -0.0179  0.1580
21516W        W37133  13.035   6.047   1.945  0.1040 -0.1005  0.1320
21517W        W37134   9.039  14.922   2.386 -0.0812 -0.0800 -0.0941
21518W        W37135  13.435  16.978   3.978  0.2448  0.0453 -0.0636
21519W        W37136  18.287  18.580  11.845 -0.0666  0.0665  0.0489
21520W        W37137  12.280   0.267   3.328 -0.0376  0.2098  0.2403
21521W        W37138   0.494   0.165   2.590  0.4863  0.2160 -0.4397
21522W        W37139   9.947   1.127   5.177 -0.0443 -0.0759  0.4073
21523W        W37140   9.863   6.248   0.931  0.0593  0.4296 -0.0891
21524W        W37141   1.051   2.949   5.300  0.0972 -0.0789  0.3078
21525W        W37142  10.444   9.784   2.628  0.4209  0.0284  0.0068
21526W        W37143  18.218  10.622   2.610  0.0269  0.1612 -0.2075
21527W        W37144   9.075  17.150   0.352  0.0016  0.1206 -0.0612
21528W        W37145  17.806   7.633  11.317 -0.2806 -0.1426  0.0711
21529W        W37146  14.352   9.835   0.342 -0.1822  0.1439  0.0439
21530W        W37147  17.480  17.661   2.276 -0.2227 -0.2544  0.0163
21531W        W37148  11.874  10.492   3.632  0.2085 -0.2563 -0.0496
21532W        W37149  12.728   8.948  13.122 -0.0838  0.1717 -0.0976
21533W        W37150   0.198   3.813  12.979 -0.3036 -0.1114  0.0726
21534W        W37151  18.444   8.242  15.436  0.2892 -0.1655  0.2196
21535W        W37152   5.926   9.346  13.686  0.0430 -0.4432 -0.2453
21536W        W37153   6.370  16.541   0.820  0.1903  0.0346  0.1311
21537W        W37154   8.811  12.311  10.998  0.3605  0.1059 -0.4263
21538W        W37155  14.878  12.838   0.313  0.0407  0.0392  0.1708
21539W        W37156   5.596   4.035  11.958  0.0594  0.0765  0.0484
21540W        W37157  10.115  13.851  10.740 -0.2593 -0.2171 -0.1768
21541W        W37158   4.771  13.430  10.620 -0.1388 -0.1661 -0.0976
21542W        W37159  17.477  10.975   0.757 -0.0283  0.2549 -0.4308
21543W        W37160  17.402  14.126  11.456 -0.0625  0.0895  0.0071
21544W        W37161   7.720  10.252   3.542  0.1894 -0.0216 -0.0539
21545W        W37162   7.948  18.106   1.023  0.1118  0.2943 -0.0539
21546W        W37163  17.748  17.994   3.713 -0.0849 -0.4372 -0.2348
21547W        W37164   3.965  16.393  15.725 -0.1562  0.0746  0.0321
21548W        W37165   0.226  14.841  10.897  0.1021 -0.1829  0.2323
21549W        W37166  10.443   9.514   4.853 -0.6179  0.3745 -0.0612
21550W        W37167  17.813  12.579  15.131 -0.1778  0.0346 -0.0569
21551W        W37168   5.109   5.781   3.967  0.0272  0.0341  0.0312
21552W        W37169  13.310   1.142   0.055 -0.0027  0.3485  0.0198
21553W        W37170   7.485   7.949   1.515 -0.4699 -0.1322 -0.1882
21554W        W37171   1.712   4.481   1.750 -0.2475 -0.1375  0.0009
21555W        W37172  15.135  17.151  15.320  0.1517 -0.2882  0.1889
21556W        W37173  10.457  10.075  12.260 -0.0188  0.1477  0.0716
21557W        W37174   9.189  18.277  12.417  0.0060  0.0600 -0.2521
21558W        W37175  10.345   1.152   0.564  0.0028  0.0363 -0.1830
21559W        W37176   8.066   6.994   6.144  0.1182 -0.1731  0.0973
21560W        W37177   4.449  16.818  10.483  0.2102 -0.0114 -0.2968
21561W        W37178  14.917  18.104  15.314  0.0651 -0.0733  0.1858
21562W        W37179   9.926   5.910  14.291 -0.0470  0.0550 -0.3721
21563W        W37180  10.753  17.397  14.204 -0.1028  0.0884 -0.3125
21564W        W37181  12.182  11.315  14.860 -0.0874  0.2448  0.1700
21565W        W37182   0.555  12.363  14.256  0.0493 -0.2158  0.2850
21566W        W37183   3.593  11.581   2.608  0.0465  0.0963  0.0547
21567W        W37184  17.469   6.371  10.486  0.0177 -0.2351 -0.1748
21568W        W37185   9.579  16.290   5.285  0.1068  0.0600 -0.2827
21569W        W37186   8.018   6.918  13.691  0.1252  0.1038 -0.1718
21570W        W37187  17.078  13.109  15.553 -0.4118  0.1287 -0.0114
21571W        W37188  11.340  14.349  14.217  0.2467 -0.1323 -0.1493
21572W        W37189  13.757   7.572  11.654  0.1539  0.1385  0.0642
21573W        W37190  18.625   8.853   1.968 -0.0412  0.0323  0.1259
21574W        W37191   0.637  13.517  10.774 -0.1560  0.3740 -0.0852
21575W        W37192  15.585   2.232   5.319 -0.4152 -0.0235 -0.0811
21576W        W37193  18.424   9.306  12.194  0.1041  0.1883  0.0229
21577W        W37194   2.111  17.155   4.979  0.1939 -0.0590  0.2246
21578W        W37195  13.209   1.802  13.954  0.3508  0.0409  0.3226
21579W        W37196  13.394   8.301   2.320 -0.1275 -0.3220  0.0627
21580W        W37197  14.332   1.310  14.607 -0.2984  0.0822 -0.1501
21581W        W37198   4.815  16.258   4.469  0.2535  0.1628  0.2593
21582W        W37199   6.680  13.286   1.831 -0.0063  0.0909 -0.2723
21583W        W37200   4.225   7.983   4.895 -0.3777  0.0007  0.0304
21584W        W37201   3.658   9.965  11.129  0.4478  0.1143 -0.0280
21585W        W37202   5.906  16.567   2.499  0.0140  0.1137  0.0157
21586W        W37203   5.932  15.330  15.440 -0.2019  0.2091 -0.2451
21587W        W37204  11.132  16.489  11.769  0.0742  0.2401 -0.2924
21588W        W37205  17.845  18.011  12.819  0.0041  0.4652 -0.3189
21589W        W37206  18.386   2.772   3.492  0.0832  0.0849  0.1227
21590W        W37207   6.047  10.913  12.371 -0.3886 -0.3372  0.0033
21591W        W37208  13.631  16.120  12.873  0.2907  0.0473 -0.1739
21592W        W37209   4.933   6.084  12.778  0.0059 -0.0846  0.0676
21593W        W37210   9.488   3.091   1.198  0.1968 -0.1059  0.0121
21594W        W37211  15.740  10.877   3.148  0.0351 -0.1113  0.0349
21595W        W37212  18.190  16.015  14.532  0.0351 -0.2248 -0.0617
21596W        W37213  11.343  16.267  12.618 -0.2771  0.0229  0.2126
21597W        W37214   0.965  11.509  13.825 -0.0897  0.0172  0.0789
21598W        W37215   8.231  15.414  15.109 -0.1429  0.0557 -0.4083
21599W        W37216   9.216   7.436  13.614  0.0575 -0.1388  0.0085
21600W        W37217  13.723  10.124   3.375  0.3338  0.0108  0.0224
21601W        W37218  10.312  15.767   0.636 -0.0213  0.2540  0.0288
21602W        W37219   1.537   5.224   1.599  0.3144 -0.0038  0.0560
21603W        W37220  13.303  14.002   1.144 -0.4295 -0.1361  0.0965
21604W        W37221  16.536   5.944   0.598 -0.1675 -0.1353 -0.2981
21605W        W37222  14.616   4.385   4.390 -0.0114 -0.1671 -0.2347
21606W        W37223   6.063  14.223  11.782  0.1760 -0.4001  0.2770
21607W        W37224   5.173   7.432   0.410 -0.1463 -0.1488 -0.0652
21608W        W37225  12.647   7.431  14.367  0.0724 -0.1084 -0.1166
21609W        W37226  17.969   9.039   1.214  0.0819  0.4178  0.0875
21610W        W37227   3.502   5.701  15.022  0.1438 -0.0339  0.0782
21611W        W37228   0.816   5.372  12.178  0.0367  0.2586 -0.0839
21612W        W37229   8.950  14.506   4.669  0.4080 -0.0947  0.1936
21613W        W37230  17.312  16.705   3.234 -0.0465  0.1931  0.0114
21614W        W37231   2.515  10.380   0.770  0.0215  0.2931  0.0843
21615W        W37232  14.359  13.213   4.803 -0.0864  0.2639 -0.0794
21616W        W37233  11.589   5.837   2.324 -0.1874 -0.0872  0.1143
21617W        W37234   0.594  14.647   4.112  0.2738 -0.2841 -0.0971
21618W        W37235   3.259   2.990   0.111 -0.4265  0.0307 -0.1690
21619W        W37236  12.449  12.756  12.112  0.1484  0.2689 -0.2224
21620W        W37237   5.985   0.962  12.508 -0.0033  0.5221 -0.0291
21621W        W37238   1.356  14.729   2.441 -0.0926  0.1403  0.0772
21622W        W37239  15.680  15.365   1.052  0.1384  0.1763  0.1677
21623W        W37240   3.439  16.204  15.409 -0.3243 -0.0632 -0.1181
21624W        W37241   2.841  14.711   2.356 -0.0377 -0.0499  0.2027
21625W        W37242   1.045   5.197   3.799 -0.0984  0.0430 -0.3378
21626W        W37243   0.378   1.041  14.989 -0.1227  0.2195 -0.2089
21627W        W37244   2.591   0.980   1.954  0.1155  0.1702  0.2084
21628W        W37245  14.921   2.072   0.719 -0.1148 -0.0046  0.1830
21629W        W37246  17.474   8.019   4.462 -0.3393 -0.1324  0.1729
21630W        W37247   4.676  16.893   3.045 -0.2512  0.1292  0.3999
21631W        W37248   5.418  12.389  12.993 -0.0589 -0.0430  0.0425
21632W        W37249  16.049   5.412   3.528  0.0239  0.4194  0.1994
21633W        W37250  12.061  15.479  13.525 -0.0979 -0.0601 -0.0320
21634W        W37251   4.035   3.267  12.307  0.4079 -0.2313  0.1051
21635W        W37252  14.404   0.999   4.030  0.1722  0.1645 -0.0008
21636W        W37253  12.889  13.761   1.467  0.0400 -0.1536  0.1338
21637W        W37254   7.202  18.622   0.340 -0.0971  0.3789  0.0180
21638W        W37255   4.936   0.143   4.117 -0.2509  0.3596 -0.2876
21639W        W37256   6.616  17.007  12.122  0.0798 -0.0191  0.1069
21640W        W37257   1.668  15.591  11.325  0.0287  0.0053 -0.3055
21641W        W37258   7.648  12.314   3.671  0.5997 -0.0751  0.0135
21642W        W37259  11.501  11.194   4.778 -0.0260  0.1433  0.1063
21643W        W37260  10.775   8.404  15.217  0.1758 -0.1879 -0.1154
21644W        W37261  14.175  14.130  15.232  0.1040 -0.2399  0.1697
21645W        W37262  10.815  15.531   2.396  0.3040 -0.5665 -0.0870
21646W        W37263   3.226   9.592   3.539 -0.0740  0.0479  0.4266
21647W        W37264  13.655  10.129  11.630 -0.0281  0.3777 -0.1059
21648W        W37265  15.103  17.835  12.345 -0.1106 -0.0055  0.0856
21649W        W37266  14.201   8.024   2.441  0.4184  0.0391  0.0060
21650W        W37267   1.417  13.579   0.027  0.1724 -0.4172  0.0728
21651W        W37268   1.708  12.278  11.135 -0.0867 -0.0626  0.1276
21652W        W37269  13.102  12.383  13.769 -0.0573 -0.1852  0.2790
21653W        W37270  14.867   4.277   1.315 -0.0606  0.0678 -0.2024
21654W        W37271  12.699  14.591  15.564  0.3707  0.3263  0.1383
21655W        W37272   9.960   6.895  14.250 -0.0206 -0.1279  0.5485
21656W        W37273   8.137   4.054  11.827 -0.6365  0.2146  0.1936
21657W        W37274  13.320   4.529  11.839 -0.0487 -0.0538 -0.0065
21658W        W37275  15.304   5.465   4.032 -0.3094  0.1009 -0.0722
21659W        W37276  15.794   6.515   1.408 -0.1314  0.1191  0.0875
21660W        W37277   8.561   0.523   3.643 -0.2752 -0.3076 -0.4743
21661W        W37278   9.786  18.066   5.277  0.1846 -0.0137 -0.0882
21662W        W37279   7.867   3.714   5.687 -0.0279  0.0716 -0.0490
21663W        W37280   8.184   9.926   2.306 -0.0468  0.1351 -0.1885
21664W        W37281  16.755  18.283  12.432 -0.0853  0.0053  0.0441
21665W        W37282  12.775   1.292  13.395 -0.1951 -0.0214  0.0010
21666W        W37283   5.899   5.617  10.207  0.4710 -0.0067 -0.0260
21667W        W37284   0.613  10.280  11.487  0.4341 -0.0361  0.1973
21668W        W37285   2.164   1.355  12.080  0.0777 -0.0629  0.2078
21669W        W37286   7.839   2.564   5.168 -0.0348 -0.1649 -0.3465
21670W        W37287   8.563   6.917  11.845  0.2906 -0.0848 -0.0120
21671W        W37288   0.075   8.271  11.986  0.0578 -0.2902  0.3052
21672W        W37289   1.275   0.588   5.888  0.1384 -0.2885  0.1623
21673W        W37290  14.411   4.836   2.446  0.1037  0.0661 -0.1554
21674W        W37291   2.741   2.186  12.631  0.0745 -0.1001  0.0175
21675W        W37292   7.055  11.618  15.174 -0.0821 -0.2260 -0.3463
21676W        W37293   2.989   5.784  14.951 -0.2024  0.1921  0.0329
21677W        W37294   5.538  11.973  12.635  0.2283 -0.1872 -0.3936
21678W        W37295   1.384  13.792   2.010 -0.2784 -0.1301  0.2394
21679W        W37296   3.512  10.892  14.366  0.2362 -0.0432 -0.0731
21680W        W37297  16.625  17.500  14.561  0.6178  0.2817  0.0841
21681W        W37298  11.977  11.271  12.460  0.0066 -0.2854  0.0699
21682W        W37299   3.617   7.468  13.384  0.0712  0.0008 -0.1620
21683W        W37300  16.804   0.872   5.906 -0.1202  0.1104 -0.1595
21684W        W37301   1.261  16.724   1.901 -0.2332 -0.0188  0.2579
21685W        W37302   3.626   0.610   3.074 -0.1558 -0.0624 -0.2004
21686W        W37303   1.358  10.206   4.899 -0.0287  0.0331 -0.0615
21687W        W37304   0.215   6.243   0.511  0.2275  0.2935  0.1981
21688W        W37305  16.117  17.750   2.040 -0.2282 -0.1595  0.1852
21689W        W37306  12.036   6.418  13.850  0.0738 -0.0202 -0.2332
21690W        W37307  12.554   3.854  14.131  0.0690  0.0498 -0.3195
21691W        W37308   2.503   3.636  11.630  0.3568  0.0056  0.2738
21692W        W37309  12.573  11.484   0.718  0.0333  0.0247 -0.2864
21693W        W37310   3.800  13.618   2.020 -0.1401 -0.1819 -0.1696
21694W        W37311  17.277  13.569  11.625 -0.1891  0.0258  0.0151
21695W        W37312  14.837  16.950   0.831  0.1095  0.0836  0.3899
21696W        W37313   9.299  16.796   3.300  0.0194 -0.1876  0.0421
21697W        W37314   6.595   4.237   5.175 -0.0797 -0.3205 -0.1266
21698W        W37315   3.456   2.088  14.430 -0.2463  0.0093 -0.0507
21699W        W37316   8.375   0.889   2.060  0.1633 -0.0988  0.0874
21700W        W37317   5.053   4.506   3.989  0.0666  0.1928 -0.1233
21701W        W37318  18.568  14.172   3.011 -0.0660 -0.2673 -0.1356
21702W        W37319   6.273  11.798  11.999  0.0152 -0.2344 -0.0548
21703W        W37320   9.741   4.543   4.627  0.0752  0.1549  0.0302
21704W        W37321   9.155  12.399   3.230 -0.0526  0.0510 -0.0610
21705W        W37322  17.334  18.041   2.589  0.1387 -0.1415 -0.4764
21706W        W37323  14.682   9.228  14.729 -0.4889 -0.2904 -0.1578
21707W        W37324   5.812  13.629  12.548  0.1126  0.0063 -0.2318
21708W        W37325   5.735   7.671   5.541  0.2185 -0.0766 -0.0000
21709W        W37326   8.587   0.317  13.290  0.2490  0.1564 -0.0711
21710W        W37327   7.552  13.103   5.490 -0.1802 -0.0761 -0.0106
21711W        W37328  17.065  17.440  12.743 -0.3213 -0.1236 -0.0495
21712W        W37329  18.392   0.170  13.016 -0.1045 -0.1817  0.0060
21713W        W37330   4.286   3.234   0.209 -0.3042 -0.1219  0.5190
21714W        W37331  16.476  13.887   4.385  0.0531 -0.0593 -0.0438
21715W        W37332   8.594  12.030   0.147 -0.1213  0.2706 -0.1311
21716W        W37333   7.306  17.470  13.275  0.1800 -0.0148 -0.0005
21717W        W37334  16.276  15.637   5.408  0.2652 -0.5104 -0.0308
21718W        W37335   5.246  10.818  11.044  0.0209 -0.1725  0.1713
21719W        W37336  18.427  12.966   0.373 -0.3803 -0.3884  0.0648
21720W        W37337   8.427   8.829   1.079  0.3523  0.0680  0.0305
21721W        W37338   6.042  10.982   4.567  0.0594  0.2914  0.1635
21722W        W37339  17.829  17.671  13.989 -0.3907 -0.1568 -0.1532
21723W        W37340  10.323   6.968  13.343  0.1302 -0.0385 -0.1492
21724W        W37341  10.146  12.805   1.815  0.2535  0.3992 -0.3041
21725W        W37342   4.635   4.730   6.720 -0.2412 -0.0732 -0.2563
21726W        W37343   3.806  14.379   3.211  0.0912 -0.1281 -0.2741
21727W        W37344  15.208   3.745   3.400 -0.1096  0.2399  0.1583
21728W        W37345   0.039  12.088   3.613 -0.0306 -0.1567 -0.0379
21729W        W37346   0.134   5.771  14.691 -0.0430 -0.2709 -0.1296
21730W        W37347  17.185  15.186  14.806  0.1174  0.1250 -0.2387
21731W        W37348  14.069   8.965  11.979 -0.1517 -0.1184 -0.3043
21732W        W37349  12.196  17.473  12.796 -0.0179  0.3321  0.1980
21733W        W37350  14.565  17.917   4.457 -0.1862 -0.1308  0.2102
21734W        W37351   4.954  16.590  12.199  0.0629 -0.1677  0.1506
21735W        W37352  12.098   5.103  15.617 -0.0160  0.0440 -0.3803
21736W        W37353   3.330   3.501   4.478 -0.3661 -0.0792 -0.0031
21737W        W37354  12.052  13.884   0.332  0.0892  0.0284  0.1995
21738W        W37355  17.004  10.422  13.380 -0.0211  0.1787 -0.0823
21739W        W37356  11.013  10.144  12.866 -0.0930  0.1674 -0.1553
21740W        W37357   2.332   0.313  10.793 -0.3456  0.1470 -0.1180
21741W        W37358   8.948  16.573  11.912 -0.2804  0.3588  0.0093
21742W        W37359   4.893   2.767   4.600  0.0072 -0.1291  0.0710
21743W        W37360   6.560   7.447   5.157  0.1638  0.0756 -0.0930
21744W        W37361   1.060   2.538   3.705 -0.1073 -0.0228  0.0043
21745W        W37362  17.770   0.732   3.338 -0.3399  0.3779  0.0212
21746W        W37363   1.439  12.371  13.044  0.0559  0.1772 -0.1380
21747W        W37364   8.875  15.556   3.657  0.2779 -0.1911 -0.1219
21748W        W37365   5.423  18.504   5.149  0.1060  0.2625 -0.1756
21749W        W37366  14.550   9.876  14.206 -0.2205 -0.1936  0.1292
21750W        W37367   0.949  14.664  14.817 -0.3301  0.3132 -0.0281
21751W        W37368  14.694   9.226   3.063  0.0351  0.0489 -0.0712
21752W        W37369  18.395  17.700   4.191  0.0537  0.0239  0.2417
21753W        W37370   6.769  13.586   3.204  0.0060 -0.2697  0.0639
21754W        W37371   4.649   6.250   2.105  0.2738 -0.0696  0.5052
21755W        W37372   4.002  12.337   4.622 -0.1685  0.2007  0.2314
21756W        W37373   1.039  12.130   0.435 -0.0138  0.0834  0.3767
21757W        W37374  14.676   4.372  14.680 -0.1896  0.0589  0.0698
21758W        W37375  17.054  11.578  14.717  0.2312  0.3298  0.0759
21759W        W37376  12.052  14.179   3.970 -0.0243  0.1380 -0.2820
21760W        W37377   7.679  10.040  14.458  0.0265  0.0710  0.2638
21761W        W37378   9.842  15.156   3.638 -0.1182  0.0967  0.0884
21762W        W37379   4.251   7.144   0.361 -0.1104  0.0505 -0.0408
21763W        W37380   7.858   6.902   4.026 -0.0605 -0.0201  0.2339
21764W        W37381   1.714   3.248   4.590  0.1230  0.1096  0.0572
21765W        W37382   6.110  15.320   4.498 -0.1576 -0.0822  0.0235
21766W        W37383  15.401  17.459   3.507  0.2798 -0.1767  0.0535
21767W        W37384  15.911  14.586  15.492  0.1341 -0.0422 -0.1601
21768W        W37385  14.696  14.650   2.112 -0.0419  0.0272  0.1435
21769W        W37386  11.425  15.317  12.226 -0.1518  0.2612  0.3058
21770W        W37387  12.881   9.086   0.171  0.1054  0.0190 -0.0069
21771W        W37388   3.140  10.491  12.006 -0.0011  0.0883 -0.2318
21772W        W37389  16.672   6.685  12.648 -0.0943  0.2929 -0.2714
21773W        W37390   6.542  12.484  14.077  0.1875 -0.1090  0.1889
21774W        W37391   5.268   0.614  11.537  0.1752 -0.0841  0.0872
21775W        W37392   6.043   0.801  14.946 -0.0874 -0.1548  0.1738
21776W        W37393  13.500   3.077   1.328  0.0878  0.0762 -0.1711
21777W        W37394   4.843   0.463   0.514 -0.1167  0.1249  0.0238
21778W        W37395  14.604   9.899  15.672  0.3293  0.0601  0.1124
21779W        W37396  12.412  17.189  15.210 -0.1838  0.4694  0.2406
21780W        W37397   4.839  18.044  15.286 -0.2608 -0.1658  0.2312
21781W        W37398   3.770   4.598  11.655 -0.0040 -0.0699  0.0962
21782W        W37399  17.212  17.781   5.148 -0.1531  0.0429 -0.0146
21783W        W37400  12.911  13.303  11.003 -0.3565  0.2453  0.3247
21784W        W37401   7.377  13.177  12.859 -0.1704 -0.1291 -0.1541
21785W        W37402   7.420  16.684   4.589  0.0024  0.0551 -0.1981
21786W        W37403   4.728   3.946  13.561  0.2432  0.2530 -0.3053
21787W        W37404   4.494   4.511   1.300  0.1707  0.1592 -0.0120
21788W        W37405  13.404  14.896   1.407  0.5409 -0.2673 -0.0725
21789W        W37406   6.026  13.583   3.062  0.1659  0.1505  0.1901
21790W        W37407   9.475   9.704  14.963 -0.0704 -0.0865  0.1255
21791W        W37408  16.599   9.840   9.382 -0.1468  0.2991  0.0750
21792W        W37409  12.845  14.131  12.138 -0.0335  0.0135 -0.0440
21793W        W37410   8.255  13.198   3.698  0.1310  0.0683 -0.1756
21794W        W37411   6.094  11.300  13.729 -0.0443 -0.2019 -0.1131
21795W        W37412   2.909   3.161   2.721  0.3050 -0.1189  0.1008
21796W        W37413  15.597   9.845  13.138 -0.0676 -0.2976  0.0619
21797W        W37414  15.990  15.557   0.712  0.1006 -0.3085  0.0288
21798W        W37415   3.291  17.108   3.578  0.1437 -0.3682  0.2931
21799W        W37416   4.155   8.799   1.112  0.1701  0.0496  0.1533
21800W        W37417   1.603   4.458  15.598  0.4095  0.3909  0.1482
21801W        W37418   7.425   5.356  13.919 -0.1157  0.1753 -0.0555
21802W        W37419  10.958   5.703   6.027 -0.1427 -0.0088  0.0869
21803W        W37420   0.703   8.001   4.282  0.1052 -0.0325  0.2154
21804W        W37421  10.257   2.702   0.997 -0.1759 -0.0349  0.0538
21805W        W37422   3.250   7.075   1.286  0.0445  0.4114 -0.0701
21806W        W37423  13.386   1.604   0.554  0.2302  0.0288 -0.2390
21807W        W37424   4.329   9.085   1.511  0.3360  0.3214 -0.0830
21808W        W37425  12.796   2.664   5.503 -0.4178 -0.3454 -0.1154
21809W        W37426  18.392   6.718  10.567 -0.0934  0.1937  0.0941
21810W        W37427  14.185   8.239   3.804 -0.0330 -0.1921 -0.0112
21811W        W37428   5.198  10.991  12.061 -0.2545  0.2537 -0.1878
21812W        W37429   2.208   7.171  15.788 -0.0463  0.1322  0.0718
21813W        W37430  13.290   3.500  12.739 -0.0128 -0.2192  0.1213
21814W        W37431  15.324   7.307  14.884  0.2195  0.1130  0.0463
21815W        W37432  10.773   0.259   3.718  0.1092 -0.1860  0.2703
21816W        W37433  15.949   4.387   0.683  0.0533 -0.0107 -0.1231
21817W        W37434  13.812  13.489  12.988 -0.0052 -0.0773 -0.3091
21818W        W37435   3.307   3.076  11.354 -0.4375  0.0237  0.0249
21819W        W37436  17.762   0.759  13.245 -0.0476  0.0679  0.0415
21820W        W37437  12.904  17.044  15.596 -0.1112 -0.2015 -0.1153
21821W        W37438   8.840   7.326   2.922 -0.1349  0.0780 -0.0208
21822W        W37439   1.982   4.362   4.917  0.1753  0.0478  0.1344
21823W        W37440  16.528   0.828   2.839 -0.2814 -0.1997  0.1947
21824W        W37441  18.333   4.872  15.054 -0.4218 -0.5902 -0.2258
21825W        W37442   6.598   8.612   1.046 -0.0738  0.2025  0.1903
21826W        W37443  11.521   8.576   1.892 -0.2267 -0.0645  0.1921
21827W        W37444   9.765  16.297   4.766  0.0384 -0.0653 -0.0293
21828W        W37445  14.706  15.255  14.274 -0.4254  0.0035  0.1217
21829W        W37446  12.066   0.653  11.374 -0.1576  0.0619  0.2811
21830W        W37447   0.732   5.685  12.922  0.2360  0.2090  0.3271
21831W        W37448   8.808   7.119   0.744 -0.2249 -0.1404 -0.0758
21832W        W37449  10.245   4.806  10.911  0.1673 -0.2672  0.2931
21833W        W37450   6.574   6.639  12.765  0.0980  0.1294 -0.1994
21834W        W37451  11.806  16.756  12.970 -0.1766 -0.3470 -0.1493
21835W        W37452  16.378   3.911   1.707 -0.2050  0.0340  0.0357
21836W        W37453  16.836  10.905  11.317 -0.1127  0.1934 -0.0639
21837W        W37454   0.183  14.469  11.828 -0.2091 -0.0383  0.2058
21838W        W37455  17.984  14.322  12.601 -0.3869  0.2440  0.0876
21839W        W37456   4.724  16.616   1.822  0.3391  0.5129  0.0729
21840W        W37457  11.484   9.204   3.427  0.1382 -0.1143  0.0418
21841W        W37458  16.621   9.700  11.922  0.0521 -0.1563 -0.2088
21842W        W37459   7.496  18.498  11.670  0.0412 -0.0938 -0.1497
21843W        W37460  18.453   0.037   3.786  0.2452 -0.3915  0.1837
21844W        W37461  16.938  13.367   0.524 -0.1407  0.0065 -0.1024
21845W        W37462   3.773   1.809  12.390  0.0406 -0.3471  0.4324
21846W        W37463  15.751   3.246   2.605  0.1486  0.0611  0.2053
21847W        W37464   3.369   3.079  13.857 -0.1921 -0.2775  0.1580
21848W        W37465  14.270   3.610  14.149 -0.2352  0.0867 -0.0639
21849W        W37466  18.072   4.226  15.770 -0.3417  0.4331  0.1215
21850W        W37467   4.605   6.588   3.628  0.1866  0.4211 -0.2067
21851W        W37468  17.894  13.358   0.508 -0.2016  0.1596 -0.2960
21852W        W37469   1.558   7.837   1.974  0.1196 -0.2366  0.2784
21853W        W37470  17.870   4.760   2.461  0.2504 -0.2656 -0.0774
21854W        W37471   3.858   2.660   2.019  0.1414  0.0091  0.0724
21855W        W37472   8.266  10.757  14.549  0.1863 -0.2527  0.2184
21856W        W37473   0.661   4.132  11.729  0.1437 -0.2925  0.2913
21857W        W37474  15.919   3.440   3.549 -0.0069 -0.1459 -0.2789
21858W        W37475   1.985  10.340  12.863 -0.0305 -0.0593 -0.1661
21859W        W37476   4.158  17.543  14.735 -0.1592  0.2463 -0.1593
21860W        W37477  14.589  12.605   3.367 -0.1275  0.1180  0.2025
21861W        W37478  16.517  15.171  12.210 -0.2968 -0.0027  0.1477
21862W        W37479   1.739   0.553   2.384 -0.1017  0.1321 -0.0455
21863W        W37480   9.170   6.046  12.692  0.1431 -0.3019  0.0467
21864W        W37481   9.688   8.448  14.614  0.0836 -0.2742  0.2945
21865W        W37482   5.393   1.932   2.645  0.1474  0.1099 -0.2395
21866W        W37483   5.872  12.517  13.906 -0.2081  0.1558 -0.0291
21867W        W37484   8.711   1.479   0.143 -0.0002 -0.0413  0.2053
21868W        W37485  11.834   5.566   3.608 -0.2485  0.0778  0.0217
21869W        W37486  12.320  14.505  10.998 -0.3218 -0.0244 -0.0840
21870W        W37487   7.000   8.904   4.009  0.2429  0.1040 -0.0134
21871W        W37488  13.615  11.729  14.409  0.0979  0.1114 -0.1765
21872W        W37489   1.029   5.215   0.186 -0.0114 -0.0644  0.0971
21873W        W37490   9.176   5.476   5.558 -0.2511 -0.3430  0.1023
21874W        W37491   3.100   2.571  11.257  0.1227  0.3375  0.2298
21875W        W37492   5.744   7.507  14.160  0.0774 -0.0855  0.1915
21876W        W37493  13.109  18.182   4.354 -0.0930  0.1032  0.2150
21877W        W37494   6.399   7.889  13.041 -0.0899 -0.1701 -0.2168
21878W        W37495   4.522  11.277  15.010  0.1358  0.0483  0.2035
21879W        W37496  10.501   4.128  13.772 -0.0190  0.1355  0.0983
21880W        W37497  11.705  10.974  11.167 -0.0186 -0.1304 -0.1889
21881W        W37498  10.753   6.695   2.354 -0.1443 -0.0653 -0.1174
21882W        W37499  10.443  13.749  11.084  0.0704  0.0951  0.0818
21883W        W37500  15.514   6.634  14.811  0.2114 -0.1353  0.0073
21884W        W37501   8.436   7.136   1.544  0.1223  0.0046  0.1330
21885W        W37502   8.560  16.718   0.213  0.3002  0.0461  0.3676
21886W        W37503  12.917   9.244   4.293  0.0383  0.1883 -0.0306
21887W        W37504  18.606   2.322  13.347  0.2066 -0.1530 -0.2308
21888W        W37505  11.595  11.852  11.736 -0.0339  0.0588 -0.0071
21889W        W37506   7.677   7.457   3.345 -0.2416  0.1398  0.2202
21890W        W37507  12.758  16.278  13.634 -0.2106 -0.0789  0.1947
21891W        W37508  18.536   2.961   2.943 -0.0444  0.2236 -0.0924
21892W        W37509  14.095   0.443   1.278  0.1367  0.0463  0.2330
21893W        W37510   8.409  10.656   0.338 -0.0742  0.1335 -0.3385
21894W        W37511   7.466   4.674   2.376 -0.2463 -0.0840 -0.0800
21895W        W37512   2.732   0.626   3.220 -0.0452  0.3000 -0.1406
21896W        W37513  14.529  13.862  11.897  0.3780  0.0661 -0.2422
21897W        W37514   8.696  18.507   0.547  0.1142  0.0926 -0.0903
21898W        W37515  11.181  16.090  10.148 -0.0029  0.3723 -0.0213
21899W        W37516   1.590   4.950   4.069  0.2785  0.1682 -0.0443
21900W        W37517  13.514   5.535   4.184 -0.2188  0.1170 -0.2951
21901W        W37518  16.981   6.828   1.210 -0.1112  0.2192  0.0613
21902W        W37519  18.155  11.096  14.149  0.3281 -0.1644  0.3661
21903W        W37520   6.325  10.816   2.989 -0.3724  0.0178 -0.2726
21904W        W37521   1.514   6.374  14.205 -0.1899  0.0924 -0.0376
21905W        W37522  18.257   2.151  14.534 -0.1619 -0.3924  0.2399
21906W        W37523   9.875   3.356  12.348 -0.0842  0.0703 -0.1633
21907W        W37524  15.636   0.797  11.606 -0.3794 -0.1038  0.2575
21908W        W37525   1.997   7.348  10.064 -0.1092  0.1359  0.0275
21909W        W37526   5.810   8.052   4.364 -0.0657 -0.1753 -0.1540
21910W        W37527  15.872   7.575  14.122 -0.0059 -0.0213  0.2063
21911W        W37528  17.327   0.949   3.171 -0.2303 -0.0129  0.2006
21912W        W37529  17.690   8.854   0.807  0.0781 -0.0539  0.1987
21913W        W37530  10.274   8.531  15.255 -0.1208 -0.2211 -0.0265
21914W        W37531  10.807   6.152  13.625  0.0514 -0.0040  0.1961
21915W        W37532  13.929   9.925   0.070 -0.4292  0.0724 -0.2368
21916W        W37533   9.772   8.986   2.870 -0.4133 -0.1258 -0.0745
21917W        W37534   3.689   8.711  13.729  0.1831  0.1853 -0.1885
21918W        W37535   2.707   3.872   3.955  0.1499  0.0990 -0.1045
21919W        W37536  12.228  18.038   4.603 -0.0519  0.0588 -0.1033
21920W        W37537  13.348   1.619   3.072  0.4247  0.1836 -0.3084
21921W        W37538  14.992  10.881   4.536  0.2141  0.0699 -0.0467
21922W        W37539  13.410   6.985  11.008 -0.0389  0.0575  0.0265
21923W        W37540   2.101  13.621   4.479  0.0238  0.0824 -0.2773
21924W        W37541  17.073   3.633  11.404 -0.2199 -0.1012  0.0427
21925W        W37542   8.661   2.154  10.993 -0.1488  0.1407 -0.3943
21926W        W37543  12.467   1.176   4.049  0.2831  0.3767 -0.0438
21927W        W37544  13.732  15.962  13.784  0.0808  0.1156  0.1519
21928W        W37545   4.068   3.800  11.800  0.1098  0.2237  0.0584
21929W        W37546   1.959   1.866  15.781 -0.0312  0.3137 -0.1783
21930W        W37547   5.152  11.198  15.784 -0.0861  0.0681  0.1991
21931W        W37548  18.068  15.168  11.403 -0.0446 -0.1212  0.1094
21932W        W37549  10.302   8.174  11.663  0.0074  0.0319 -0.1238
21933W        W37550  13.843   7.970   1.567 -0.2470 -0.0777 -0.1470
21934W        W37551  12.497  16.880   0.133  0.2368 -0.2497 -0.2565
21935W        W37552   0.360  14.508   4.617 -0.0282 -0.0448  0.3245
21936W        W37553   7.133  15.697  12.106 -0.3329  0.3309 -0.1236
21937W        W37554   4.575   1.887   4.158  0.1470  0.0586  0.0312
21938W        W37555  16.470  10.634  12.702  0.1538 -0.0174  0.2216
21939W        W37556   8.577   2.730   1.472 -0.2738 -0.1705 -0.0012
21940W        W37557  11.229   6.503  14.445 -0.1065 -0.1521  0.1076
21941W        W37558  18.196   4.156  12.512  0.1010  0.1208 -0.0115
21942W        W37559  12.662   3.295  11.804  0.1015  0.0741 -0.1403
21943W        W37560   5.251  15.196  15.414  0.0906  0.2222  0.2032
21944W        W37561   8.881  14.247  14.857 -0.0495  0.0206 -0.3001
21945W        W37562   3.031  12.452   1.071 -0.1255 -0.0494  0.1796
21946W        W37563  16.702   1.501   1.983  0.0950  0.2564  0.0679
21947W        W37564   9.638   2.061   1.530  0.0755 -0.1722 -0.0953
21948W        W37565   1.363  10.638  10.789  0.0474  0.1983 -0.1785
21949W        W37566   5.501  13.891  15.383 -0.3580  0.3351 -0.1631
21950W        W37567   5.112  14.461   1.757 -0.2644  0.2127  0.1891
21951W        W37568   5.629   5.325  13.133 -0.0708  0.0248  0.1275
21952W        W37569   0.153  10.017  11.487  0.0310  0.2384  0.0280
21953W        W37570  16.503   6.145   2.327  0.1666 -0.1438 -0.1475
21954W        W37571   7.332   5.841  14.034 -0.1608  0.2407 -0.0873
21955W        W37572   1.633   1.781   0.362  0.3411 -0.4667  0.0395
21956W        W37573   0.038  12.429   4.569  0.3378  0.0045 -0.1824
21957W        W37574   6.211   5.362   4.447  0.2522  0.1285 -0.1191
21958W        W37575   9.439  17.713  10.671  0.2224  0.1025 -0.0248
21959W        W37576   0.822   7.515   3.110 -0.2620 -0.3120 -0.0498
21960W        W37577   0.661   9.226   3.465 -0.0507 -0.2963 -0.1491
21961W        W37578   9.831  14.734   0.163  0.1854  0.1726 -0.2114
21962W        W37579  16.754   8.893   3.863  0.1736  0.0582  0.0562
21963W        W37580   9.408  10.291   1.231 -0.1778  0.3266  0.0273
21964W        W37581   7.392   5.228  13.004  0.0671  0.1606 -0.2183
21965W        W37582  14.912   3.527  13.519  0.2830 -0.2003  0.1190
21966W        W37583   2.693  10.530   3.553  0.0620 -0.0217 -0.1120
21967W        W37584   1.947   6.418  15.141 -0.1578  0.0503 -0.0332
21968W        W37585  14.174   9.607  11.105 -0.1654 -0.1094 -0.3885
21969W        W37586   7.113   5.582  11.352 -0.0608  0.3012  0.1023
21970W        W37587  10.693   9.010   1.561 -0.1449 -0.1062  0.0613
21971W        W37588   7.088   8.005   0.600  0.0771 -0.3152  0.1125
21972W        W37589  15.988  11.987  13.788 -0.0818 -0.1365 -0.0097
21973W        W37590  11.382  10.632   3.506 -0.4184 -0.1602 -0.0631
21974W        W37591   9.239   5.508  15.691  0.0165 -0.0032  0.2966
21975W        W37592   2.131   6.990  12.457  0.0059 -0.0754  0.0584
21976W        W37593  17.898   6.789  12.943  0.0868 -0.3063  0.1090
21977W        W37594   7.135  13.306  11.687  0.1068 -0.2723 -0.1830
21978W        W37595  18.443  13.876  14.472 -0.2478 -0.0179 -0.4038
21979W        W37596   4.323   0.774  15.504  0.1931 -0.1746 -0.1167
21980W        W37597  12.865   7.058  14.014  0.0763 -0.0372  0.0373
21981W        W37598  15.981  11.903   1.102 -0.3285  0.2883 -0.0979
21982W        W37599   1.351   9.045   5.430 -0.1267  0.2228  0.1440
21983W        W37600   7.331   1.842   1.419 -0.3031 -0.1362  0.1233
21984W        W37601   5.125   8.628  14.808  0.0609  0.3218 -0.0783
21985W        W37602  14.097   0.732  15.087 -0.0418  0.1651  0.2037
21986W        W37603   0.918   5.312  12.691 -0.0106 -0.4754 -0.1979
21987W        W37604   0.654   4.680  11.612 -0.0227  0.2316  0.0564
21988W        W37605   1.459   3.607  10.694 -0.1689  0.2519 -0.1724
21989W        W37606  13.705  10.895  13.879  0.0108  0.3575 -0.0149
21990W        W37607   3.240  16.648  11.526  0.0250  0.3033  0.0735
21991W        W37608  17.165   8.171   1.696  0.3317  0.0684  0.0418
21992W        W37609   9.832   7.744   2.061 -0.0458 -0.0705  0.1148
21993W        W37610   6.492   1.150   3.093 -0.1207  0.0628  0.5664
21994W        W37611  11.909   0.029  12.279  0.3208  0.2526 -0.2028
21995W        W37612   1.293   5.139  15.564  0.1262  0.2025  0.0359
21996W        W37613   6.148   6.471  10.369 -0.7240 -0.2188  0.1953
21997W        W37614   1.906   6.544   3.547 -0.1732  0.3634 -0.2272
21998W        W37615   0.724   3.088   2.312 -0.0355  0.0562  0.2163
21999W        W37616   8.089   9.081  13.743 -0.1990  0.0407  0.2728
22000W        W37617   5.040  12.221  10.365  0.3359  0.0052 -0.3259
22001W        W37618   4.193   8.348   0.873  0.0213  0.1960 -0.1199
22002W        W37619   5.144   6.800  15.051 -0.2115  0.1392  0.1974
22003W        W37620   9.843  12.989   0.642  0.0422 -0.2957  0.4615
22004W        W37621  15.859   6.649  14.280 -0.1920  0.1769  0.0756
22005W        W37622  16.880   9.354   4.219  0.1108  0.2687 -0.1035
22006W        W37623   9.757   9.042   1.841 -0.4687 -0.4300  0.0966
22007W        W37624   5.572  12.584  13.430  0.1893  0.0685 -0.3174
22008W        W37625   6.626  16.735  14.900  0.0863  0.2402  0.3064
22009W        W37626   3.974   4.383   6.482  0.3351 -0.0593 -0.0885
22010W        W37627   4.749   9.051   0.540  0.4650  0.0599 -0.4180
22011W        W37628  12.919  16.748  13.893 -0.1358 -0.1736  0.0465
22012W        W37629   1.170  14.923  11.279  0.0304 -0.1659  0.0976
22013W        W37630  15.661  15.499  12.737 -0.2682  0.3290 -0.4563
22014W        W37631   9.122   7.183   2.003  0.2224 -0.0578  0.0975
22015W        W37632   9.117   9.974  11.109 -0.1152  0.0743 -0.1883
22016W        W37633   9.358  17.954   5.074 -0.2186 -0.3022 -0.0883
22017W        W37634   5.921   3.930   1.812 -0.3592  0.0806 -0.2930
22018W        W37635   2.160   0.150   5.207  0.0907  0.0273 -0.0477
22019W        W37636   2.516   3.539   1.538 -0.1172  0.1621 -0.2133
22020W        W37637   3.136   9.310  13.958  0.0079  0.1851 -0.0048
22021W        W37638  10.229  14.630  15.654 -0.0160 -0.2701 -0.0714
22022W        W37639  13.611   2.622  10.368 -0.0860  0.2902  0.0243
22023W        W37640  16.859  11.472   4.636 -0.7268 -0.0432  0.0701
22024W        W37641  17.025   0.592  13.050  0.0505  0.2069  0.0962
22025W        W37642  18.056  14.550   3.709  0.1266 -0.1492  0.1712
22026W        W37643  16.633  11.316  13.991 -0.1132 -0.0142 -0.0002
22027W        W37644   1.653  18.553   5.135  0.0387 -0.0056  0.2166
22028W        W37645  16.239  16.133  12.428 -0.2215 -0.0191 -0.4019
22029W        W37646   1.158   4.802  11.379  0.0206  0.0835  0.1176
22030W        W37647  13.746   1.406  11.430  0.3922 -0.1690  0.2784
22031W        W37648  16.151  11.867  14.275 -0.1207  0.1704 -0.3228
22032W        W37649  17.153   9.194  13.419 -0.0309  0.5241 -0.0724
22033W        W37650  16.885   3.119  14.455  0.0650  0.0488  0.2540
22034W        W37651   2.815  13.311   5.367  0.0573  0.1705  0.0894
22035W        W37652  11.799   6.681   2.593  0.2663  0.0127  0.1866
22036W        W37653   1.372   6.529   0.659 -0.2732 -0.0167  0.0483
22037W        W37654   7.444   5.678   5.300  0.0949 -0.1790  0.1701
22038W        W37655   2.074  10.532  10.875 -0.0244 -0.4084 -0.0690
22039W        W37656  13.430   0.984  14.187  0.3785 -0.3192 -0.0082
22040W        W37657  13.980  18.532  11.990  0.0969 -0.1652  0.1539
22041W        W37658   7.568   1.895  15.046 -0.1818  0.0719  0.1346
22042W        W37659   8.180  13.132  10.097 -0.0593 -0.2976 -0.2434
22043W        W37660   2.467  16.517   3.182 -0.1484 -0.0723  0.1881
22044W        W37661  13.922  10.594   9.402  0.1217 -0.2431  0.2013
22045W        W37662  10.640  14.878  14.506 -0.0301  0.0203 -0.1068
22046W        W37663   8.629   3.456  13.400  0.1155 -0.0001  0.3347
22047W        W37664   6.636   5.356  14.053 -0.0813  0.0795 -0.0467
22048W        W37665  12.886   8.139   0.865 -0.3148 -0.0632  0.1232
22049W        W37666  16.294  13.130   5.027  0.0861 -0.0028  0.0806
22050W        W37667   2.887  14.121  14.460  0.2291 -0.2559 -0.3688
22051W        W37668  10.294   8.688   2.516  0.0559 -0.0787  0.1093
22052W        W37669   5.059   6.848   2.546 -0.2284  0.0994  0.0648
22053W        W37670  10.512   8.458   0.327  0.4492  0.0459  0.2901
22054W        W37671  12.089  14.609   5.693  0.0056 -0.1792  0.0893
22055W        W37672  14.814   5.691   0.041  0.1368 -0.0034  0.0274
22056W        W37673   2.644   5.659  15.349 -0.2172  0.1429  0.0484
22057W        W37674   8.846  13.408  14.380 -0.2860 -0.1037 -0.1843
22058W        W37675   5.489  10.907   4.528 -0.2364  0.0518 -0.0558
22059W        W37676  15.560   2.682  13.468  0.0170  0.0854  0.0802
22060W        W37677   8.699  11.966  14.637 -0.2328 -0.2839  0.2113
22061W        W37678   3.098   5.721   1.879  0.3828  0.0807 -0.1866
22062W        W37679  11.201   2.741   2.391  0.1093 -0.4098  0.2058
22063W        W37680  10.212   5.035   0.934  0.0406 -0.2962  0.1501
22064W        W37681  11.442  10.465   1.392  0.0440  0.0512 -0.2610
22065W        W37682   1.257   4.741  13.251 -0.2469  0.0705 -0.1356
22066W        W37683  12.510   9.086   2.666 -0.1981  0.0936  0.0264
22067W        W37684  14.246  17.536   3.127 -0.2264 -0.0225 -0.2316
22068W        W37685  17.691   5.733   4.630  0.3548  0.0881 -0.2406
22069W        W37686  12.194   0.162   5.736  0.1761  0.0068 -0.0523
22070W        W37687  12.394   5.510  15.421 -0.0488  0.3026  0.0896
22071W        W37688   1.434  14.076   2.447 -0.0734 -0.0754  0.4710
22072W        W37689  16.540   4.755  13.162  0.0839  0.0769  0.0813
22073W        W37690  17.332  16.461  14.142 -0.0504  0.1543  0.1955
22074W        W37691  16.072  17.307   5.939  0.3442 -0.0531 -0.1071
22075W        W37692  17.397  10.861  11.104  0.0924 -0.0517  0.1801
22076W        W37693  11.361  15.010   3.320  0.0304  0.2111  0.0003
22077W        W37694   8.017  12.936  11.749 -0.0701  0.0397  0.2388
22078W        W37695   5.802   5.768   3.691 -0.1711 -0.1297 -0.1681
22079W        W37696   7.036  11.123  15.013 -0.2262 -0.0705 -0.1049
22080W        W37697   7.012  16.370  11.583 -0.2627 -0.0717  0.0909
22081W        W37698   4.777  11.583  15.761  0.0924 -0.2377 -0.0913
22082W        W37699  13.976   0.750   0.779  0.0710  0.0816 -0.0232
22083W        W37700   1.289  18.530   1.166 -0.2637  0.1665  0.1505
22084W        W37701  15.869   3.991   3.455  0.0597  0.2229 -0.1373
22085W        W37702   8.978   0.273   4.448 -0.0579 -0.2356 -0.1778
22086W        W37703   2.327  12.287   2.613  0.0762 -0.0473 -0.2560
22087W        W37704  14.312   1.685  14.993 -0.2901  0.0574  0.2080
22088W        W37705   3.473   9.379   1.988  0.1066 -0.2635 -0.1912
22089W        W37706  10.443   0.323   3.291 -0.0892 -0.1355  0.0906
22090W        W37707  15.909   3.957   3.962  0.1456  0.3422 -0.1377
22091W        W37708  14.349  16.380   0.875  0.2092  0.0736  0.0867
22092W        W37709  11.381   5.409   3.460 -0.1573 -0.1962  0.0170
22093W        W37710   1.621   2.281  15.441 -0.1149  0.0439 -0.1170
22094W        W37711   6.616   7.308   1.000 -0.1452  0.0312 -0.1328
22095W        W37712   9.966   4.817   3.872 -0.0252  0.1378 -0.0617
22096W        W37713   5.480  12.267   3.115  0.1146  0.0460 -0.0963
22097W        W37714   6.446   7.935   5.232 -0.0761  0.0418 -0.2231
22098W        W37715  13.694   0.329   4.296  0.0676  0.0251  0.0502
22099W        W37716  13.330  12.196  13.278  0.0160  0.1917 -0.0568
22100W        W37717   8.580   4.130   3.440 -0.0327  0.0846  0.0198
22101W        W37718   6.177  10.674   2.482  0.1028  0.2087 -0.1246
22102W        W37719   5.249  13.163  11.351  0.1888 -0.3035  0.3362
22103W        W37720  11.783   9.328  14.011  0.2263 -0.0154  0.0197
22104W        W37721  16.633  17.153   1.702  0.1416  0.0931  0.0770
22105W        W37722  17.270   1.617  11.568 -0.1617 -0.0403  0.0676
22106W        W37723   0.716  17.363  14.373 -0.1131 -0.1162  0.1831
22107W        W37724   3.815  11.057   5.034 -0.2608 -0.0443 -0.1831
22108W        W37725   7.085   5.467   0.215  0.3792  0.1272 -0.0041
22109W        W37726   3.647   1.699  14.753  0.0990  0.0318  0.1102
22110W        W37727   0.189  18.380   1.711  0.1408 -0.0746  0.2104
22111W        W37728   4.173   0.125  13.095 -0.4704 -0.2713  0.2616
22112W        W37729  17.584  13.494  15.795  0.1354  0.0124  0.0587
22113W        W37730  11.120  15.309   3.859 -0.0089  0.2105  0.0924
22114W        W37731  13.522  17.443   3.346 -0.1952  0.1401 -0.0408
22115W        W37732   9.291  11.623   4.287  0.3631 -0.2658  0.3111
22116W        W37733  17.679  12.592   4.661  0.0584  0.1910  0.0568
22117W        W37734   7.825  18.252   9.874 -0.0329  0.2898  0.0422
22118W        W37735   6.382   4.568   3.760  0.1287 -0.0010  0.2029
22119W        W37736   0.589   8.885   4.353 -0.1809 -0.2106 -0.0791
22120W        W37737  15.736   0.593   4.540 -0.0029 -0.0114  0.1114
22121W        W37738   1.208  16.096   4.514  0.4087  0.1905  0.0326
22122W        W37739  17.383  11.477   2.025 -0.0985 -0.3372  0.2740
22123W        W37740  12.112   6.131  11.838 -0.1928  0.4859  0.1012
22124W        W37741   0.579  15.266  15.463 -0.0532 -0.0595 -0.1640
22125W        W37742  14.622   9.596  10.710  0.1254 -0.0346  0.0033
22126W        W37743  14.286   6.487  14.169  0.0240 -0.0937 -0.1592
22127W        W37744   7.662   7.879  14.750  0.2918  0.0770  0.0227
22128W        W37745  11.474   0.617  14.464 -0.0643  0.0103 -0.1743
22129W        W37746  17.415   1.152   3.654 -0.0176  0.0524  0.0281
22130W        W37747  16.969   7.775  13.564  0.0741 -0.0769 -0.0581
22131W        W37748   9.557   4.615   1.985  0.0120  0.1914  0.2071
22132W        W37749  11.757   1.588   0.367  0.0879 -0.5037  0.3156
22133W        W37750   7.712   4.208  12.068  0.0211  0.0815  0.1781
22134W        W37751  13.966   6.168   4.006 -0.1057 -0.2088 -0.0454
22135W        W37752   9.414   9.615  13.324  0.1064 -0.1277  0.1930
22136W        W37753   3.709   0.741   2.468 -0.2529  0.0613  0.2145
22137W        W37754  11.554   2.981   2.157  0.0854  0.1610 -0.2099
22138W        W37755  15.573   7.615   1.396  0.2668 -0.2546  0.2633
22139W        W37756  15.846  15.319  11.113 -0.5095 -0.1396 -0.4345
22140W        W37757   5.299  10.075   0.141 -0.0855 -0.1171  0.1057
22141W        W37758  11.136  11.784  15.264 -0.4111 -0.1443  0.1961
22142W        W37759   3.701   1.067   3.879 -0.1162 -0.0889 -0.1900
22143W        W37760   2.605  18.168   4.150  0.2810  0.1710 -0.2676
22144W        W37761  11.960   1.348   4.180 -0.1279  0.2394 -0.0589
22145W        W37762   3.024   7.776   0.372 -0.1062 -0.2480 -0.0435
22146W        W37763  13.965   7.114   0.476  0.2388  0.3361 -0.0912
22147W        W37764  10.977  14.171  11.758 -0.2072 -0.2949  0.2131
22148W        W37765  16.731  11.002   1.758 -0.0486  0.2223  0.0031
22149W        W37766  10.352  14.519  14.296  0.0911 -0.0440  0.0593
22150W        W37767  17.122   5.276  10.941 -0.1640 -0.2704 -0.2144
22151W        W37768  16.918  18.174   4.346 -0.0045  0.0854  0.0925
22152W        W37769  11.459   6.726   1.382  0.1269 -0.2980 -0.0652
22153W        W37770   7.993  15.767   3.156  0.0371  0.1318  0.0790
22154W        W37771   1.368  15.580  10.932  0.4775 -0.1877 -0.0243
22155W        W37772   6.042  11.481   1.381  0.0631 -0.1725 -0.0703
22156W        W37773   5.452  11.498   1.876 -0.0915  0.2837  0.1588
22157W        W37774   4.079  10.576   4.601  0.0586 -0.2384 -0.2678
22158W        W37775  15.793  18.025   0.394 -0.4972 -0.0602 -0.0319
22159W        W37776   7.041   3.141  15.460 -0.0926  0.2563  0.3244
22160W        W37777  13.079   6.902  14.481  0.0114  0.2898 -0.0362
22161W        W37778   8.152  12.986  12.523 -0.0628  0.3701  0.3069
22162W        W37779  15.861  11.232   2.655 -0.0843 -0.0048  0.0844
22163W        W37780   4.992  11.601   3.800  0.2601 -0.1719 -0.1347
22164W        W37781  18.617   9.457   5.310  0.1382  0.1698 -0.0801
22165W        W37782  11.074  12.508   0.713  0.0908  0.0619 -0.1869
22166W        W37783  14.174  13.334  15.026 -0.2762  0.1126  0.0982
22167W        W37784   6.041  13.934  14.050 -0.2158  0.1227 -0.1073
22168W        W37785   8.650   3.387  12.754  0.0613  0.1134  0.1876
22169W        W37786   8.317   9.274  14.753  0.1653 -0.1772 -0.0543
22170W        W37787   2.376   2.609   0.512 -0.0519 -0.1028 -0.0593
22171W        W37788   9.231  13.445   2.226  0.3027 -0.2600  0.0566
22172W        W37789  12.863  10.079  15.212 -0.1405  0.0471 -0.1747
22173W        W37790  12.130   1.473  13.686  0.1345 -0.6580  0.1726
22174W        W37791   1.314  13.552   2.516 -0.1359 -0.0670  0.3524
22175W        W37792   5.302  11.966  15.488 -0.1848 -0.2038 -0.1449
22176W        W37793   4.494   2.696   3.683  0.0741  0.1349  0.3560
22177W        W37794  17.917   1.134   4.814  0.0708 -0.3375  0.0064
22178W        W37795   6.269   0.305   4.047  0.0161 -0.0455  0.0175
22179W        W37796   5.987  10.998   3.338 -0.2028  0.2081  0.0064
22180W        W37797   3.621   7.907   1.443  0.0508  0.1194 -0.0469
22181W        W37798   7.258  18.208   4.775 -0.4257  0.0011 -0.0812
22182W        W37799   5.367   3.134  11.623  0.1826  0.0042 -0.1747
22183W        W37800  15.564   4.576  11.536  0.2220 -0.2886 -0.3196
22184W        W37801   7.861   7.061   4.973 -0.2585 -0.1328  0.1881
22185W        W37802   6.445  12.303  12.681 -0.1952 -0.1801 -0.3069
22186W        W37803   6.995   4.633   3.064 -0.0255 -0.2923 -0.2680
22187W        W37804   1.272   2.377  10.870  0.1398  0.0221 -0.2422
22188W        W37805   5.944   1.908  14.811 -0.2452 -0.0417 -0.3304
22189W        W37806  14.222   0.127  14.264  0.2336  0.0735  0.0479
22190W        W37807  10.862   1.744   1.876 -0.1463  0.1018  0.2233
22191W        W37808  10.554  15.341   4.947  0.1217  0.1618  0.0778
22192W        W37809  14.005  15.552   0.886 -0.0053  0.3395 -0.1546
22193W        W37810   0.994   0.741  13.521 -0.1210  0.0484 -0.3699
22194W        W37811   7.940   9.807   0.083  0.1699 -0.1107  0.1753
22195W        W37812   1.476   5.654   3.017 -0.2529  0.1053 -0.2642
22196W        W37813  13.615   2.396   5.561 -0.4006 -0.1035  0.0811
22197W        W37814   9.813  10.149   0.156  0.1383  0.0813 -0.0754
22198W        W37815   9.965  17.026   1.709  0.0661 -0.3971  0.0757
22199W        W37816   7.781  16.655  11.408  0.1584  0.2970 -0.1454
22200W        W37817   4.563   0.115   1.503  0.0099 -0.1403 -0.3391
22201W        W37818  14.323  14.226   4.306 -0.2414 -0.1060  0.3312
22202W        W37819  11.197   6.148   3.169  0.2178 -0.0554  0.0052
22203W        W37820   8.639   9.532   1.556  0.0742 -0.2058  0.4359
22204W        W37821   4.223  13.435  11.658  0.0996 -0.3383 -0.0610
22205W        W37822  11.817   5.093   0.455 -0.0757  0.0860  0.0570
22206W        W37823  17.075  12.571  11.035 -0.2071 -0.1226  0.4837
22207W        W37824   4.589  17.186   2.372 -0.0560  0.0045  0.0784
22208W        W37825  14.555  12.738   1.542 -0.0360  0.0636 -0.2640
22209W        W37826   6.212  16.640  15.166  0.1130  0.2111 -0.1102
22210W        W37827  13.441   2.980   2.272 -0.0655  0.0352  0.3395
22211W        W37828   8.324   9.730  15.536 -0.1063 -0.1087  0.2051
22212W        W37829   7.526   4.986   0.644 -0.2339 -0.2034  0.1100
22213W        W37830   5.911   0.081   3.848  0.0558 -0.0587  0.1355
22214W        W37831  14.006   1.162   2.518  0.2335  0.0687  0.0358
22215W        W37832   5.563  15.810   2.771 -0.1113  0.2884  0.2114
22216W        W37833  17.473  13.498  12.062 -0.2355  0.1990  0.2587
22217W        W37834   8.981   9.817  14.186 -0.0624 -0.1730 -0.0034
22218W        W37835   3.238   6.082  13.264 -0.2567  0.2475  0.1365
22219W        W37836   7.542  13.484  14.808  0.0511  0.1677 -0.0757
22220W        W37837  15.213   7.688  15.191 -0.1371 -0.0738 -0.1592
22221W        W37838  15.870  14.586  10.421  0.0589 -0.0569  0.1455
22222W        W37839   8.233  11.628  13.628 -0.0670 -0.2343  0.0837
22223W        W37840   3.218   7.779  11.404  0.0736  0.0855 -0.2572
22224W        W37841   5.518  15.874  13.786  0.2544  0.2399 -0.1453
22225W        W37842   4.112   9.274   0.651  0.2912  0.1181  0.1203
22226W        W37843  12.032  13.368  12.707 -0.0314 -0.0427 -0.0493
22227W        W37844  13.939   8.053  13.937 -0.2735 -0.2173 -0.0217
22228W        W37845  13.917   7.957   3.455  0.1526 -0.2056  0.1722
22229W        W37846   3.904   2.116   3.621  0.0877 -0.0958  0.3447
22230W        W37847  14.141  14.368   1.375 -0.2198 -0.0941 -0.2417
22231W        W37848  17.515  12.793   5.070 -0.0551 -0.1686 -0.0181
22232W        W37849  11.064  14.871   4.137  0.2016  0.3474  0.0209
22233W        W37850   2.841   0.864  13.001  0.1931  0.3194 -0.2507
22234W        W37851  10.960  12.237  14.484 -0.2429  0.0499  0.0650
22235W        W37852   8.702  14.440  10.143  0.1817 -0.1934  0.1236
22236W        W37853   6.832   6.542   1.301 -0.4481 -0.0683  0.1644
22237W        W37854   6.591  13.635   5.274  0.0979  0.1007  0.2560
22238W        W37855  11.934   7.088   0.318  0.0523  0.1707 -0.3369
22239W        W37856  10.922  17.394   5.247  0.2109  0.1521  0.0011
22240W        W37857   4.797  12.760   3.463 -0.0245 -0.0123  0.0877
22241W        W37858  16.693  14.055  10.530 -0.0211 -0.1144  0.1384
22242W        W37859  13.477   6.571  12.463 -0.0037 -0.3396 -0.1186
22243W        W37860  16.439  16.707   2.961 -0.0362  0.0279  0.2476
22244W        W37861  10.828  10.864   4.819 -0.1087  0.1068 -0.2111
22245W        W37862  16.541  12.223  14.088 -0.0161  0.0090 -0.0192
22246W        W37863   9.473   6.667   5.069  0.1397 -0.1848  0.2356
22247W        W37864   1.982   8.447   4.253 -0.1083 -0.1740 -0.3665
22248W        W37865   9.064   6.946  11.670 -0.0653  0.4205  0.2035
22249W        W37866  12.702   6.198   3.572 -0.1650  0.0911 -0.2343
22250W        W37867  10.307  11.561  11.976  0.4631 -0.0487 -0.0593
22251W        W37868   9.728  15.485   2.000  0.0074 -0.0528 -0.0556
22252W        W37869   4.544   1.635  11.929  0.0387 -0.0662  0.2309
22253W        W37870  11.774  17.309   3.445 -0.2091 -0.3067 -0.1285
22254W        W37871   0.319   0.305  11.344 -0.2608 -0.0641 -0.1627
22255W        W37872   9.631   0.430   2.699 -0.2199  0.1363  0.0091
22256W        W37873  17.000   0.656   2.960 -0.1301 -0.2123 -0.2380
22257W        W37874  18.257   6.957   0.181 -0.1994 -0.3168  0.1623
22258W        W37875   2.817   4.362  13.968 -0.2293 -0.1291 -0.1745
22259W        W37876  11.195   9.058  12.683  0.0028  0.1385 -0.1933
22260W        W37877   4.783   7.587   3.552 -0.0813 -0.0540  0.0442
22261W        W37878  13.508   3.078  11.507 -0.1755  0.0609 -0.0848
22262W        W37879  16.863   8.568   0.409  0.0837 -0.0122 -0.1105
22263W        W37880  12.711   3.168  15.685  0.1459  0.1136 -0.2338
22264W        W37881  13.577  18.125  12.971 -0.2274 -0.2274  0.0134
22265W        W37882  14.979   4.281   5.238  0.2445  0.0216  0.1271
22266W        W37883  18.055  11.232   4.609 -0.1440  0.3509 -0.0200
22267W        W37884  10.118  11.065   5.056 -0.2694  0.0386 -0.1043
22268W        W37885  11.263  11.180  13.720 -0.1053 -0.0306  0.1832
22269W        W37886  12.681   1.857  12.000  0.1652 -0.1103 -0.3009
22270W        W37887  18.585  10.891   2.219 -0.4219  0.1047 -0.0969
22271W        W37888  18.091  10.786   0.024  0.1763 -0.1726 -0.0433
22272W        W37889   8.600  18.101  15.705 -0.2324 -0.3395 -0.2246
22273W        W37890   1.767   9.316  10.558  0.0747  0.0457  0.1281
22274W        W37891  12.037   9.922   2.672  0.1029  0.0949  0.0502
22275W        W37892  14.280   8.115   0.737 -0.1524 -0.0789  0.1427
22276W        W37893   2.099   6.151  13.308 -0.0873  0.2213 -0.2230
22277W        W37894   6.335   0.718  12.158  0.0207  0.1703 -0.0872
22278W        W37895  10.248   3.021   4.755  0.2277 -0.1462 -0.4740
22279W        W37896   2.746   0.462  15.351  0.2598 -0.2258 -0.1283
22280W        W37897   8.190   4.546  14.714 -0.0633 -0.1320 -0.0808
22281W        W37898   5.595   9.969  14.257 -0.1131  0.2123  0.2258
22282W        W37899   1.575   3.062  14.396 -0.1506  0.1702  0.1338
22283W        W37900  16.020  10.126   4.264 -0.1373  0.0271 -0.0517
22284W        W37901   2.412  11.617  13.237  0.2260 -0.1659  0.1723
22285W        W37902  18.619   3.031  12.015  0.0788 -0.1196  0.0187
22286W        W37903   8.411   0.041  14.175  0.1712 -0.1265 -0.4080
22287W        W37904  14.771   5.192   0.833  0.0761 -0.1111  0.1031
22288W        W37905   1.715   4.216   1.278 -0.1740  0.0073 -0.2269
22289W        W37906   7.921   0.704  10.900  0.0868 -0.0107 -0.0372
22290W        W37907  16.776   1.667   0.617  0.1124 -0.1650 -0.3819
22291W        W37908  15.466  18.293   0.818 -0.1821  0.0869 -0.1055
22292W        W37909   9.512  13.404  12.852  0.0281 -0.2877  0.1923
22293W        W37910  15.877  14.942  10.053  0.1811 -0.2152 -0.2599
22294W        W37911  11.050  12.598   4.422 -0.0621 -0.1414 -0.2602
22295W        W37912   8.638   5.034   3.568  0.2815 -0.1443  0.1824
22296W        W37913   6.386  12.412  11.988 -0.2156 -0.0154 -0.0035
22297W        W37914   4.649   1.643   0.911  0.1849  0.0040  0.0687
22298W        W37915   7.657   0.200   0.396 -0.1420  0.0464 -0.0962
22299W        W37916  14.328   8.288  13.620  0.2823  0.0250  0.1240
22300W        W37917   7.079   9.589  11.865 -0.2246  0.0675  0.0148
22301W        W37918   7.271   5.506   1.991  0.1345  0.1201 -0.1458
22302W        W37919   9.046   0.905  13.785 -0.2167 -0.1321  0.2020
22303W        W37920  15.033  16.322   1.590  0.1853 -0.1905  0.0557
22304W        W37921  10.550   5.361  13.998  0.0605  0.0151 -0.2504
22305W        W37922   6.395  12.547  13.463 -0.1797 -0.2217  0.4196
22306W        W37923   7.078   7.584   0.275  0.0129 -0.3817  0.7181
22307W        W37924   0.873  13.496   2.771  0.1652 -0.0441 -0.3979
22308W        W37925   5.171  18.211  14.986 -0.2857  0.1780  0.1286
22309W        W37926   0.522   4.544  13.598 -0.1351 -0.0549 -0.0802
22310W        W37927  10.617   2.148  11.522 -0.1328  0.0914  0.3543
22311W        W37928  11.824   7.142   3.537 -0.0887  0.0237  0.2089
22312W        W37929  17.382  18.513   1.790 -0.2697 -0.2376  0.1765
22313W        W37930  16.122   8.205   0.655 -0.0072 -0.1622 -0.2175
22314W        W37931  12.616   5.438   0.603 -0.0132  0.0978 -0.4428
22315W        W37932   7.639   9.598   5.228  0.3070  0.0995  0.1561
22316W        W37933  13.419  16.245   1.187  0.0972 -0.4521  0.4166
22317W        W37934  10.091  15.900  11.482 -0.1488 -0.3572 -0.1807
22318W        W37935   1.780   1.412   0.786 -0.2349  0.1231  0.0037
22319W        W37936  11.336   3.903  13.202  0.0520  0.1501  0.1629
22320W        W37937  16.753  14.447  15.541  0.0648 -0.2340 -0.1045
22321W        W37938  15.659  15.259   2.088 -0.1432  0.0759  0.0729
22322W        W37939   2.123  12.582   5.028  0.1906 -0.1226  0.0788
22323W        W37940   8.167   5.701   2.226  0.3305  0.0663 -0.2332
22324W        W37941   2.425  14.189   4.987 -0.0064  0.2049 -0.2052
22325W        W37942   6.660  14.155  11.845  0.0876  0.0012  0.1320
22326W        W37943   2.118  12.396   9.925 -0.0040  0.0421  0.0798
22327W        W37944  13.602   4.499   4.641 -0.0366 -0.0693 -0.0041
22328W        W37945   7.196   7.209   3.307 -0.3750 -0.0093 -0.2170
22329W        W37946   4.293  13.240  11.200  0.3904 -0.4955  0.1119
22330W        W37947  15.270   6.876  11.819  0.0576  0.0690  0.1835
22331W        W37948  14.755   9.752  13.258  0.1571 -0.1777  0.2229
22332W        W37949  18.011   4.597  15.434  0.0082  0.3007 -0.1177
22333W        W37950  14.461   2.726   2.743  0.1326 -0.1061 -0.1242
22334W        W37951   5.723   4.300   2.431 -0.0175  0.1587 -0.1653
22335W        W37952   4.078  14.207   4.074  0.1482 -0.1928 -0.1013
22336W        W37953   3.991  15.256   4.077  0.2738  0.1767  0.3359
22337W        W37954   8.955   1.493  13.898 -0.0466 -0.1461 -0.0982
22338W        W37955  16.690   9.878  11.045  0.0005 -0.1179 -0.2808
22339W        W37956   6.106   1.359   2.752 -0.1372  0.2271  0.1788
22340W        W37957  11.481   0.955  13.572 -0.0385  0.1251 -0.1105
22341W        W37958   4.005   7.343  11.941 -0.0262 -0.1058  0.2403
22342W        W37959   9.558  17.412  13.676  0.1927 -0.2497 -0.2255
22343W        W37960   9.671   2.352  11.787  0.1335  0.1034  0.0717
22344W        W37961  17.703  16.833  14.023  0.0591  0.2086 -0.1251
22345W        W37962  10.312  14.004  11.834  0.2010  0.1464  0.1276
22346W        W37963   1.972  16.677  11.663  0.0889  0.0324  0.1548
22347W        W37964  16.217  17.931   4.535 -0.2153  0.0367 -0.0026
22348W        W37965   3.301   0.462   5.953 -0.0837 -0.0104  0.0206
22349W        W37966  17.011  10.344  12.515 -0.0754 -0.3242 -0.3557
22350W        W37967   7.043  16.650  13.838 -0.3520  0.0392  0.0339
22351W        W37968  16.573  15.326   1.507  0.0223  0.0251 -0.1730
22352W        W37969   4.540   1.995   6.098  0.0200  0.0562  0.2153
22353W        W37970  14.158   7.637  14.166  0.0502  0.0774  0.2314
22354W        W37971   5.087   1.049   4.371  0.2452  0.1146 -0.0210
22355W        W37972  17.412  16.735   5.203 -0.2847 -0.3005  0.0804
22356W        W37973  17.515   8.027   2.033 -0.0480 -0.0120  0.1360
22357W        W37974   1.533   9.247   3.106 -0.0363  0.0683  0.0332
22358W        W37975   9.052  15.180   0.727 -0.3273  0.2258 -0.1541
22359W        W37976   0.714   1.878  13.334 -0.3374 -0.0912  0.2504
22360W        W37977  15.206  15.925  13.728  0.0189  0.0173 -0.2369
22361W        W37978  11.140  13.905   3.718  0.2070  0.0052  0.1438
22362W        W37979   5.312   0.783  15.595  0.1539  0.1111 -0.2776
22363W        W37980  15.193  14.477  13.496  0.2129 -0.0253  0.2022
22364W        W37981   9.182   4.140  11.311  0.5513  0.1313 -0.2216
22365W        W37982  17.453  17.660   1.788 -0.2281  0.0021 -0.0317
22366W        W37983  13.601   0.369   1.049  0.1191  0.2949  0.2146
22367W        W37984   9.029   0.138   4.931  0.3681 -0.1320 -0.1006
22368W        W37985  12.501   0.680   4.084 -0.1448 -0.0574  0.0292
22369W        W37986   0.700   6.331  11.030  0.3435  0.2398 -0.0689
22370W        W37987  15.914  10.669  14.451  0.2979 -0.0497  0.1878
22371W        W37988   2.758   7.725  11.671  0.0406  0.0717  0.1832
22372W        W37989  15.197   5.308   1.154 -0.0983  0.0033 -0.2943
22373W        W37990   8.155   3.996   2.577  0.2109  0.1097 -0.2647
22374W        W37991  10.224   0.116  14.010 -0.1337 -0.0571  0.0947
22375W        W37992  13.867  18.565  12.949  0.0277  0.0219  0.0421
22376W        W37993   9.617  16.778  12.942 -0.0170 -0.4394 -0.1772
22377W        W37994  15.122   4.303   3.537 -0.0986 -0.0052  0.0119
22378W        W37995   8.397  16.753  15.052 -0.1111 -0.0758 -0.0315
22379W        W37996  16.700  17.493  11.810 -0.0476 -0.0170  0.1629
22380W        W37997  17.155   2.656   6.294  0.1684  0.0854 -0.1713
22381W        W37998   4.653   7.914  12.427 -0.1676 -0.3020 -0.1442
22382W        W37999   4.259  17.470   2.117 -0.2084  0.1588  0.3088
22383W        W38000   6.727  17.296   3.151 -0.0619  0.2209 -0.0244
22384W        W38001   1.019   6.456  13.089  0.2446  0.1664 -0.2281
22385W        W38002  17.429  16.044   1.267 -0.2029  0.2086  0.0321
22386W        W38003   7.222  14.396  15.598  0.0300  0.0702  0.1316
22387W        W38004   5.462  15.384   0.563  0.0866 -0.0552 -0.0346
22388W        W38005   7.449   3.388   2.603  0.3957 -0.0700  0.2102
22389W        W38006  16.724  17.845  12.733 -0.0909 -0.2288  0.1593
22390W        W38007   2.587   8.751  10.919 -0.0398 -0.2948  0.2469
22391W        W38008   1.088   6.551   4.136  0.0938  0.1083  0.1584
22392W        W38009  15.038  10.732  14.910  0.0513  0.0446  0.0093
22393W        W38010   0.458   9.076   2.822  0.0694 -0.1051  0.0579
22394W        W38011  15.967  12.567   5.300 -0.0879 -0.2188 -0.1635
22395W        W38012   5.623   7.434   3.788 -0.2693  0.2605 -0.3553
22396W        W38013  13.159  16.573  13.334 -0.2307 -0.0124 -0.2037
22397W        W38014   1.883   1.981  14.416  0.0704  0.1427  0.1944
22398W        W38015   8.992   8.806   2.449  0.0044 -0.1667  0.0835
22399W        W38016   6.134  10.938   3.987  0.1290  0.0241 -0.0076
22400W        W38017   3.991  10.001  12.207  0.3458  0.2651 -0.4135
22401W        W38018   2.570  14.049  13.117  0.0094  0.0620  0.1320
22402W        W38019   9.856   6.010   1.827  0.0311  0.0023 -0.0971
22403W        W38020   2.952   9.937  11.875 -0.0010  0.3317  0.0461
22404W        W38021  12.975  14.743  14.244  0.0783  0.1376 -0.1626
22405W        W38022   3.686  17.352   3.798  0.5899 -0.0552  0.0801
22406W        W38023  13.966   4.021   5.119  0.1691  0.0412 -0.0483
22407W        W38024  12.553  10.199   5.418 -0.0749  0.0025  0.2644
22408W        W38025   2.186  13.414   1.808  0.0708  0.1102 -0.0260
22409W        W38026   7.396   9.764   2.248 -0.1049 -0.2881 -0.1750
22410W        W38027  14.803   9.790   1.386 -0.1074 -0.3294  0.1792
22411W        W38028   8.684   6.346  15.451 -0.0182 -0.0902  0.1262
22412W        W38029   7.073  16.367  10.841  0.3871 -0.3960  0.0895
22413W        W38030   8.004   3.310   1.982  0.2574 -0.2307 -0.1835
22414W        W38031   4.969   8.066   4.488  0.1153 -0.3332 -0.0778
22415W        W38032   1.965  13.058   5.064  0.1188 -0.1651  0.2711
22416W        W38033  15.768  16.045   2.504  0.3422 -0.0680  0.3316
22417W        W38034   4.385  17.795   5.383 -0.0140  0.2768  0.2014
22418W        W38035   7.273   6.658   3.300 -0.2138 -0.2911 -0.0488
22419W        W38036  13.256   2.585   0.316 -0.0257  0.0014  0.0248
22420W        W38037  17.543  10.578  14.768  0.0211 -0.0372  0.1894
22421W        W38038   9.720   9.460  13.814  0.1037  0.0925 -0.1632
22422W        W38039   8.396   0.145   5.982  0.0487 -0.0047 -0.5498
22423W        W38040  14.512  15.025  12.894  0.0748 -0.1293  0.0046
22424W        W38041  12.986  13.380   1.151  0.0983 -0.0189  0.1645
22425W        W38042  18.650   9.691   4.429 -0.3517  0.0553 -0.1567
22426W        W38043   5.801  16.291  13.873 -0.0882  0.0397 -0.1534
22427W        W38044   1.277   3.789  11.164  0.0877  0.2446 -0.3492
22428W        W38045   9.797   1.062   2.897  0.1206  0.1950 -0.0474
22429W        W38046  16.025   1.850   5.544  0.1554  0.0132  0.1656
22430W        W38047  14.826   9.478  14.275 -0.2181  0.2008 -0.1309
22431W        W38048  10.121   0.665  11.796 -0.0941  0.1026  0.0142
22432W        W38049   3.005  17.552   2.401  0.1547 -0.0751 -0.0346
22433W        W38050   4.759  15.033  15.548  0.4958  0.1382 -0.0685
22434W        W38051   5.831   7.848   2.400 -0.3726  0.0873  0.1385
22435W        W38052   3.967  11.010  12.043  0.1064 -0.0600  0.0566
22436W        W38053   3.732  18.215   2.183 -0.0948 -0.0027  0.1589
22437W        W38054   4.948  17.821   0.237 -0.0013  0.2376  0.0131
22438W        W38055  13.358  15.946   2.540 -0.1572  0.1028 -0.1105
22439W        W38056   5.691  11.189  12.081 -0.1972  0.1533  0.2493
22440W        W38057   5.868   4.432   1.731  0.4649 -0.1312  0.2845
22441W        W38058  10.657   1.185   0.129  0.1403  0.0071 -0.0138
22442W        W38059  17.929  15.290  11.950 -0.1441  0.0115 -0.1810
22443W        W38060   6.700   1.654   1.395 -0.3846  0.1106  0.0787
22444W        W38061   7.771   1.083   1.359  0.0333 -0.1778 -0.0409
22445W        W38062   1.398  15.364   1.441 -0.0769 -0.0729  0.0602
22446W        W38063   8.216   3.335  12.223  0.0347  0.1987 -0.2786
22447W        W38064  13.376   5.837  12.537  0.0655 -0.1791  0.3384
22448W        W38065  16.225   2.635  14.861 -0.0567 -0.1401  0.1689
22449W        W38066   1.724   6.485   1.936 -0.1057 -0.0514 -0.2129
22450W        W38067   1.489   0.581   4.840 -0.1028  0.0466  0.0113
22451W        W38068   3.531  15.434   3.997 -0.0322  0.0336 -0.1467
22452W        W38069   1.250   8.092  13.121  0.0032 -0.0404  0.2333
22453W        W38070   3.709   6.654  12.715 -0.2461 -0.2766  0.1827
22454W        W38071   5.240  18.159  13.731  0.0668 -0.0339  0.0308
22455W        W38072  12.526  12.557  12.611  0.0888  0.0554 -0.3056
22456W        W38073  13.871  18.240   1.697 -0.0875  0.0263  0.2420
22457W        W38074  13.816  18.271   4.242  0.1898  0.0151 -0.0235
22458W        W38075  16.861  15.947  15.067 -0.1171  0.0992  0.2811
22459W        W38076  14.193  13.580  11.583  0.2177 -0.0134  0.0890
22460W        W38077   1.159  12.443   2.676  0.1615  0.1465 -0.2926
22461W        W38078  15.458  16.667   0.529 -0.2437 -0.1535  0.1010
22462W        W38079  14.650  15.369  15.716  0.1775 -0.0609 -0.0582
22463W        W38080   4.118   8.451  13.814  0.0752 -0.1218  0.0034
22464W        W38081  13.886   9.801   2.175  0.0339 -0.1997  0.3712
22465W        W38082  12.353   3.855   4.343 -0.0107  0.0366  0.0886
22466W        W38083   5.423   1.034   1.664 -0.0689  0.0717 -0.0779
22467W        W38084  14.806   3.408  12.042  0.2984  0.1110 -0.2362
22468W        W38085  17.876  16.698   5.018 -0.2135 -0.1291  0.1243
22469W        W38086  14.105   4.284   4.667  0.3155  0.4871  0.2616
22470W        W38087   8.360   5.696   0.896  0.1249 -0.1631 -0.1897
22471W        W38088   0.170  15.166   3.195 -0.2327  0.0578 -0.0111
22472W        W38089  17.830  10.139   0.558  0.2652 -0.1954 -0.3657
22473W        W38090   7.861  10.931   3.217 -0.1652  0.0513  0.3646
22474W        W38091  17.728   1.310   5.768  0.2101 -0.3590 -0.3141
22475W        W38092  15.557   7.948   1.954  0.0224 -0.1285 -0.0036
22476W        W38093  14.026  15.262  13.738  0.0114 -0.1948  0.1975
22477W        W38094   7.994  17.111   1.057 -0.0131 -0.1234  0.0541
22478W        W38095  12.083  11.321   3.653 -0.0001 -0.1582 -0.0150
22479W        W38096  11.657  10.148  12.155  0.0512 -0.0083 -0.1178
22480W        W38097   5.602   7.044   3.412 -0.2120 -0.1006  0.0747
22481W        W38098  18.313   2.321   2.241 -0.0840 -0.3002 -0.2635
22482W        W38099  13.051  10.882   0.128  0.0386  0.1660 -0.0438
22483W        W38100  10.356  17.075  14.146 -0.0618 -0.1842 -0.0338
22484W        W38101  10.948  12.220  15.000 -0.1946  0.0218 -0.0045
22485W        W38102   7.444  15.555  15.557 -0.0249 -0.0099 -0.0530
22486W        W38103   7.971  14.476   2.620 -0.1613  0.2977 -0.0075
22487W        W38104  17.834   3.785   3.524 -0.1755 -0.1174 -0.0456
22488W        W38105   2.160   2.415  14.457 -0.0415  0.0952  0.0310
22489W        W38106  13.630   6.812  14.640  0.0155 -0.1597  0.1180
22490W        W38107   0.851   2.494   1.492 -0.0457 -0.2296 -0.0370
22491W        W38108   1.064  12.257  14.256  0.4513  0.1449 -0.3184
22492W        W38109   9.604  10.043  13.180 -0.1071 -0.2223 -0.0187
22493W        W38110   6.036   9.691  10.927 -0.2487 -0.2175 -0.0368
22494W        W38111   4.504   0.102  14.081  0.3281 -0.3390 -0.3424
22495W        W38112  15.071   5.753  11.513  0.1984  0.0811  0.2009
22496W        W38113   0.718  12.336  13.260  0.1689 -0.1721 -0.3030
22497W        W38114   4.289  14.827  15.727  0.1178  0.0138  0.1939
22498W        W38115  13.887   5.661   0.687  0.1181 -0.1316  0.3385
22499W        W38116   4.533   0.332   0.997  0.0518  0.1114  0.1649
22500W        W38117   4.102   3.219  15.544 -0.1325 -0.1100 -0.4365
22501W        W38118   2.849   1.440   1.019  0.5013 -0.1214 -0.1514
22502W        W38119   5.962  14.015   3.994 -0.1020 -0.1893  0.0565
22503W        W38120   4.958   0.208  13.873  0.2338 -0.0610  0.0531
22504W        W38121  14.236  15.159   4.419 -0.2653 -0.1537 -0.1087
22505W        W38122   5.630  11.489  10.385 -0.3151  0.2476  0.1165
22506W        W38123  10.225   9.253  11.295  0.1405 -0.0290  0.0335
22507W        W38124  17.066   1.547  13.927  0.0124 -0.2196 -0.2284
22508W        W38125  12.690  14.468  13.851  0.0571  0.0129  0.2781
22509W        W38126  15.644  14.881  14.356 -0.2259  0.0977  0.0060
22510W        W38127  13.592   7.341   0.126  0.0388  0.1706 -0.0492
22511W        W38128   4.984  18.257  13.340 -0.1638  0.0283 -0.0936
22512W        W38129  17.081   3.323   3.985 -0.0374  0.1911 -0.0620
22513W        W38130   9.990  13.169  13.154  0.2086 -0.1867  0.0100
22514W        W38131  11.247  11.472  11.640  0.3484 -0.0706 -0.0722
22515W        W38132  10.002   9.902  15.015 -0.0668 -0.2018 -0.1766
22516W        W38133   0.324   1.294  14.085  0.1373 -0.0176 -0.2073
22517W        W38134  10.931   7.721   1.555 -0.0189  0.0209 -0.3744
22518W        W38135  17.250   0.510  15.104 -0.0429  0.4482  0.1897
22519W        W38136  17.421  14.205  10.897 -0.0101  0.1701 -0.0533
22520W        W38137  15.376  11.443   0.569  0.3678 -0.3604 -0.0208
22521W        W38138   1.081   8.075  12.371  0.3117  0.1537  0.0636
22522W        W38139  14.622  13.746  10.617  0.1826 -0.2036  0.2207
22523W        W38140   8.452  10.451   1.038  0.1006  0.0492 -0.0579
22524W        W38141  11.809   4.460  12.674  0.2750  0.2172  0.1188
22525W        W38142  13.329   5.618  15.184  0.1948 -0.3327  0.0485
22526W        W38143  14.362   5.054  15.287  0.0659 -0.0759  0.1136
22527W        W38144  13.386  15.736   0.278  0.2397  0.1502  0.2540
22528W        W38145   2.905   5.716   4.251  0.1083 -0.1226 -0.0357
22529W        W38146  11.453   7.320   3.174  0.0761 -0.0440  0.1519
22530W        W38147  18.268  14.896  14.072 -0.0784 -0.2337 -0.0877
22531W        W38148   7.651   9.203  14.401  0.1642  0.0304  0.0841
22532W        W38149   5.515  16.676  13.696 -0.0329  0.4792 -0.1332
22533W        W38150  14.930  12.540   0.781  0.2626  0.0769 -0.3493
22534W        W38151  10.102   7.360  14.487  0.0743  0.1965  0.0998
22535W        W38152  11.091   7.333  12.591  0.1435 -0.0775 -0.0582
22536W        W38153  15.245  17.773   1.749  0.0820 -0.0017 -0.0318
22537W        W38154   2.530   8.136   0.652  0.0158 -0.3925 -0.0585
22538W        W38155   0.509  15.035  12.963  0.2581 -0.2216  0.0335
22539W        W38156  13.976   7.023   3.549 -0.0409 -0.1242 -0.1041
22540W        W38157  10.245  11.703  12.844 -0.2200  0.1557  0.1787
22541W        W38158  11.776   9.644   2.377  0.2906  0.1935  0.2390
22542W        W38159   8.540  17.107   1.983  0.1681  0.1717 -0.0964
22543W        W38160  17.255  12.258   3.066 -0.1227 -0.2087 -0.0642
22544W        W38161   7.830   8.954   3.037  0.0593 -0.4405  0.3070
22545W        W38162  12.547   0.382   2.067 -0.0144  0.0806  0.1125
22546W        W38163   2.230   7.866   1.414 -0.1026  0.2733  0.0875
22547W        W38164  16.781  15.710  15.478  0.1365  0.0839 -0.2241
22548W        W38165   3.017  11.040  14.070 -0.0062 -0.1102 -0.4913
22549W        W38166  14.101   3.584  14.678 -0.1161  0.3462 -0.1284
22550W        W38167   7.599   7.429  14.565  0.0019 -0.2608 -0.0885
22551W        W38168  11.147   5.186   2.527 -0.0153 -0.3786  0.1662
22552W        W38169   1.984   3.817  11.582 -0.1677  0.0088 -0.4154
22553W        W38170   4.133   8.489   4.198 -0.2868 -0.1505 -0.0293
22554W        W38171   3.067  15.229  12.343  0.0576  0.1060 -0.1600
22555W        W38172  13.386  16.436   1.895  0.3371  0.0494  0.0739
22556W        W38173  15.202  17.262  12.192 -0.0516  0.1430 -0.1143
22557W        W38174  10.334  14.147   2.053 -0.3066 -0.0780 -0.0232
22558W        W38175  10.413   4.154   1.326 -0.1797  0.2863 -0.0161
22559W        W38176  14.771   2.205  13.163 -0.1367  0.1928  0.0180
22560W        W38177   7.625  17.018   2.814  0.3166 -0.2680  0.0040
22561W        W38178  11.895   6.104  13.468  0.0031  0.1347  0.1901
22562W        W38179  18.258  13.089   3.633 -0.3632  0.1718 -0.1220
22563W        W38180   6.363   6.611  14.337 -0.2900 -0.2349  0.2531
22564W        W38181  15.097   1.268  15.382 -0.4517 -0.4764  0.2250
22565W        W38182   3.001  18.559  15.074  0.2212  0.1158 -0.0619
22566W        W38183   6.737  12.835  11.715 -0.1773  0.0384  0.6012
22567W        W38184  16.833   0.187   5.096  0.0515 -0.1185  0.0889
22568W        W38185   9.104  12.204   0.176 -0.0103 -0.1497  0.1704
22569W        W38186   0.051   2.787  11.595  0.2705 -0.0490  0.3051
22570W        W38187   4.808  11.344  12.209 -0.2342  0.1264 -0.4835
22571W        W38188  14.042   6.411  11.803  0.1880 -0.0423  0.3369
22572W        W38189   0.427   5.249  12.518  0.0366  0.0970  0.0959
22573W        W38190  15.749   8.117   4.406  0.0084  0.2049 -0.2104
22574W        W38191   1.907  14.966   4.679  0.3282  0.0701 -0.1865
22575W        W38192  10.949  10.467   3.596  0.3070 -0.0282  0.1564
22576W        W38193  16.175  15.463   3.697  0.0817  0.0737 -0.0150
22577W        W38194   7.625  18.496  14.860  0.0716 -0.0675  0.1443
22578W        W38195  14.545   9.765   9.751  0.3251 -0.0926  0.0469
22579W        W38196   1.467  16.749  12.348  0.3238  0.2930  0.0600
22580W        W38197  15.826   2.822   0.838  0.1446 -0.1315 -0.0651
22581W        W38198  14.866  17.169  14.909  0.0667  0.2609  0.0903
22582W        W38199   8.729  17.597   2.671  0.0862  0.0383 -0.0592
22583W        W38200  13.177  10.870  14.893 -0.1768 -0.0015  0.1745
22584W        W38201   1.420  11.888   0.705  0.0624  0.2145  0.0148
22585W        W38202  17.434   6.893  13.805  0.3590 -0.0345 -0.0900
22586W        W38203   4.631  12.166   1.852 -0.2462  0.0216 -0.0813
22587W        W38204  17.769   3.669   1.125 -0.0162 -0.2212  0.0518
22588W        W38205   7.249  12.933  15.101 -0.0769  0.0795 -0.0264
22589W        W38206   0.946  12.459  14.779 -0.1443 -0.1667  0.2024
22590W        W38207  17.379  15.596  12.710 -0.3579 -0.2960  0.1060
22591W        W38208   7.463  12.406   4.617 -0.2691  0.0541  0.0216
22592W        W38209  13.959   4.357   2.526  0.1556  0.2389  0.0402
22593W        W38210  11.623  18.397  14.624  0.1509 -0.1974  0.4502
22594W        W38211   9.779  17.200  14.104  0.4378  0.1718 -0.1338
22595W        W38212  15.669  11.124  15.486  0.2570  0.0360 -0.0056
22596W        W38213   8.073  15.689   0.428  0.0922  0.1075 -0.1647
22597W        W38214   6.769   6.949  13.643 -0.0268 -0.0526  0.2173
22598W        W38215   8.168   0.297   5.437  0.4157 -0.0975 -0.1924
22599W        W38216  17.162  11.037  13.677 -0.1771  0.0298  0.0392
22600W        W38217  10.846  17.424  15.207  0.2381 -0.0764  0.1137
22601W        W38218  18.485  10.211  10.799  0.1878 -0.3327 -0.0606
22602W        W38219   7.579  11.422   0.463  0.1330  0.1813 -0.2466
22603W        W38220   7.610   2.933  11.208 -0.2915  0.0033  0.2347
22604W        W38221  18.556   2.266  12.422 -0.2154 -0.1285  0.2761
22605W        W38222  14.899   8.431  15.341  0.2793  0.3385 -0.1120
22606W        W38223   5.239   8.450  10.069  0.3130 -0.0580  0.3042
22607W        W38224   9.306   2.705   3.938 -0.1595  0.3721 -0.2012
22608W        W38225  17.871  13.533  11.712 -0.4009 -0.5162  0.1327
22609W        W38226   4.925  15.448  15.711  0.1115  0.1179  0.0837
22610W        W38227  18.325  16.165  12.866 -0.0417 -0.0616  0.0680
22611W        W38228  18.592   8.968  14.775  0.1331  0.0520 -0.1513
22612W        W38229  18.146  15.903  10.858  0.0244 -0.1022  0.1099
22613W        W38230  16.857   8.497   4.298  0.1352 -0.2011  0.0429
22614W        W38231   9.664   4.702   1.499 -0.2095 -0.3339 -0.1435
22615W        W38232  12.426  12.472   0.870  0.0175 -0.2589  0.1212
22616W        W38233  15.317   5.870   5.249  0.3548 -0.0697 -0.2144
22617W        W38234   3.670   1.035   5.136 -0.3557 -0.0062 -0.1386
22618W        W38235   6.695   9.368  12.612 -0.1017 -0.1872 -0.2219
22619W        W38236   8.299   8.215  12.102 -0.2253  0.0307 -0.1047
22620W        W38237  17.978  17.806   0.827 -0.0846 -0.1292  0.1192
22621W        W38238  17.198   6.683   2.538  0.0955  0.1728  0.0372
22622W        W38239   4.284   5.849   0.344 -0.2773  0.0262  0.3382
22623W        W38240   2.244   1.669   0.375 -0.0031  0.2960  0.1660
22624W        W38241  13.924  16.237   0.147 -0.0817 -0.1858  0.4142
22625W        W38242  15.012   6.194  14.092  0.0067  0.0095 -0.0649
22626W        W38243  16.473   5.984   1.737 -0.0992 -0.0260 -0.3574
22627W        W38244   1.355  18.103  14.028  0.1515 -0.1156  0.3342
22628W        W38245  11.363   4.355   2.439 -0.0325 -0.0534  0.0096
22629W        W38246   2.681  15.441  12.019  0.2114  0.0199 -0.3468
22630W        W38247   8.067  15.548  14.511  0.1121  0.0931 -0.0084
22631W        W38248  14.078  13.166   2.687 -0.1085  0.0133 -0.0344
22632W        W38249  10.499   8.724   5.206 -0.3459  0.1519  0.0172
22633W        W38250   8.608  10.390  13.255  0.0761 -0.0893 -0.0313
22634W        W38251   4.656  12.111  11.745 -0.1547 -0.0563 -0.0560
22635W        W38252  11.917   6.880  11.732 -0.0148  0.1825  0.3301
22636W        W38253   8.176  13.590   4.185 -0.3305 -0.0417 -0.2079
22637W        W38254   7.008   7.086   3.762  0.1714 -0.0461 -0.1517
22638W        W38255   6.819  13.271   2.312  0.1404 -0.0027  0.1051
22639W        W38256  18.321  17.736   2.997  0.0715  0.1215  0.4270
22640W        W38257  14.976   9.310  15.580  0.1304  0.1190  0.1413
22641W        W38258   3.007   3.438   4.812  0.0438 -0.0888 -0.0016
22642W        W38259   8.113   0.476   4.405  0.0019  0.2047 -0.0393
22643W        W38260   4.423  13.105  12.893  0.1263 -0.0212  0.2791
22644W        W38261  10.865  11.481   0.022 -0.3323 -0.2950  0.2568
22645W        W38262   8.785   6.316  13.451 -0.0554 -0.0261 -0.0141
22646W        W38263  18.636   1.520   4.213  0.0664  0.0578 -0.1441
22647W        W38264  11.953   3.057   4.469  0.0167 -0.0207  0.0442
22648W        W38265  16.300   2.504   3.663  0.0807  0.0334 -0.1199
22649W        W38266  16.929   6.483  11.162 -0.1257 -0.0865 -0.3862
22650W        W38267   3.968  17.122  14.608  0.2323  0.1016  0.1467
22651W        W38268  17.520   7.937   3.098  0.0594 -0.3954  0.0982
22652W        W38269  18.592  13.173  10.885 -0.0616 -0.2666  0.0338
22653W        W38270  17.487   3.579  13.993  0.1343  0.3204 -0.3035
22654W        W38271  15.557  16.147   1.461 -0.0703 -0.1089  0.2996
22655W        W38272   5.409  16.392  11.980  0.0897  0.1356 -0.1016
22656W        W38273   8.376  18.485  14.914  0.0537  0.0541 -0.0633
22657W        W38274   8.669   8.605   2.890  0.2595 -0.0500 -0.0526
22658W        W38275   3.777   0.671  13.676  0.1103 -0.2472  0.0091
22659W        W38276   9.083   1.529   0.684 -0.2229 -0.3387 -0.2167
22660W        W38277  12.378  17.720  13.267 -0.0396  0.1782  0.2186
22661W        W38278  12.002  14.045   1.463 -0.1853 -0.0948  0.0553
22662W        W38279  14.796   0.714   1.284  0.1330  0.0760 -0.2153
22663W        W38280  10.438   6.326   2.793 -0.0971  0.1008 -0.1469
22664W        W38281  15.791  13.308  13.837  0.1430  0.0667  0.1312
22665W        W38282  14.913   9.046   0.206 -0.1362  0.1961  0.2895
22666W        W38283   0.811   1.968   6.142  0.2479 -0.0426  0.1172
22667W        W38284   3.173   9.269   2.383 -0.3825  0.1353 -0.2309
22668W        W38285   3.172   5.455  13.873 -0.3856 -0.0793 -0.3295
22669W        W38286   1.654   3.227   1.194  0.0023 -0.3535 -0.1883
22670W        W38287   9.068   9.985   0.837 -0.0468 -0.2675  0.1246
22671W        W38288   1.712  12.499  13.443 -0.0037 -0.1083 -0.0942
22672W        W38289   7.952  16.938   9.915 -0.1399 -0.0954 -0.0214
22673W        W38290   3.356   0.227   5.118 -0.0105 -0.4612 -0.0129
22674W        W38291   0.776  15.952   1.565  0.1468 -0.0481 -0.1094
22675W        W38292  13.151   8.832  10.281 -0.1016 -0.2578  0.2393
22676W        W38293  17.262  13.007  11.204 -0.2864  0.0605 -0.1724
22677W        W38294  12.507   0.893  14.428 -0.0276 -0.2401 -0.1171
22678W        W38295   5.700  18.063  13.555 -0.0995 -0.2950  0.1647
22679W        W38296  10.244   8.724  13.580 -0.1532  0.3814  0.0656
22680W        W38297  12.150  18.558   0.142  0.0767  0.0115  0.0783
22681W        W38298  16.272   1.185   3.198  0.2297 -0.0866  0.1569
22682W        W38299   1.276   7.601   0.301  0.2701  0.3172  0.0550
22683W        W38300   6.804  10.204  12.360  0.2458  0.5013  0.1856
22684W        W38301  16.784   8.740   3.374 -0.0399 -0.3756  0.0188
22685W        W38302   0.190   1.805  13.314 -0.1282  0.0929 -0.1456
22686W        W38303  11.046   5.892   1.354  0.2847  0.1511  0.1095
22687W        W38304   8.958  11.839   3.045 -0.1394 -0.2484 -0.0657
22688W        W38305   8.569   7.158  13.123  0.0200  0.0906 -0.1716
22689W        W38306  16.945  15.393   1.046  0.1130  0.1616 -0.0431
22690W        W38307   5.155   4.491   5.583  0.1209 -0.0327 -0.0210
22691W        W38308  16.257  18.031   5.452  0.3141 -0.1327  0.3183
22692W        W38309   4.718   4.074   1.328 -0.0789 -0.0654 -0.2939
22693W        W38310   8.310  16.829   2.859 -0.1592 -0.0331  0.1125
22694W        W38311   0.410   3.693  11.580 -0.1844  0.2152  0.0778
22695W        W38312  10.480   7.190   0.863  0.0103  0.0534 -0.0014
22696W        W38313  14.699   8.526  14.928 -0.2806  0.3640  0.0226
22697W        W38314   2.722  12.782   3.435  0.2730  0.0382 -0.1066
22698W        W38315   0.771  11.875   4.728  0.3850  0.1883 -0.0597
22699W        W38316   2.767   5.422  13.119 -0.3484  0.3116  0.0628
22700W        W38317   3.534  10.070   2.709 -0.0979  0.1415  0.0253
22701W        W38318   3.065  18.133  10.808 -0.2806 -0.0505  0.1266
22702W        W38319   8.005  15.345   3.380  0.0236  0.1697 -0.0574
22703W        W38320   1.040   4.684   5.468  0.1660 -0.0352 -0.1853
22704W        W38321   6.560   4.697  14.786 -0.1517  0.4101 -0.1114
22705W        W38322   4.333   9.828   4.163 -0.1944  0.1459 -0.0458
22706W        W38323  17.382   6.619  10.896  0.0029 -0.2032 -0.2663
22707W        W38324  18.093  14.148  12.137  0.4266 -0.1428 -0.1363
22708W        W38325  18.546  15.970   1.834 -0.0065  0.0974  0.0531
22709W        W38326   4.758  17.609   3.625  0.0500  0.0410 -0.0651
22710W        W38327   6.581   6.325   2.703  0.1892 -0.3359  0.0180
22711W        W38328   5.823  13.856   3.553  0.2767 -0.0100 -0.0866
22712W        W38329   3.600   2.248  12.133 -0.0748  0.1366 -0.3031
22713W        W38330   5.145  14.881  13.736 -0.2497  0.1706 -0.3618
22714W        W38331  17.066   9.466   1.063  0.3874  0.4616 -0.0094
22715W        W38332  14.749   9.026  12.259 -0.1393 -0.0177 -0.3125
22716W        W38333  16.760  15.846  14.600  0.1017 -0.1495 -0.1094
22717W        W38334   8.150   0.545   4.907  0.2250 -0.0829  0.1213
22718W        W38335   3.762   8.193   3.984 -0.1524  0.2044  0.0372
22719W        W38336   6.604  10.944   2.554 -0.3940  0.4067 -0.1002
22720W        W38337   0.906   1.224   2.138 -0.0922  0.2674  0.1936
22721W        W38338   0.179  14.141  13.112 -0.0766  0.0113 -0.0127
22722W        W38339   9.264   6.109  10.820  0.1703 -0.2581 -0.0612
22723W        W38340   4.672  15.090   0.400  0.1907  0.1062 -0.0257
22724W        W38341  16.442   5.201   4.641  0.2802  0.0320  0.0297
22725W        W38342  12.666  14.283  14.732 -0.1024 -0.1068 -0.1937
22726W        W38343  17.423  15.172  15.231  0.0217 -0.0012  0.0674
22727W        W38344  14.056  18.132   0.602  0.0461 -0.1847 -0.0834
22728W        W38345  13.539   8.569  14.073  0.2751  0.0332  0.1880
22729W        W38346   9.530  18.073   2.731 -0.1804  0.3256 -0.1831
22730W        W38347  18.333  11.448   3.078  0.0916 -0.4086  0.1481
22731W        W38348  13.332  12.178  14.148 -0.0489  0.2638 -0.1236
22732W        W38349   7.534  12.362  12.851 -0.0545 -0.1639  0.1593
22733W        W38350  12.777   3.871   6.564  0.4470  0.0588 -0.0391
22734W        W38351  13.396  18.098   3.914 -0.0729  0.1890 -0.0656
22735W        W38352   2.414  11.473   1.836  0.2702 -0.3426 -0.2328
22736W        W38353  16.762  16.100  13.899 -0.0776  0.1737  0.0218
22737W        W38354  11.697  11.207  11.626  0.0470 -0.1581  0.1296
22738W        W38355   0.089  17.943   3.769 -0.1650 -0.3976 -0.2084
22739W        W38356  12.324  14.095  10.056  0.1476 -0.1365  0.1822
22740W        W38357  17.056   4.712   3.657 -0.1222 -0.1012 -0.0187
22741W        W38358  11.166   3.196  15.306  0.0482  0.0694  0.0483
22742W        W38359  15.036  13.341   3.603  0.1608 -0.1684  0.0793
22743W        W38360  15.786  14.260   3.497 -0.1738 -0.2877 -0.0293
22744W        W38361  10.329  11.449  11.527  0.1784  0.0055 -0.3662
22745W        W38362   6.902  13.710  11.544  0.0662  0.1467  0.1770
22746W        W38363   9.252   6.761  14.523  0.3242  0.2478 -0.2040
22747W        W38364   9.847   9.093  13.487 -0.3114  0.0248  0.0826
22748W        W38365   3.774  14.952  12.102 -0.0369  0.0639 -0.0737
22749W        W38366  16.208   6.762   5.747  0.2080  0.3567  0.1063
22750W        W38367   6.715  15.997  14.310 -0.1060 -0.1360 -0.0731
22751W        W38368  10.748  11.148  11.484 -0.0671 -0.0444  0.0902
22752W        W38369   8.669  13.361  10.847 -0.0043 -0.2917  0.0402
22753W        W38370   2.044  10.673  11.414 -0.1267 -0.1358 -0.0784
22754W        W38371   0.148  11.361   2.163 -0.1458  0.2506  0.1753
22755W        W38372   3.595  10.220   3.201 -0.1657 -0.2030 -0.3237
22756W        W38373   3.147   9.197   3.098 -0.2707  0.0299 -0.1019
22757W        W38374   6.839   4.863   3.519  0.2419  0.2885 -0.1219
22758W        W38375  12.192   7.904  13.852  0.3935  0.1383  0.0525
22759W        W38376  10.030   7.273   3.616  0.3233 -0.1973 -0.1654
22760W        W38377   8.879   7.801   3.662  0.0504  0.0392 -0.4079
22761W        W38378   4.820   8.997   3.957  0.0036  0.1319  0.0951
22762W        W38379  12.643  17.666   4.867 -0.0761  0.1555 -0.0323
22763W        W38380  11.112   6.605  13.810  0.0467  0.0300 -0.0822
22764W        W38381   9.235  12.211   2.763 -0.2924 -0.4130  0.0745
22765W        W38382   4.432  15.579   4.023  0.0944 -0.1703  0.0058
22766W        W38383   0.202   2.044  15.796 -0.1816 -0.0043  0.1482
22767W        W38384  11.316   7.155   3.977 -0.1409 -0.1638  0.3802
22768W        W38385   3.244   2.676   5.350 -0.2219 -0.1276  0.2939
22769W        W38386  16.146  12.364  11.116 -0.2753 -0.0195  0.0225
22770W        W38387   9.759   2.298  13.635 -0.1666 -0.1500 -0.0425
22771W        W38388  17.592   4.504   5.825  0.4440  0.0520  0.0717
22772W        W38389  13.838   1.135  14.443 -0.4063  0.1606  0.2272
22773W        W38390   9.721   5.482  13.470  0.1646 -0.0330 -0.1791
22774W        W38391  11.799   2.088  12.360 -0.0390  0.2013  0.0858
22775W        W38392   3.438  11.737  14.004  0.1394  0.2485 -0.0012
22776W        W38393  17.149  17.020   4.180  0.2663  0.0710  0.2723
22777W        W38394  18.629   6.061   4.549 -0.0663  0.0130  0.0344
22778W        W38395  15.273  10.640  13.412 -0.0418 -0.0312 -0.0163
22779W        W38396   0.041  17.687   3.325  0.2678 -0.3134 -0.3992
22780W        W38397   7.825   5.548   0.053  0.0284 -0.1595 -0.0948
22781W        W38398  18.027  10.049  14.060  0.2881 -0.2924  0.1851
22782W        W38399   2.366  12.455   5.816  0.0993  0.1170 -0.1092
22783W        W38400  15.045   7.302  12.092 -0.2214  0.0470  0.0085
22784W        W38401   1.492   6.215   2.929  0.3234 -0.1479  0.3026
22785W        W38402   7.374   3.430   3.126  0.0060 -0.1347 -0.0694
22786W        W38403  13.608   8.677  10.017 -0.1872 -0.0701  0.2306
22787W        W38404   8.996  10.360  15.456 -0.0711 -0.2370  0.1753
22788W        W38405  17.326   5.033  12.139 -0.0195 -0.1089 -0.3761
22789W        W38406   4.599   2.642   5.381  0.0473  0.2934  0.1546
22790W        W38407  10.866   6.981   1.904  0.1883 -0.1533 -0.2885
22791W        W38408   2.852  13.027  14.423 -0.2400 -0.0144 -0.1621
22792W        W38409  15.648   6.463   0.826 -0.2215 -0.0725  0.0736
22793W        W38410  14.893  10.617   1.877 -0.2460 -0.0220  0.0757
22794W        W38411   0.531  11.478  15.195  0.1469 -0.4750 -0.2819
22795W        W38412  13.522   9.051  15.329  0.1994 -0.1426  0.1766
22796W        W38413  12.003   4.851  10.473 -0.3245 -0.0652 -0.2045
22797W        W38414   7.209  12.463   3.908  0.0979 -0.1036 -0.1296
22798W        W38415   8.686   4.667   5.330 -0.0834 -0.2395 -0.0875
22799W        W38416   3.888  10.635   3.650 -0.3366 -0.2246 -0.3108
22800W        W38417  14.129   0.418   5.281 -0.0567  0.1761 -0.0311
22801W        W38418   0.798   2.924  14.138 -0.2533  0.2144  0.1671
22802W        W38419   1.733   1.070   3.073  0.1096  0.3240 -0.1688
22803W        W38420   6.279   6.819  13.834  0.2129  0.2542 -0.1738
22804W        W38421   4.068   7.534   0.110  0.1569 -0.0111 -0.3408
22805W        W38422  17.732  16.296   1.612 -0.0176  0.1875 -0.1119
22806W        W38423  11.003  13.893   1.903  0.1246 -0.0925  0.0308
22807W        W38424  12.717   8.391   4.467  0.0538 -0.0487  0.3087
22808W        W38425  16.950  14.077   0.039  0.1707 -0.0067 -0.0386
22809W        W38426  15.244   3.918   1.500  0.0141 -0.1332  0.1860
22810W        W38427   7.999  16.205   5.711 -0.1509  0.1313  0.2992
22811W        W38428   6.439  15.002  12.372 -0.1545 -0.1312 -0.0570
22812W        W38429   1.008   1.746   4.732 -0.1782  0.2753  0.5843
22813W        W38430  11.403  15.964   1.304 -0.0659  0.1651  0.0053
22814W        W38431  10.817  12.744   4.900  0.4138 -0.1639 -0.1103
22815W        W38432  16.465   2.491  11.310  0.1905  0.0517  0.0820
22816W        W38433   8.402  12.870  13.888  0.3812 -0.2569  0.2189
22817W        W38434  17.852  12.054  15.063  0.2220 -0.0469 -0.1547
22818W        W38435   0.599   5.800  12.373  0.2042  0.1963 -0.0795
22819W        W38436  11.047  11.777  10.957 -0.0468  0.1087 -0.0360
22820W        W38437  17.555  10.412  12.967  0.0004  0.2228 -0.1399
22821W        W38438  15.344  14.651   3.206  0.1484 -0.0545  0.2196
22822W        W38439   7.916  16.499  12.704 -0.2231  0.0558 -0.2420
22823W        W38440  16.257   2.844   1.819  0.3824  0.1013 -0.0403
22824W        W38441  10.103   4.568   1.060 -0.1279 -0.0831  0.2434
22825W        W38442   5.707   9.692   2.050 -0.1707  0.0935  0.3671
22826W        W38443  10.469   1.547   1.571  0.1945 -0.2437 -0.0667
22827W        W38444   4.224   2.363  15.336 -0.1603  0.1186  0.1629
22828W        W38445   1.802   6.778   2.493 -0.1723  0.0711 -0.0389
22829W        W38446  14.238  15.920   0.545 -0.1665  0.0271  0.1069
22830W        W38447   9.054  13.937   2.137 -0.1680  0.0588  0.1136
22831W        W38448   6.407   6.328   3.670 -0.1624  0.1196 -0.0323
22832W        W38449   0.976   6.255   0.756  0.2226  0.0020 -0.0737
22833W        W38450   9.358  15.739   2.813  0.0126 -0.1396 -0.0326
22834W        W38451  14.778  13.028   3.269 -0.1343 -0.1932  0.0675
22835W        W38452   2.346  18.574   4.281  0.0689 -0.0948  0.0451
22836W        W38453  11.180  16.501   2.429  0.1182 -0.2730 -0.0216
22837W        W38454   3.673  14.219   1.230  0.3314 -0.0074  0.2545
22838W        W38455   0.344  14.146   1.603  0.0147  0.1701  0.0949
22839W        W38456  11.262  12.605  14.746 -0.1355 -0.1446  0.1210
22840W        W38457  12.824   0.567  11.632 -0.1839  0.2547  0.0795
22841W        W38458   0.206   6.402  13.706  0.3025  0.0294 -0.2819
22842W        W38459   3.986  11.687   3.919  0.1135 -0.3076 -0.2499
22843W        W38460   5.839  12.748   1.632  0.0933  0.1225 -0.0126
22844W        W38461   7.997  13.980  13.548 -0.0469 -0.1411 -0.2032
22845W        W38462  15.862  14.007   4.485 -0.1486  0.5519 -0.1680
22846W        W38463   6.392   3.989   2.725 -0.0352 -0.0499  0.2179
22847W        W38464  15.766   5.186  14.605 -0.0407  0.0906 -0.0705
22848W        W38465  12.050  14.791  14.230  0.2167 -0.4730  0.3730
22849W        W38466   7.410   3.593   4.862 -0.1636 -0.2233  0.1456
22850W        W38467  16.677   7.854  13.955  0.2024 -0.1239  0.2782
22851W        W38468   3.473   2.687  15.119  0.1939  0.2115 -0.0643
22852W        W38469  10.013  12.083  10.994  0.0099  0.0390 -0.0997
22853W        W38470  12.561   1.242   2.970  0.0818 -0.1122 -0.3497
22854W        W38471   8.370   0.346  13.732 -0.0520 -0.4507 -0.2396
22855W        W38472  10.628  14.820   5.408 -0.0429  0.0742  0.1005
22856W        W38473  11.996   8.792   5.348  0.0611  0.0471  0.4933
22857W        W38474   7.668   6.304   1.999 -0.1704  0.1387  0.1851
22858W        W38475  17.949  17.649   1.684  0.1679  0.0813 -0.3320
22859W        W38476   0.464  14.096   4.053  0.1392  0.0936  0.1298
22860W        W38477  12.931   9.141   0.990  0.2054  0.2972 -0.1373
22861W        W38478   7.883   6.807   5.491  0.4334  0.0784 -0.2908
22862W        W38479  17.540   7.406  10.609 -0.0902  0.0778 -0.1500
22863W        W38480  13.591  16.725  10.781 -0.2959  0.1208 -0.1295
22864W        W38481   8.033  11.343  14.952 -0.0338  0.1953  0.0277
22865W        W38482   0.320  15.614   3.900  0.2627 -0.1857 -0.3105
22866W        W38483   0.510   1.648  14.442  0.1323  0.3040 -0.0747
22867W        W38484   7.671   8.359  15.018  0.0216 -0.0127 -0.0778
22868W        W38485   6.541   4.453   0.891 -0.1801  0.5719 -0.2462
22869W        W38486   2.926   3.280  12.513 -0.3000  0.3665 -0.0567
22870W        W38487  11.035  10.769   1.335 -0.0440  0.0266  0.0251
22871W        W38488  12.177  13.774  10.977 -0.0957  0.1441  0.0750
22872W        W38489   9.944   9.371  11.933  0.1639  0.0744  0.0602
22873W        W38490  13.773   9.198   3.867 -0.1183 -0.0987  0.1084
22874W        W38491   2.865   2.329   1.275  0.0078  0.0407  0.0280
22875W        W38492   8.387  13.721  13.156 -0.3063 -0.1462  0.2427
22876W        W38493   2.206  16.802  12.875 -0.0664 -0.2719  0.2436
22877W        W38494  18.493   1.982   3.951  0.1681 -0.0262  0.2440
22878W        W38495  16.383   8.258   5.599  0.2352  0.1388  0.0268
22879W        W38496   2.799   9.612   3.218 -0.3737 -0.1113 -0.1129
22880W        W38497  12.527   5.924   1.923 -0.2254 -0.0219  0.4015
22881W        W38498   0.693   3.807  12.907 -0.3203 -0.0730  0.2436
22882W        W38499   0.971   8.528   4.534  0.1231 -0.1336 -0.2247
22883W        W38500   9.600  15.764   3.621 -0.2311 -0.1077  0.3768
22884W        W38501   8.995   6.546   0.027 -0.5417 -0.0974 -0.2106
22885W        W38502   2.142  11.738  15.417  0.0441 -0.2918  0.0762
22886W        W38503   7.235   9.972  13.199  0.0438  0.2105 -0.1191
22887W        W38504   2.018  10.480   2.260 -0.1679 -0.2667  0.0027
22888W        W38505  13.009  14.792   1.666 -0.1327  0.3109  0.4525
22889W        W38506  15.378  16.677   5.331  0.0367 -0.2677  0.1494
22890W        W38507  10.956  14.282  10.666 -0.2731  0.0596 -0.0015
22891W        W38508  13.481  14.813   4.875  0.1210  0.4801  0.1169
22892W        W38509  18.196   3.686   3.168 -0.1257  0.0040  0.0542
22893W        W38510  15.305   2.208  15.084 -0.0111 -0.1559  0.1235
22894W        W38511  17.446  10.261  13.597 -0.1033  0.1713  0.0787
22895W        W38512  18.475  17.091  12.795 -0.1543  0.3315 -0.5459
22896W        W38513  12.875   3.175   5.704 -0.1198 -0.1889 -0.0304
22897W        W38514   8.228  11.642  14.164  0.2514 -0.1939 -0.1866
22898W        W38515  14.634   8.776  11.249  0.0321 -0.1805 -0.3413
22899W        W38516  10.686  17.716  13.366  0.1153 -0.3431 -0.2839
22900W        W38517  15.615   9.026   2.112  0.0143 -0.1187 -0.0105
22901W        W38518   0.740  17.766  13.933 -0.1527  0.0607 -0.1324
22902W        W38519  10.180   3.932  12.859  0.1514 -0.3619  0.4390
22903W        W38520  15.348  17.306   0.089 -0.0776  0.1689 -0.5165
22904W        W38521  16.282  11.371  10.031 -0.0015  0.1492  0.3218
22905W        W38522   2.346  14.207  14.383  0.2097 -0.2399 -0.1967
22906W        W38523   2.214   9.105  12.217 -0.0726 -0.3525 -0.0036
22907W        W38524   3.331  12.307  12.700 -0.1553  0.0288 -0.0739
22908W        W38525   5.539   8.427   2.637  0.0760 -0.1649  0.2999
22909W        W38526  12.316   2.404  14.271 -0.3548 -0.0096 -0.2679
22910W        W38527   7.082  16.460  12.083  0.0963  0.0073  0.0502
22911W        W38528  12.340   5.508   2.087 -0.1900 -0.1559  0.2835
22912W        W38529  16.627   2.148   4.968 -0.0140  0.1305  0.0498
22913W        W38530  17.057   5.247   0.662 -0.0513 -0.0547  0.1300
22914W        W38531  11.655   3.902   1.192  0.1626  0.1147 -0.0360
22915W        W38532  15.301  11.719  11.690  0.1068 -0.0962 -0.0520
22916W        W38533  13.313  11.230   5.240  0.0466 -0.3983 -0.0456
22917W        W38534  10.461  10.273  15.188 -0.3420 -0.5822  0.0325
22918W        W38535  13.217   9.130  13.409  0.1828  0.2659 -0.1385
22919W        W38536  10.708   8.109   1.865 -0.0642 -0.1113 -0.0229
22920W        W38537   1.531  10.579   2.366  0.4096  0.0327 -0.0668
22921W        W38538   1.629  18.535   5.609 -0.0231  0.0152  0.1232
22922W        W38539  11.396   8.342   0.909  0.0746 -0.0629  0.0579
22923W        W38540   4.195  18.540  13.661 -0.1340 -0.2783  0.2984
22924W        W38541  10.651  10.476   5.044 -0.1552  0.1186  0.2283
22925W        W38542   8.889  17.102   5.112 -0.2882  0.2551  0.1393
22926W        W38543   6.319  11.149   5.234  0.2516 -0.0507  0.1791
22927W        W38544  17.320   1.232   1.275 -0.1364 -0.1997 -0.0945
22928W        W38545   8.646   0.113   2.852  0.0888 -0.0355  0.0208
22929W        W38546   1.838   9.295  12.509 -0.0009  0.0854 -0.1642
22930W        W38547   2.460   7.564  15.541 -0.2881  0.0377 -0.1052
22931W        W38548  13.012  13.047  15.557 -0.0143 -0.1661 -0.0321
22932W        W38549  10.490  12.956  13.669  0.1754  0.0238 -0.0108
22933W        W38550   3.374  13.966   2.138 -0.1857  0.2833 -0.1624
22934W        W38551   1.971  17.168   0.315 -0.0263 -0.1084  0.0586
22935W        W38552   7.791  16.097  11.105 -0.3605 -0.0160  0.2208
22936W        W38553  10.081   0.887  10.961  0.4471 -0.2274 -0.0175
22937W        W38554  11.788  14.164   3.094  0.1537 -0.0753 -0.0627
22938W        W38555  12.658  10.491   2.070  0.2066  0.0421  0.0413
22939W        W38556  12.990  11.020   2.898 -0.0039  0.3918  0.4201
22940W        W38557   7.244  13.631  13.595  0.1179  0.0203 -0.2223
22941W        W38558   5.218   5.965   2.706 -0.2796  0.0209 -0.0682
22942W        W38559   5.209   8.654   4.736 -0.2525  0.1348  0.0194
22943W        W38560   2.213  12.163   4.563 -0.1159  0.0817 -0.2310
22944W        W38561   6.361  10.539  13.254  0.0752  0.2467  0.3577
22945W        W38562  14.573  11.872   1.151  0.2440  0.2021 -0.0571
22946W        W38563  17.243   5.206  13.280 -0.2213  0.3038 -0.1166
22947W        W38564   5.139  14.265  13.203 -0.3661  0.2301  0.0044
22948W        W38565   5.505   9.412   4.201 -0.1239  0.1186 -0.0369
22949W        W38566   6.101  17.482  14.428 -0.1164  0.2093  0.0125
22950W        W38567  17.363   3.069   1.790  0.1228  0.2298  0.2390
22951W        W38568  13.646  13.929   4.829 -0.0323 -0.2290 -0.0665
22952W        W38569  12.112   4.342  12.109  0.1965  0.1714  0.1167
22953W        W38570  11.704   0.728  12.047  0.0164 -0.2740 -0.1229
22954W        W38571   4.728  11.958   0.942  0.2098  0.3138 -0.0961
22955W        W38572  14.482  12.207   5.562  0.0358  0.2191  0.0278
22956W        W38573   5.875   5.857  15.337  0.1738 -0.0902 -0.3820
22957W        W38574   5.656   1.494   3.507 -0.0157 -0.1398 -0.0339
22958W        W38575   8.872   3.050   4.103 -0.1244  0.1127  0.0412
22959W        W38576   8.021  15.268  14.056 -0.0139 -0.0419  0.0404
22960W        W38577   8.024  11.211  13.824 -0.1690 -0.2266 -0.1921
22961W        W38578   0.050   4.642   5.196  0.2223 -0.1375  0.1735
22962W        W38579   0.083   6.990  13.917  0.1234  0.2345 -0.0043
22963W        W38580  14.983   7.112  14.626 -0.2174  0.2518 -0.2883
22964W        W38581  13.224   5.256   4.574 -0.3082  0.2518 -0.1083
22965W        W38582   5.488  15.499  13.430 -0.5285 -0.2449 -0.1818
22966W        W38583  11.772  16.653   1.996  0.1211 -0.1733 -0.1247
22967W        W38584  12.883   6.278   4.714 -0.1986 -0.5923  0.0008
22968W        W38585  12.211   9.819   0.233  0.0093  0.1485  0.3619
22969W        W38586   1.139   8.837   4.107 -0.1855 -0.3159 -0.2987
22970W        W38587   8.306   5.434  12.484 -0.0140 -0.1111 -0.3982
22971W        W38588   7.371  15.648   4.723 -0.1200 -0.1442 -0.0077
22972W        W38589   2.160   0.642   2.995  0.2699  0.0306  0.0857
22973W        W38590   3.680   2.669   0.760  0.4549  0.2265 -0.1008
22974W        W38591  10.730   1.135   1.410 -0.3932  0.2346  0.1061
22975W        W38592  10.095  18.111   6.268  0.0333  0.1665 -0.0745
22976W        W38593  17.115  12.769   3.208 -0.1948  0.1496  0.1695
22977W        W38594  14.076   7.829  11.193  0.1157 -0.1791 -0.3736
22978W        W38595  18.409   0.797   3.047  0.1970 -0.3234  0.3691
22979W        W38596   3.458  14.497   0.747  0.1950  0.1206  0.0201
22980W        W38597   3.676   6.140   2.927 -0.0560 -0.1491 -0.2396
22981W        W38598   4.485   1.733   1.446 -0.0389  0.1184  0.0505
22982W        W38599   3.536  17.911  15.300  0.1082  0.0490 -0.3950
22983W        W38600  11.321   0.861   0.043 -0.1263 -0.1209 -0.2600
22984W        W38601   2.303   3.937   2.941  0.1246  0.1816 -0.0235
22985W        W38602  10.923  10.806  13.590  0.2707 -0.1557  0.0013
22986W        W38603  12.192  17.852   4.138 -0.0933 -0.1065 -0.1039
22987W        W38604   4.876  17.333   4.731  0.4947  0.0577  0.0215
22988W        W38605   1.496   1.635  14.637  0.2733  0.2134 -0.0366
22989W        W38606   5.834   9.005  14.764 -0.1779 -0.0747  0.2742
22990W        W38607  10.741   0.335  11.248 -0.1640 -0.1272 -0.2026
22991W        W38608  13.889   0.593   2.599  0.2372 -0.1908  0.1853
22992W        W38609   7.735   6.735   4.526  0.2536  0.3350 -0.3001
22993W        W38610   3.745  16.601   4.746  0.0678 -0.2845  0.4291
22994W        W38611   4.257  12.531  12.210  0.2083  0.0225  0.0883
22995W        W38612   7.962   7.818   0.797  0.1105 -0.0817 -0.2937
22996W        W38613  12.394  11.043   0.380 -0.3404  0.2431 -0.1888
22997W        W38614  16.759   3.702   2.035  0.0215 -0.1029 -0.0790
22998W        W38615   3.517  17.116  14.230  0.4244 -0.3191 -0.1154
22999W        W38616   2.502   2.156   4.261  0.1008 -0.0100  0.1167
23000W        W38617  14.225  13.615  13.294  0.1087 -0.0565 -0.3292
23001W        W38618  13.197  18.423  11.450  0.0335  0.4126 -0.1186
23002W        W38619   6.295   3.351  10.963 -0.1045  0.2602 -0.1659
23003W        W38620   8.750  10.586   2.075 -0.5557 -0.1473 -0.0769
23004W        W38621  17.565  16.884   4.739  0.2805 -0.2755 -0.1586
23005W        W38622  17.855   6.439   1.810  0.0915  0.2220 -0.0407
23006W        W38623  10.826  11.643   1.556 -0.0077 -0.1629  0.0841
23007W        W38624   6.636  11.460  15.330  0.0734 -0.1602  0.0808
23008W        W38625  17.072   7.493  11.990 -0.1812 -0.2763  0.2852
23009W        W38626   1.821   9.554   4.796  0.1704 -0.2361 -0.0669
23010W        W38627   0.993  11.702   1.995  0.0481  0.2996  0.2207
23011W        W38628   4.486   3.980  14.134  0.1677 -0.0284 -0.0753
23012W        W38629  13.649  12.287   0.051  0.1516 -0.1698 -0.1906
23013W        W38630  14.915  12.026   1.812 -0.0490  0.1161  0.3867
23014W        W38631   3.267  11.844  14.532  0.1868  0.1813  0.0506
23015W        W38632   3.994   4.639   0.059 -0.0196 -0.0091  0.3884
23016W        W38633  13.280   5.026  12.777 -0.1609  0.0273  0.4647
23017W        W38634   0.051   1.693  15.381 -0.0895 -0.2151 -0.1532
23018W        W38635   6.302   4.743  11.543 -0.4202 -0.0320 -0.1159
23019W        W38636  15.594  16.949  11.973  0.2876  0.1676  0.0133
23020W        W38637   9.864   6.330   4.961 -0.1031 -0.2408  0.1460
23021W        W38638  10.466   2.649  12.831  0.0633  0.2637 -0.0407
23022W        W38639   0.036  18.039   2.955 -0.0857 -0.0715 -0.0048
23023W        W38640   4.244  10.154  13.048 -0.0671 -0.3169 -0.3241
23024W        W38641  18.655  13.576  11.151 -0.1818  0.0744  0.0789
23025W        W38642   8.029  13.591  14.870 -0.1641  0.1435  0.1397
23026W        W38643  14.221  16.782   5.898  0.3186  0.0926 -0.0008
23027W        W38644  14.055  10.606  15.325  0.0557  0.0702 -0.3470
23028W        W38645  13.536   1.521  12.383  0.0547  0.2315 -0.1535
23029W        W38646  11.615  12.317   0.337  0.0315  0.0032  0.3740
23030W        W38647   1.323  17.234   2.321 -0.4970  0.0127  0.1072
23031W        W38648  10.958   4.372  11.776 -0.0957 -0.0784  0.2047
23032W        W38649   8.888  18.641  11.763 -0.0030  0.0761  0.2411
23033W        W38650   3.562   4.105  13.418 -0.4691  0.3871  0.1449
23034W        W38651   4.715  18.478   3.774 -0.0964  0.0129 -0.1429
23035W        W38652  11.321   4.911   2.112 -0.0414 -0.2571  0.2650
23036W        W38653   4.461  12.493  11.456 -0.0940  0.1335 -0.0373
23037W        W38654   3.665   1.767  13.786  0.3350  0.1646  0.1162
23038W        W38655  16.241   3.464   4.511  0.0100  0.1671 -0.2623
23039W        W38656  12.396  13.953   3.687 -0.1285 -0.0641  0.0945
23040W        W38657   9.250   6.601   0.483 -0.1839 -0.2623  0.0037
23041W        W38658   5.321   4.269  15.046  0.1567  0.3625 -0.2210
23042W        W38659   0.449  10.763  14.879  0.1841 -0.2394 -0.0296
23043W        W38660  12.022  11.413   4.903  0.0871 -0.3113  0.0006
23044W        W38661   7.062   6.943  11.771  0.3312 -0.1345 -0.0009
23045W        W38662  15.521   5.460  11.184 -0.0528  0.0332  0.0726
23046W        W38663  11.337   1.384  10.738 -0.2236 -0.3056  0.3461
23047W        W38664  13.833  16.218   0.761 -0.2057 -0.1339 -0.0888
23048W        W38665   7.015  18.454  13.653 -0.0673  0.2765 -0.0891
23049W        W38666   3.187  10.186   3.433  0.0141 -0.2449 -0.3468
23050W        W38667  14.879   8.808  14.520 -0.0756 -0.2727 -0.0486
23051W        W38668  14.798   1.053   2.508  0.1485  0.0974 -0.0351
23052W        W38669  10.772  13.912  11.424  0.1894  0.1858  0.1609
23053W        W38670   0.419  12.216   4.831 -0.1296  0.0184  0.0842
23054W        W38671  11.940  11.774   3.884 -0.1623  0.3905 -0.0249
23055W        W38672  16.640   1.904  11.281  0.0438  0.2876 -0.0479
23056W        W38673  17.829   2.123  14.207 -0.1201  0.0304  0.0508
23057W        W38674   8.223   6.637   4.218  0.0312  0.2042 -0.0685
23058W        W38675   4.419   0.652  11.250 -0.2426  0.1496 -0.0045
23059W        W38676   7.593   0.545  11.206 -0.1083  0.1220 -0.3475
23060W        W38677  13.379   1.795  14.978  0.1615  0.0854 -0.2418
23061W        W38678   7.223  13.475  11.184 -0.1177 -0.0914 -0.0590
23062W        W38679  16.397  13.388   4.459  0.1136  0.0200 -0.0046
23063W        W38680   9.559   3.681   0.847  0.5422 -0.0197  0.0184
23064W        W38681  18.130   1.638   3.413 -0.0535  0.3976 -0.0411
23065W        W38682  11.961  10.730  11.512  0.0021  0.2959 -0.2117
23066W        W38683  18.648   2.692  14.377 -0.2135  0.0592  0.1526
23067W        W38684   0.520   2.711  13.674  0.0828  0.1643 -0.1261
23068W        W38685   6.272   9.779   3.411 -0.2150 -0.0849  0.0647
23069W        W38686   9.780   3.586   4.345 -0.1731 -0.0301  0.1246
23070W        W38687  10.314   0.258   5.273 -0.0382 -0.3693  0.1269
23071W        W38688  15.172  18.629  10.961  0.0098 -0.3473 -0.2563
23072W        W38689  13.698   0.417   0.506 -0.0465  0.0609 -0.0539
23073W        W38690   0.206  13.986  11.078 -0.0509  0.0609  0.0835
23074W        W38691   8.975   1.294  13.319  0.0882  0.0277  0.1577
23075W        W38692   4.791  15.293  15.146  0.2038  0.2113 -0.0937
23076W        W38693  10.138   1.961   4.063  0.2693 -0.0874 -0.1059
23077W        W38694   0.173  10.516  12.296 -0.1347 -0.1261 -0.0800
23078W        W38695   7.945  12.690   0.379  0.0106 -0.0985 -0.0028
23079W        W38696  14.493   4.824   5.195  0.0941 -0.0975 -0.0359
23080W        W38697  16.502   3.325   2.361 -0.2619  0.0081  0.0796
23081W        W38698  13.313   3.595   4.614  0.0766  0.1482  0.2140
23082W        W38699  16.665   5.433   0.445  0.3580  0.1085  0.0307
23083W        W38700   5.235   1.291  13.678  0.1978  0.1387 -0.1560
23084W        W38701   9.539  14.135  10.035  0.0545  0.1014  0.0789
23085W        W38702  13.658   6.191  11.514  0.2224 -0.0971 -0.1375
23086W        W38703   2.543   4.386  10.571  0.0876 -0.1055 -0.1267
23087W        W38704   9.782  17.738   4.617  0.1198 -0.0115 -0.2932
23088W        W38705  17.053  14.990   2.163  0.2856 -0.2340  0.2423
23089W        W38706   1.113  17.043   3.655 -0.1918 -0.1612  0.3202
23090W        W38707   3.847   0.198  13.500 -0.2887  0.1696  0.1864
23091W        W38708  11.947   8.077  11.954 -0.1875 -0.0146 -0.1618
23092W        W38709  16.047   2.910   3.613  0.2746 -0.0192 -0.2929
23093W        W38710   3.077   9.349   4.231  0.3713  0.1699  0.2588
23094W        W38711  11.692   3.275  15.455  0.1070 -0.1245 -0.1566
23095W        W38712  12.712   2.061  14.084  0.1168 -0.1879 -0.1822
23096W        W38713   3.365  10.581  13.862 -0.0196  0.2790  0.3079
23097W        W38714   1.519   2.038   1.504  0.1077  0.1904  0.1731
23098W        W38715   1.959   9.940  14.647 -0.1037 -0.0985 -0.1764
23099W        W38716  14.622  15.861   1.417  0.0776 -0.0588 -0.0589
23100W        W38717  10.838   8.590   3.665  0.1214 -0.0740 -0.1120
23101W        W38718  16.605   0.335   2.950  0.1901 -0.2249 -0.0725
23102W        W38719   8.916   9.005   0.823  0.0890  0.0961  0.2334
23103W        W38720   9.047   8.345  12.455 -0.0379 -0.4071 -0.2724
23104W        W38721   3.428  17.280   0.925  0.0860  0.1262  0.1369
23105W        W38722  18.093   5.548   2.898  0.0298  0.1939 -0.3871
23106W        W38723   3.497   6.035  15.651  0.3160  0.3344 -0.0906
23107W        W38724   4.676  14.749   0.862  0.2001  0.3207  0.2244
23108W        W38725  14.427   5.027   1.242  0.0577 -0.0973 -0.2264
23109W        W38726  15.693   2.518  14.837  0.0947 -0.2392 -0.3413
23110W        W38727  13.359  18.116  14.762  0.1751 -0.1533 -0.2025
23111W        W38728  13.218   7.455   3.815 -0.0497 -0.1126 -0.0146
23112W        W38729   8.615  16.300  15.286  0.0400  0.1291 -0.2026
23113W        W38730   6.088   4.763  15.611 -0.1429 -0.0933  0.2210
23114W        W38731   1.940  13.978  13.128  0.0044  0.1878 -0.0009
23115W        W38732   9.139   2.640   2.560  0.0187  0.0603 -0.5878
23116W        W38733   5.363  16.345  12.476  0.2601 -0.2132 -0.3261
23117W        W38734   1.465   2.918   2.916 -0.0146 -0.0332  0.3968
23118W        W38735   8.974  11.829  10.986 -0.3262 -0.0072  0.1390
23119W        W38736   9.837  12.523  10.838 -0.0959  0.1498 -0.2331
23120W        W38737  14.814   5.690   5.336 -0.0172  0.0749  0.1315
23121W        W38738  12.921   2.614  11.135  0.1530  0.0435  0.1047
23122W        W38739  18.530   1.984  12.018  0.1676 -0.0490 -0.1538
23123W        W38740  13.324   0.311  14.168  0.0037 -0.2137  0.1083
23124W        W38741  15.911  12.466   2.113 -0.2727  0.0995 -0.0562
23125W        W38742   4.198  14.185   4.693 -0.0432  0.0117 -0.0679
23126W        W38743   2.617  14.362  11.535 -0.0604  0.0434  0.0529
23127W        W38744   8.470  10.474   4.075  0.2315 -0.0332  0.1146
23128W        W38745  16.713  10.233  14.182 -0.2359  0.0351  0.0481
23129W        W38746  15.456  10.680  14.243  0.0609 -0.4202  0.1662
23130W        W38747  11.874   9.917  15.618 -0.0579  0.4303  0.2873
23131W        W38748  16.201   0.905  12.601  0.1301 -0.0111 -0.1564
23132W        W38749   0.913   2.397  14.064 -0.1357  0.0471  0.0361
23133W        W38750  16.371  12.068  11.931 -0.0978 -0.0800 -0.0129
23134W        W38751   7.877   8.907  15.381  0.1205 -0.3570  0.1379
23135W        W38752  16.959  16.912   5.270 -0.0164 -0.2068 -0.2480
23136W        W38753   1.575   2.884  12.824  0.0052 -0.2435 -0.0265
23137W        W38754   1.377   9.401  12.818 -0.3467 -0.3457 -0.0005
23138W        W38755   4.088   7.927   5.906 -0.0194 -0.3517  0.0694
23139W        W38756   5.395   0.102  11.975 -0.2896 -0.0134  0.1556
23140W        W38757  10.648   7.936  13.888 -0.2210  0.2283  0.2111
23141W        W38758   7.125  12.141   3.469  0.1567 -0.1761  0.1478
23142W        W38759  13.793   3.908  13.323  0.1549 -0.2707 -0.0680
23143W        W38760  17.970  10.907   4.263 -0.2334  0.1473 -0.0734
23144W        W38761  16.050  14.780  13.981 -0.2774  0.0725  0.2184
23145W        W38762   6.725   0.725   3.216  0.0103  0.2458 -0.0410
23146W        W38763  18.592  11.670  11.761 -0.0885  0.0435 -0.1644
23147W        W38764  13.335  17.904  15.536 -0.0086 -0.0378 -0.1399
23148W        W38765  15.898   0.811  10.511  0.0117 -0.0084 -0.0059
23149W        W38766   7.189   6.982   4.314  0.2217  0.0716  0.3042
23150W        W38767   3.644   3.576   0.845 -0.0310  0.0990 -0.1764
23151W        W38768   2.498   2.882   4.162  0.1827 -0.1159  0.0829
23152W        W38769   6.552  12.378   2.298 -0.2068  0.1956  0.1338
23153W        W38770  14.123   2.896  13.491 -0.0564  0.1488 -0.0607
23154W        W38771   3.091   2.210  14.791  0.0251 -0.1254 -0.3028
23155W        W38772   7.193   5.043  14.728 -0.2333 -0.0865  0.2797
23156W        W38773   4.171  13.107   0.868  0.2086  0.0408 -0.0579
23157W        W38774  15.629  16.110  13.083  0.1186 -0.2270 -0.2238
23158W        W38775  17.490  15.070   1.928 -0.2664  0.0854 -0.1842
23159W        W38776   6.834   6.258   4.018  0.2178 -0.0895 -0.2252
23160W        W38777  16.106  15.143  14.432  0.1705 -0.0215  0.2883
23161W        W38778   8.356   0.906   2.655 -0.1259  0.1411 -0.2133
23162W        W38779  13.348   3.342   2.793 -0.0133  0.2825  0.0750
23163W        W38780   1.250   6.569  15.426 -0.0264  0.0323  0.3476
23164W        W38781   7.275  14.454   1.084 -0.2634  0.4205  0.0674
23165W        W38782   1.293   2.473   6.107 -0.0033 -0.0677 -0.0121
23166W        W38783   8.631  15.519  14.729 -0.0075  0.0066  0.0150
23167W        W38784   8.801  10.602  11.803  0.0111  0.0428 -0.0069
23168W        W38785  17.941  10.426   1.304 -0.2148  0.0455 -0.4348
23169W        W38786   4.191   2.237  14.313  0.2888  0.3219 -0.0319
23170W        W38787   1.681  17.343   4.209  0.2112 -0.2896  0.1441
23171W        W38788  17.927  15.190   0.311 -0.0849  0.1526 -0.0366
23172W        W38789  16.844   8.071   2.509 -0.3192  0.2411 -0.1393
23173W        W38790  18.418   1.207   5.019 -0.2540 -0.0484  0.3226
23174W        W38791  16.122  12.642  14.791  0.1565 -0.0202 -0.1648
23175W        W38792   5.363   9.295   3.282 -0.1214  0.0779  0.1109
23176W        W38793  14.648  18.420   1.286 -0.1255  0.1822  0.1344
23177W        W38794   0.589   3.338   0.748  0.0450 -0.0513 -0.1212
23178W        W38795  18.551   8.054  12.781  0.0753 -0.0305  0.0633
23179W        W38796   4.226   9.129   0.105 -0.2562  0.1724  0.0935
23180W        W38797  15.226   0.165  14.171  0.1942 -0.0003 -0.0298
23181W        W38798   8.292   1.349   5.651  0.3549 -0.0695  0.2059
23182W        W38799   8.906  13.805   1.289  0.2884  0.1004 -0.4945
23183W        W38800   8.007   4.443   2.421 -0.0676 -0.6633 -0.0763
23184W        W38801   7.641   3.460   1.633 -0.1140  0.1751  0.1909
23185W        W38802  14.692  13.204  11.205  0.3620 -0.2842 -0.0076
23186W        W38803   6.575   8.714  13.154  0.0463 -0.1816 -0.5767
23187W        W38804   3.029   9.676   1.591 -0.2939 -0.3388  0.0194
23188W        W38805   7.914   9.772   2.723 -0.0398 -0.1860  0.2764
23189W        W38806   1.032   1.329  13.336 -0.2323  0.1296  0.0674
23190W        W38807   1.439  15.689   0.856  0.2325  0.1237  0.1211
23191W        W38808  10.494   7.875  14.664 -0.0584  0.3660 -0.1778
23192W        W38809   2.805   7.585   2.870 -0.3031  0.0102 -0.1851
23193W        W38810   5.400  15.278  11.187  0.3079  0.0436  0.4236
23194W        W38811   4.170  15.956  15.417 -0.0781  0.1669 -0.2827
23195W        W38812   5.775   7.896  13.775  0.1390  0.0094  0.3346
23196W        W38813   0.016  14.807   4.892  0.0647 -0.1025 -0.3044
23197W        W38814   5.539  11.462   0.400  0.1064 -0.1082 -0.0292
23198W        W38815   8.370  10.219   5.834  0.0916 -0.1956 -0.0400
23199W        W38816   7.627  10.309  15.647 -0.0115  0.2616 -0.2073
23200W        W38817  17.518   3.035  13.708 -0.0383 -0.1636  0.0631
23201W        W38818   9.095   4.138   2.064  0.0106  0.1275  0.0605
23202W        W38819   2.408  13.272  11.269  0.0393  0.1375  0.0107
23203W        W38820   5.412  16.373   1.197  0.0259  0.0991  0.1516
23204W        W38821   8.273   9.725   0.663  0.1061 -0.2396 -0.2112
23205W        W38822  16.057  15.919   1.469 -0.0346  0.0950 -0.1348
23206W        W38823   1.074   7.173   0.161  0.5633  0.0544  0.1117
23207W        W38824   0.204  16.927   5.075 -0.0764 -0.0279  0.0609
23208W        W38825  12.316   5.576   1.591  0.2344 -0.2546 -0.0147
23209W        W38826  16.236   9.781   1.766  0.2728 -0.3472  0.0390
23210W        W38827  16.304   6.348   1.437 -0.0099  0.2723 -0.0952
23211W        W38828   3.258   5.317  14.770 -0.0472  0.2915 -0.1621
23212W        W38829  14.705   8.461   0.196  0.1751 -0.3941  0.0549
23213W        W38830   8.523   0.113   4.583  0.1803  0.1605  0.0051
23214W        W38831  15.210   7.417  13.050 -0.3548  0.0414 -0.0847
23215W        W38832  18.533  11.527  10.756 -0.0183  0.0629  0.0098
23216W        W38833   8.433   7.939   6.377  0.3014 -0.0838 -0.6289
23217W        W38834   1.901   6.579   3.013  0.2559 -0.2379 -0.0455
23218W        W38835   7.510  18.250   1.161 -0.1816 -0.1371  0.1331
23219W        W38836   8.200  11.011  10.984 -0.0730  0.1312 -0.0282
23220W        W38837   6.236   6.263  12.034 -0.1016  0.1686  0.3905
23221W        W38838   6.794   0.950   5.633 -0.0215 -0.1245 -0.4858
23222W        W38839  14.975   7.661   0.751 -0.4307 -0.0034 -0.4194
23223W        W38840   8.107   1.553   0.452 -0.1347 -0.0934  0.1588
23224W        W38841   2.995  12.221  11.314  0.2021  0.3747  0.0910
23225W        W38842  15.400   2.720  14.507  0.2870  0.3262  0.2837
23226W        W38843  15.370  11.194   2.201  0.2212 -0.2609 -0.0066
23227W        W38844   8.292  17.330   2.994  0.0061 -0.1108 -0.1671
23228W        W38845   3.435  15.004   2.581  0.0056  0.1034  0.1080
23229W        W38846   7.089   1.096  12.578 -0.0561 -0.0008 -0.0463
23230W        W38847  16.829  12.254   0.078  0.1943  0.0423  0.2652
23231W        W38848   2.304   7.909  10.819  0.2810  0.1900 -0.1646
23232W        W38849  13.051   9.154  10.816  0.1010  0.1529  0.0511
23233W        W38850   9.946  18.284  15.370 -0.0758  0.2649 -0.0138
23234W        W38851  14.626   1.811  12.299 -0.1417 -0.0256 -0.5422
23235W        W38852   2.867  11.305  13.370 -0.1947 -0.1255  0.0012
23236W        W38853  16.215   9.508   1.322  0.0801  0.0358 -0.0012
23237W        W38854   1.219  14.814   0.664 -0.1719 -0.4251 -0.0516
23238W        W38855   0.032   2.459  14.818 -0.1655 -0.0162  0.0133
23239W        W38856   5.868   6.494  14.225  0.1113  0.1936 -0.2600
23240W        W38857  17.333   1.449  11.037 -0.2196  0.4046 -0.3957
23241W        W38858   5.311   9.798   4.519  0.0634  0.2068 -0.0884
23242W        W38859  14.572   4.220  15.700  0.2025 -0.0845 -0.1583
23243W        W38860  16.346   5.122  15.360  0.0512 -0.1377  0.1350
23244W        W38861  18.558  14.782  14.875  0.1872  0.1047  0.1393
23245W        W38862   3.989  13.672  13.073 -0.1219  0.1577 -0.0423
23246W        W38863   9.581   0.478   3.395  0.0521 -0.3195  0.2429
23247W        W38864   7.403  13.655   5.619 -0.2515 -0.2751  0.0888
23248W        W38865  11.986  12.916  14.291 -0.3102 -0.2324 -0.1665
23249W        W38866   8.315   7.790  14.177 -0.3384  0.2223 -0.0440
23250W        W38867  13.656  11.792  13.443  0.1895 -0.0587 -0.1255
23251W        W38868  13.165   1.741   2.163 -0.0459 -0.2137 -0.0073
23252W        W38869  17.675  13.295  13.409  0.0138 -0.1478 -0.1745
23253W        W38870   9.658   0.580   1.380 -0.3857 -0.1579 -0.3769
23254W        W38871   3.709   0.339   2.146 -0.5460 -0.2789 -0.1561
23255W        W38872  18.020  12.478   3.070 -0.1391  0.1294 -0.2227
23256W        W38873   8.956   0.311  13.705  0.0953  0.1438  0.2276
23257W        W38874  16.471  14.500  10.721 -0.0162 -0.0967  0.0144
23258W        W38875   5.789   6.627   1.520 -0.3450 -0.0428 -0.3251
23259W        W38876  10.452   7.814  15.722  0.4064  0.1311  0.3407
23260W        W38877  13.120  10.866  13.908 -0.0108  0.0210 -0.0487
23261W        W38878  14.390  15.447  13.429 -0.0022  0.1254  0.4066
23262W        W38879   6.068  15.972   0.841 -0.1080  0.1293 -0.1034
23263W        W38880  11.664  15.101  13.368 -0.0734  0.3092 -0.1682
23264W        W38881   1.682   5.664   1.747 -0.0875 -0.1458 -0.2856
23265W        W38882  11.983   2.618  13.906 -0.1919 -0.3302 -0.1090
23266W        W38883   4.474  16.463  10.794 -0.1444 -0.0398 -0.4259
23267W        W38884   6.183  11.082   2.212 -0.3131  0.0868 -0.3662
23268W        W38885   4.390   7.860  11.322 -0.2663 -0.1771  0.2634
23269W        W38886  15.236  11.185   0.105  0.0312  0.2101 -0.0691
23270W        W38887   4.105   1.605   5.226 -0.1022 -0.2658  0.0036
23271W        W38888   7.488  12.518  11.161  0.1582 -0.1308  0.1006
23272W        W38889   3.329  18.272   0.012 -0.4147 -0.2362 -0.0404
23273W        W38890   0.348  17.067  11.979 -0.0706 -0.0221  0.0144
23274W        W38891  18.585   3.261  12.644  0.1888  0.2363 -0.0643
23275W        W38892  13.117   2.449   5.910 -0.0428  0.3036  0.0651
23276W        W38893  12.744  14.177   0.087  0.0146 -0.0118  0.2766
23277W        W38894  11.259   6.898   5.585  0.0472 -0.2739  0.4380
23278W        W38895  11.644   0.596  13.993 -0.0981 -0.2363 -0.0489
23279W        W38896   9.476   5.294  14.935  0.1512 -0.0768 -0.0991
23280W        W38897  11.149   3.701   0.497 -0.0581 -0.0403 -0.2279
23281W        W38898   9.136  16.957   4.203 -0.0924  0.2022  0.1177
23282W        W38899  12.348   9.554   3.551  0.0861  0.0878  0.2485
23283W        W38900  14.966   8.904   1.827  0.1210  0.2221 -0.0022
23284W        W38901   0.001   4.501  14.156 -0.0210  0.2629  0.1800
23285W        W38902  10.520   8.955   0.398 -0.0706  0.2408 -0.0384
23286W        W38903   4.570   3.128   3.958  0.1917  0.1191  0.1619
23287W        W38904   2.450   7.873  12.929  0.0036  0.1527 -0.3125
23288W        W38905  11.296  18.385  12.279 -0.1319  0.0266 -0.1412
23289W        W38906   6.731   4.356  12.607  0.3034  0.1744 -0.2418
23290W        W38907  17.118   7.372   3.286 -0.1406 -0.3049 -0.0006
23291W        W38908   7.059   8.851  15.278  0.0733  0.1614  0.4524
23292W        W38909   1.958   5.395   2.041  0.0018 -0.1507 -0.2313
23293W        W38910  12.640   9.517   0.443 -0.0885 -0.2312  0.1170
23294W        W38911   4.831   8.731   1.026 -0.0860 -0.0035 -0.3218
23295W        W38912  18.052   8.066   4.364 -0.1108  0.0853 -0.2295
23296W        W38913   3.818   7.431   1.800  0.2540  0.0120  0.1561
23297W        W38914   5.050  16.393   0.229  0.2969  0.3721 -0.0549
23298W        W38915  15.850   2.825  15.277 -0.2468 -0.1432  0.3093
23299W        W38916   3.722  17.639   2.048  0.2911  0.0202 -0.2941
23300W        W38917   0.760  10.897  15.300  0.1478 -0.3367  0.1703
23301W        W38918  13.479  11.259  12.052  0.1285  0.0725 -0.1214
23302W        W38919   4.827   9.666   3.322 -0.0878  0.2658  0.2696
23303W        W38920   9.183  14.690   2.826  0.1808 -0.1096 -0.0833
23304W        W38921   7.766  12.128   4.868 -0.1525  0.0587  0.0344
23305W        W38922   3.807   2.336  13.389 -0.1621  0.1836  0.0039
23306W        W38923   3.755   8.706   3.926 -0.4003  0.1483  0.2059
23307W        W38924   9.957   2.095  10.366  0.0947  0.2278 -0.0966
23308W        W38925  12.492   2.506   0.949 -0.2632 -0.0615  0.3268
23309W        W38926   2.088  16.226  13.947 -0.1153  0.1906 -0.2011
23310W        W38927   6.919   4.875   2.671  0.0183 -0.1887  0.1933
23311W        W38928  11.036   7.620  13.059 -0.1441 -0.0740 -0.2125
23312W        W38929   5.657  14.411   2.123  0.1822 -0.2021  0.0939
23313W        W38930  11.699   7.434   4.115 -0.1984 -0.0434 -0.2648
23314W        W38931  12.986   4.607  12.641 -0.0664  0.0315 -0.1412
23315W        W38932   2.789  10.675   1.009  0.0791 -0.0913 -0.1343
23316W        W38933  10.032  16.287  13.839 -0.1416 -0.0757  0.2241
23317W        W38934   7.018   5.868  10.938  0.1572  0.0969  0.3028
23318W        W38935  15.076   7.823   1.250  0.1354 -0.0776  0.1204
23319W        W38936   9.911   2.896  13.708 -0.0477  0.0176 -0.2067
23320W        W38937  16.582   7.375  10.845  0.1778 -0.2426 -0.0652
23321W        W38938  16.521   7.241  12.684  0.2232  0.0565  0.1219
23322W        W38939  14.613   5.724  10.055  0.2261 -0.0333 -0.0610
23323W        W38940   1.708   7.167  12.262 -0.5294 -0.1197  0.2407
23324W        W38941   5.980  13.788  11.449 -0.1497 -0.4701  0.0669
23325W        W38942   5.100   2.501  12.252 -0.0984  0.1384 -0.0856
23326W        W38943   0.817   8.353   5.026  0.0084  0.1413  0.3612
23327W        W38944  12.354  12.657   2.873  0.0514 -0.4084  0.0112
23328W        W38945  10.089   5.974   0.301  0.1858 -0.0369 -0.0312
23329W        W38946  11.988  15.156   5.163  0.2380 -0.1367  0.1471
23330W        W38947  17.661  10.729  10.288 -0.4888 -0.3778 -0.0694
23331W        W38948  15.881   6.214   3.022 -0.3861 -0.1375 -0.0662
23332W        W38949   7.303   0.781  15.006  0.0345  0.1381  0.2407
23333W        W38950   5.484  17.229   3.499  0.0382 -0.1542 -0.1688
23334W        W38951   8.670   0.745   5.168 -0.1094  0.1853  0.2906
23335W        W38952   8.947   0.260   0.292  0.1462 -0.4357 -0.1330
23336W        W38953  18.252   6.257  13.514 -0.1445  0.1018  0.0099
23337W        W38954   3.944  18.112  15.547 -0.2899 -0.0922  0.1246
23338W        W38955   2.397   6.627   1.673  0.1818 -0.2111  0.1346
23339W        W38956   8.638   1.108   6.097 -0.1241  0.0451 -0.0431
23340W        W38957   4.758  17.753  13.594 -0.0315 -0.0234 -0.2138
23341W        W38958   2.844   3.050  13.445 -0.0804 -0.0998 -0.1334
23342W        W38959  12.918   3.657   5.233  0.0111  0.0124  0.0979
23343W        W38960  10.352  17.420  13.132  0.0417  0.3180 -0.0302
23344W        W38961  10.967   0.741   3.611  0.2390 -0.4401 -0.0357
23345W        W38962   1.459  11.015   2.786  0.2096  0.1686  0.1826
23346W        W38963  11.852   1.806  11.788  0.2032 -0.1468  0.0098
23347W        W38964   5.087  10.345  14.139 -0.0078 -0.0864 -0.0575
23348W        W38965   5.504  10.875   3.175 -0.0368 -0.2165  0.2134
23349W        W38966  17.236  11.689  11.652 -0.1411 -0.0609 -0.1143
23350W        W38967   7.191   1.748  15.424  0.0531 -0.0748  0.3289
23351W        W38968  18.005   9.481  15.200 -0.0623  0.0954 -0.1436
23352W        W38969  18.134  16.620  13.041 -0.3216  0.0005 -0.1707
23353W        W38970  15.774  14.398  14.674  0.0243  0.1198  0.0558
23354W        W38971   1.080  10.120  12.890  0.0480  0.1619  0.0689
23355W        W38972  16.248  13.600  13.160  0.3557 -0.0788 -0.0639
23356W        W38973   9.473  10.530  12.469  0.3832  0.2587 -0.1405
23357W        W38974   4.310   4.895   3.421 -0.0287  0.2014  0.1232
23358W        W38975  14.515  16.731  13.729  0.1525 -0.1283  0.0281
23359W        W38976  18.443   3.528  13.589 -0.2560  0.0886 -0.0188
23360W        W38977   2.830   5.018  11.604  0.3560  0.1868 -0.0250
23361W        W38978   6.456   7.389   1.898 -0.1308 -0.2122  0.1073
23362W        W38979   2.596  16.839   0.509 -0.1701  0.0777 -0.0164
23363W        W38980  14.062  12.882   2.121  0.1821  0.0801  0.4081
23364W        W38981   7.042   8.347   3.282  0.0537 -0.0659 -0.1280
23365W        W38982   2.725   1.353  12.190 -0.0282  0.2462 -0.2525
23366W        W38983   8.495   0.007   2.280  0.2439 -0.0054 -0.0374
23367W        W38984   4.294   3.995   1.771  0.2924 -0.0636  0.0417
23368W        W38985   1.879   2.694  15.610  0.0008 -0.1161  0.2741
23369W        W38986   4.806   0.131   4.603 -0.1594  0.2824 -0.1868
23370W        W38987   2.848   6.287   1.579 -0.0715 -0.0225  0.0512
23371W        W38988  13.366   2.721  12.842 -0.0192  0.0097  0.1912
23372W        W38989   9.597   3.716   5.040  0.1837 -0.1710 -0.2757
23373W        W38990   2.118  17.919  13.736 -0.1855  0.1158  0.2468
23374W        W38991   5.024   2.176   2.911  0.2718 -0.2433  0.0442
23375W        W38992  12.780   1.383  11.619  0.0306  0.2439  0.3043
23376W        W38993   8.543  18.310   1.908 -0.0720  0.0706  0.0493
23377W        W38994  13.084   8.356  14.179 -0.2728 -0.1329 -0.0177
23378W        W38995   1.605  12.096  14.313  0.1959 -0.1629 -0.1637
23379W        W38996  17.769  15.951  14.893  0.0551  0.2291 -0.0002
23380W        W38997   7.247   5.032  13.492 -0.0397  0.1468  0.1482
23381W        W38998   6.301  16.573  11.404  0.1186  0.1010 -0.1144
23382W        W38999   8.620   9.427  13.134 -0.4838  0.1799  0.3398
23383W        W39000  12.403   6.442   0.319 -0.0492  0.0886 -0.0189
23384W        W39001   6.416   1.268  14.457  0.0677 -0.5442  0.1614
23385W        W39002   4.934  13.002  10.899  0.0295  0.0924 -0.0167
23386W        W39003  18.583   0.715  11.405 -0.0659  0.1802 -0.0486
23387W        W39004   9.407   8.999  13.683  0.2115  0.0345 -0.0346
23388W        W39005   1.135  17.093  11.446 -0.0541  0.0039  0.0419
23389W        W39006   3.399  17.012  12.274  0.1282 -0.5936 -0.5022
23390W        W39007  17.465  13.803   0.430  0.0994 -0.1187  0.3282
23391W        W39008  10.518   3.927   2.751 -0.0724 -0.3252  0.0234
23392W        W39009   8.915  14.146  11.122 -0.4147 -0.1579 -0.2018
23393W        W39010   7.073  11.200  13.940  0.1294  0.3093 -0.0097
23394W        W39011  12.052   1.092  15.241 -0.1037 -0.2431 -0.1187
23395W        W39012  10.560  17.256  13.586  0.1907  0.1665  0.0962
23396W        W39013  13.472   1.496   6.553  0.1711 -0.1659  0.1242
23397W        W39014   2.576  11.715   1.410  0.3454  0.0396  0.0797
23398W        W39015  12.202  10.127   3.510  0.1826 -0.3807  0.0964
23399W        W39016   8.351   8.836   4.466 -0.0854 -0.2374  0.3041
23400W        W39017   9.727  12.450  14.848  0.0349  0.1806 -0.1862
23401W        W39018   7.287   7.494   2.291 -0.1854  0.1040  0.1107
23402W        W39019   5.058   0.145  12.895  0.2017  0.0766 -0.3321
23403W        W39020  16.820  16.409   3.296  0.0628  0.0482  0.0536
23404W        W39021   5.117  13.103  10.453 -0.0081  0.0183 -0.0430
23405W        W39022   7.191  11.689  14.240 -0.1233  0.1016  0.0948
23406W        W39023  13.315  11.238  13.664 -0.0868 -0.3800 -0.1045
23407W        W39024   7.207   4.916   5.779 -0.2782  0.1063 -0.2183
23408W        W39025   3.782  11.751  10.606  0.0213  0.5635 -0.0523
23409W        W39026   7.105  10.009   2.577  0.0090  0.0211  0.0530
23410W        W39027   9.908  16.329  12.342  0.2191  0.3016  0.0745
23411W        W39028  17.255   4.117   4.570  0.1733  0.1607 -0.1406
23412W        W39029   9.340  16.382  10.322  0.2506 -0.2860  0.0135
23413W        W39030   7.071  13.341  14.909  0.0425 -0.0227 -0.1525
23414W        W39031  11.946   8.523  15.640  0.2227 -0.2182 -0.1348
23415W        W39032  16.827  13.557   3.635 -0.1029  0.3731  0.2571
23416W        W39033  17.968   3.420  11.823  0.1325 -0.0783  0.0339
23417W        W39034  11.733  11.092  12.092  0.3592 -0.0189 -0.0604
23418W        W39035  12.195   0.120  15.430  0.1992 -0.0798 -0.1305
23419W        W39036  11.383  15.482   0.622  0.0137 -0.3285 -0.0258
23420W        W39037  10.449  10.571  12.200  0.3062  0.2083 -0.0771
23421W        W39038   6.952   9.850  11.403  0.0803  0.1168  0.0298
23422W        W39039   3.448   4.926   1.825  0.0942 -0.1878 -0.1121
23423W        W39040   6.552   9.177   4.331 -0.1608  0.0848 -0.1202
23424W        W39041   2.982   0.820   2.290 -0.0394  0.0763 -0.0801
23425W        W39042   7.455   7.720   0.944  0.0651  0.1835  0.0735
23426W        W39043  11.730  13.395   1.559 -0.1082  0.0881 -0.0090
23427W        W39044  10.520  18.546  11.252  0.0297  0.1565  0.0674
23428W        W39045  18.081  14.427  10.676 -0.1224  0.0452  0.3118
23429W        W39046  16.863   8.225   3.198 -0.0885 -0.0230  0.0151
23430W        W39047  11.604   6.786  14.563  0.2313 -0.1605 -0.2115
23431W        W39048  16.575   4.305  13.337 -0.1445 -0.0725 -0.0333
23432W        W39049   2.194   5.341   0.792 -0.1191 -0.0949  0.0398
23433W        W39050  14.156  13.037  14.576  0.0761  0.1080 -0.2374
23434W        W39051   1.088   7.771  13.504 -0.0378  0.1523 -0.0283
23435W        W39052   5.333   3.547  12.780 -0.4281  0.1161 -0.3552
23436W        W39053  11.175  11.667   1.959 -0.1600 -0.1098  0.1426
23437W        W39054  14.982  10.933  11.962  0.0705  0.3151  0.1201
23438W        W39055   3.667   5.562  14.543 -0.2086  0.0197 -0.3031
23439W        W39056  12.764   0.593  15.311 -0.1428 -0.0258 -0.0214
23440W        W39057  11.817  16.245  13.093 -0.0592  0.2378 -0.0689
23441W        W39058  11.086  10.392  13.291 -0.2441 -0.1166 -0.1479
23442W        W39059   3.974  11.961  13.962  0.0017 -0.0206 -0.0018
23443W        W39060  17.181  17.843  12.486 -0.0890  0.1443  0.2879
23444W        W39061  16.782   3.117  15.608  0.0667  0.1798 -0.0777
23445W        W39062   1.982   9.087   2.139  0.2357  0.2000  0.1615
23446W        W39063   8.448   8.613   5.019  0.1366 -0.0977 -0.0517
23447W        W39064   3.517  16.892  10.753  0.6365  0.1124  0.3185
23448W        W39065  14.365  17.210  13.607 -0.0376 -0.3354 -0.0353
23449W        W39066   8.581  18.050  13.890  0.0876  0.1713  0.0202
23450W        W39067   2.154   3.110  15.709  0.0153  0.1490 -0.0150
23451W        W39068  15.326   5.584   2.643  0.0525  0.2439 -0.2842
23452W        W39069   1.130   5.789   0.828 -0.2240 -0.4270 -0.5870
23453W        W39070   5.780   3.749  12.527 -0.2647  0.3553  0.0704
23454W        W39071  13.604   5.925  15.534 -0.0190  0.1305 -0.1087
23455W        W39072  11.976  10.036  13.714 -0.0785  0.2876  0.2900
23456W        W39073   3.280  14.160  14.191  0.0634  0.0029 -0.0359
23457W        W39074  17.219   5.442  15.522  0.0925 -0.1947 -0.0539
23458W        W39075   2.404  10.146   2.285  0.0235 -0.2593 -0.1365
23459W        W39076   9.073   0.529   5.686  0.2004 -0.0815 -0.0524
23460W        W39077   7.831  12.631  15.652  0.2319 -0.1886  0.1296
23461W        W39078  14.132   7.774  12.164 -0.0183 -0.2845 -0.1797
23462W        W39079  16.697   4.945   1.925 -0.1245  0.1669 -0.1752
23463W        W39080  10.663  16.819  12.666 -0.0778 -0.0077 -0.0501
23464W        W39081   6.954  18.432   1.248 -0.3744  0.2685  0.0218
23465W        W39082   0.490  11.595  14.679 -0.0583  0.1267 -0.0328
23466W        W39083  12.239  11.533   5.690  0.0630  0.2512  0.0912
23467W        W39084   2.951   7.869  12.101  0.2223  0.2727 -0.0856
23468W        W39085   3.660  15.181  10.576  0.1257 -0.0191  0.2909
23469W        W39086   0.911  13.079   3.649  0.0683  0.4778  0.0906
23470W        W39087  17.064   5.957  12.572  0.1970  0.0384 -0.0862
23471W        W39088  10.981  16.693   1.606  0.0904 -0.0419 -0.1365
23472W        W39089   6.507  13.304  13.895  0.1463  0.0193 -0.1697
23473W        W39090   7.762  16.433   1.278  0.0404 -0.1638 -0.1047
23474W        W39091   6.671   8.741   5.361  0.3367 -0.1325 -0.3601
23475W        W39092  14.537   5.020   0.438  0.1675 -0.2474  0.0305
23476W        W39093  17.205   8.759   0.092 -0.0955 -0.1164 -0.2745
23477W        W39094   7.922   8.175   1.604  0.2409  0.3599 -0.0064
23478W        W39095   6.621   7.753  11.984  0.3227  0.2895  0.3094
23479W        W39096  13.825   3.296  13.324 -0.0188 -0.1616 -0.1480
23480W        W39097   2.869  10.281  13.777  0.1622 -0.1944 -0.1444
23481W        W39098   9.367  10.252   4.475 -0.0082 -0.2550  0.1502
23482W        W39099  15.704   2.871   0.377 -0.0364  0.2862  0.2361
23483W        W39100   4.548   8.907   3.045 -0.1970 -0.2970  0.0464
23484W        W39101   9.920   0.205  11.791  0.1581  0.0462 -0.2020
23485W        W39102   9.372   3.546  12.205  0.3056 -0.1196 -0.4119
23486W        W39103  10.433   1.956  11.947  0.0776 -0.1150 -0.1640
23487W        W39104   7.578  14.164  10.740  0.0503 -0.1346  0.0881
23488W        W39105  10.854   4.919  13.921 -0.4036 -0.2241  0.4142
23489W        W39106  13.330  11.333  14.152 -0.0393 -0.0183 -0.2558
23490W        W39107   8.360  14.991  15.449  0.1650 -0.1056  0.3179
23491W        W39108   6.299   6.058  11.252  0.1389  0.3178 -0.0866
23492W        W39109  14.488  11.441  14.446  0.0527 -0.1393  0.0586
23493W        W39110  15.688   7.070   4.116 -0.0203  0.1546  0.2435
23494W        W39111  11.389   1.076  12.092  0.1339 -0.0968 -0.2698
23495W        W39112   1.481  13.296  11.990 -0.1540  0.0068  0.2236
23496W        W39113   2.145   9.887  12.997 -0.1316  0.1574  0.1372
23497W        W39114  12.249   3.435  12.872 -0.4863 -0.2063 -0.0129
23498W        W39115   7.131   8.919   1.030 -0.0587 -0.1687 -0.2576
23499W        W39116  14.178  15.419  12.814 -0.0233  0.0886 -0.1789
23500W        W39117   4.352   1.457  13.998  0.0483  0.0833  0.1023
23501W        W39118  17.651  17.630   4.841  0.2911  0.1058  0.2192
23502W        W39119   2.292   1.349   3.838 -0.1543 -0.0846  0.1241
23503W        W39120   7.973   2.162   0.846 -0.0690 -0.1079  0.2211
23504W        W39121   1.779   2.340   0.159 -0.0448  0.2679 -0.1319
23505W        W39122  12.634   4.931  12.575 -0.0472  0.3334  0.2077
23506W        W39123   1.121   3.213   2.047 -0.1870 -0.0075  0.1196
23507W        W39124  11.842   5.030  13.631 -0.0449  0.0523 -0.3322
23508W        W39125   3.704   5.623   2.015  0.1365 -0.1540  0.0332
23509W        W39126  12.912  15.789   0.483  0.3679  0.0068 -0.2212
23510W        W39127  16.888  13.749  13.911  0.0321  0.1670 -0.2332
23511W        W39128   2.611  10.724  13.969 -0.1411  0.2711 -0.1127
23512W        W39129  13.068   7.794  12.917  0.0249  0.2928  0.3821
23513W        W39130  12.955   1.740   1.378  0.0753 -0.1429  0.0209
23514W        W39131  10.520   1.038   5.188 -0.4516 -0.4072 -0.2856
23515W        W39132  10.386   0.122  13.060  0.0817  0.0916  0.0772
23516W        W39133  16.321   4.330   5.056  0.1842 -0.2307  0.1166
23517W        W39134  16.683   4.172  15.223 -0.1694 -0.0278  0.2734
23518W        W39135   0.406  11.750   3.592  0.2229 -0.0119 -0.0969
23519W        W39136   0.818  14.605  13.115  0.1021 -0.2305 -0.3100
23520W        W39137  11.080   6.200  11.689 -0.1805  0.1957 -0.1734
23521W        W39138  18.173  10.530  13.972  0.2665  0.3253  0.0275
23522W        W39139   7.443   9.765   0.038  0.3995 -0.1001  0.3526
23523W        W39140   5.756   9.868   5.251 -0.0388 -0.1123  0.0547
23524W        W39141   2.082  14.776   2.980  0.1240  0.1485  0.2887
23525W        W39142  12.180  13.591   1.851 -0.0423 -0.0194 -0.1506
23526W        W39143  11.430   4.408  13.636  0.0439 -0.0311  0.2056
23527W        W39144   9.184   1.437   1.148  0.0760 -0.0217  0.1919
23528W        W39145  14.589  13.450  12.974 -0.0697 -0.3543  0.1088
23529W        W39146   1.150   6.202   5.894 -0.0491 -0.2866 -0.1586
23530W        W39147   6.591   5.035  11.896  0.1777 -0.4397 -0.0117
23531W        W39148   7.343  15.375  13.797 -0.1535  0.2372 -0.2942
23532W        W39149  11.297  17.601  15.580 -0.0747  0.2061  0.3868
23533W        W39150   6.473  16.489   1.714  0.0265  0.0164  0.0647
23534W        W39151  14.441  15.043  13.839 -0.2525 -0.1641 -0.4128
23535W        W39152   9.547   7.903   4.635  0.1197 -0.0431 -0.1908
23536W        W39153  17.966   7.982  12.239  0.3108 -0.1124 -0.1065
23537W        W39154   7.508  13.269   1.121 -0.2649  0.1955 -0.3474
23538W        W39155  11.901  10.905   3.320  0.0288  0.0133  0.2477
23539W        W39156  15.596  10.915  12.690 -0.4745  0.0831 -0.2093
23540W        W39157   2.475  10.663  12.955 -0.3350  0.0973  0.2556
23541W        W39158   7.819   5.202  12.226 -0.4772  0.1948  0.0061
23542W        W39159  18.177   1.941  13.965 -0.0670  0.2575  0.0978
23543W        W39160  18.234  17.050  12.310  0.1076 -0.0264  0.1039
23544W        W39161  18.290   4.572   1.508  0.0534 -0.1306 -0.0991
23545W        W39162  16.576   2.297  14.804 -0.3809 -0.0138 -0.0088
23546W        W39163   8.664   4.344   5.804 -0.1760  0.0136  0.1718
23547W        W39164  18.609   5.340   3.037  0.3681  0.2645  0.0922
23548W        W39165   6.274   1.557   3.284  0.1425  0.1307 -0.1862
23549W        W39166   5.918   8.440   3.587  0.0408  0.1833  0.0621
23550W        W39167   1.076  15.699   2.345 -0.0623  0.1389 -0.0527
23551W        W39168  18.506  15.571   3.039 -0.0075 -0.2581  0.2191
23552W        W39169   7.285  17.925   0.352  0.0131  0.1322 -0.1182
23553W        W39170  15.439   3.163  11.536  0.0666  0.2249  0.0887
23554W        W39171   9.263   6.044  11.805  0.2739  0.0548  0.1768
23555W        W39172  10.615  14.371  11.994  0.2015 -0.0081  0.1121
23556W        W39173  11.686  11.072   2.367 -0.1734 -0.0518 -0.0181
23557W        W39174   7.537  11.550  15.147 -0.5975  0.2287 -0.0009
23558W        W39175   8.324   3.231  11.432 -0.2166 -0.0713 -0.1838
23559W        W39176   7.172   4.240   1.473 -0.4335  0.1294  0.0537
23560W        W39177  13.885  18.633   5.215 -0.0518  0.0142  0.2466
23561W        W39178   4.653   6.453   5.433 -0.0917  0.0335  0.1350
23562W        W39179   4.829   1.820   5.703 -0.1525  0.0943 -0.0312
23563W        W39180  12.554   1.244   6.153 -0.3449  0.0834 -0.4439
23564W        W39181   0.160   7.658  11.815  0.1207 -0.0480  0.0792
23565W        W39182  10.174   6.851   0.814  0.2036  0.3723 -0.2644
23566W        W39183   3.486   8.212   3.130  0.1416  0.1292 -0.0340
23567W        W39184  11.717  16.408   6.026 -0.1374  0.0426  0.0004
23568W        W39185  10.071   2.968   1.486  0.0043 -0.1357  0.1554
23569W        W39186  17.182   6.998  11.887 -0.1704  0.1019  0.0612
23570W        W39187  16.666   2.893  12.240 -0.0745 -0.0958  0.3980
23571W        W39188  12.429  16.823  14.028  0.1422 -0.2613  0.1084
23572W        W39189  17.470  10.178   3.601  0.3703  0.0144  0.2194
23573W        W39190   5.519  15.377   0.052  0.3018 -0.1378 -0.0923
23574W        W39191  15.004   9.122   1.236  0.0779 -0.5838 -0.1723
23575W        W39192   3.078   5.366   4.808  0.1682  0.2726  0.2774
23576W        W39193   1.236  11.589  11.698  0.0223 -0.0014 -0.1246
23577W        W39194   7.823   2.053   5.399  0.1068 -0.0984 -0.0159
23578W        W39195   1.766   1.008   4.682 -0.4013 -0.0233  0.0881
23579W        W39196   8.162  12.494   3.469 -0.0957 -0.0086 -0.2500
23580W        W39197   2.043   6.550  12.263  0.1038  0.1617 -0.0875
23581W        W39198   0.550   4.284   5.426 -0.1979 -0.0150  0.1915
23582W        W39199  10.369  18.464   5.620 -0.2538 -0.4382  0.0982
23583W        W39200  17.085   8.706  13.836 -0.0983 -0.2904 -0.2439
23584W        W39201  16.009  10.309   1.017 -0.3280  0.3128  0.0462
23585W        W39202  12.884   7.034  11.817 -0.1473 -0.1176  0.0631
23586W        W39203   0.332  15.045   9.614  0.0273 -0.0171 -0.2631
23587W        W39204   6.057   1.464  14.173  0.2173  0.1588 -0.2013
23588W        W39205  10.815   2.107   0.546 -0.4239 -0.2324  0.3998
23589W        W39206  18.284   0.379   5.059  0.2244  0.0669  0.0077
23590W        W39207  10.323   0.665   2.126  0.0264 -0.2493  0.0770
23591W        W39208   1.746  13.636   4.023 -0.1718 -0.3150 -0.2496
23592W        W39209  14.132   5.108   2.147  0.1014  0.1349 -0.0265
23593W        W39210  16.934  17.683   5.737 -0.4894 -0.0788 -0.3521
23594W        W39211  12.950   3.826   2.322  0.0427 -0.2645 -0.0861
23595W        W39212  16.599  14.975   1.891  0.2331  0.0958  0.0890
23596W        W39213  13.511  14.396  12.874  0.1024 -0.1778  0.0201
23597W        W39214   3.813  17.991   5.043 -0.1761 -0.1313  0.1999
23598W        W39215   0.280   8.715  14.333 -0.0542  0.2348  0.1309
23599W        W39216   7.005  15.263   4.701  0.4159  0.1446 -0.0033
23600W        W39217  18.369   8.187  12.363  0.2409 -0.2312 -0.0065
23601W        W39218   3.258   8.209  10.706  0.2270  0.2136  0.0126
23602W        W39219   0.702   8.701  13.281 -0.1180 -0.1008 -0.0770
23603W        W39220   9.230   9.047   3.190  0.2149  0.1461  0.2017
23604W        W39221   8.983   7.579   0.660 -0.4436  0.1654 -0.0996
23605W        W39222   3.427  16.209  11.608  0.1913  0.0257  0.0240
23606W        W39223   3.398   6.137  12.756 -0.2294 -0.0056  0.2332
23607W        W39224  16.117  16.772  12.560  0.3169 -0.1108  0.4798
23608W        W39225  16.671   7.890  15.566  0.3319 -0.2456  0.0047
23609W        W39226  15.852  12.209  13.225 -0.1183  0.3135 -0.0979
23610W        W39227   5.933   9.265   2.841  0.0038 -0.0962 -0.2624
23611W        W39228   3.712   7.846   0.266 -0.0460  0.2305  0.1635
23612W        W39229  11.819   5.772   2.781 -0.0654 -0.0520  0.1659
23613W        W39230   3.813  12.667  11.786  0.2342 -0.2029  0.1422
23614W        W39231   2.250   4.917   5.162  0.1050  0.0957 -0.1159
23615W        W39232  18.444   1.382   6.520 -0.0597 -0.1033  0.2693
23616W        W39233  11.584   2.983  14.469  0.2508 -0.2355  0.2518
23617W        W39234  13.217  12.165  10.819  0.0529  0.1622  0.2581
23618W        W39235   3.881   9.010  15.578 -0.2056  0.0054  0.1988
23619W        W39236   5.107   6.301   2.406  0.0380 -0.0789  0.0603
23620W        W39237   6.752   1.635   3.528 -0.2015  0.0299 -0.0701
23621W        W39238  10.837   6.567  12.109 -0.2323  0.1562 -0.3780
23622W        W39239  12.527  11.213   3.093  0.0451 -0.3530 -0.0514
23623W        W39240   9.046   8.444  11.375  0.0186 -0.0088 -0.3588
23624W        W39241   7.025   5.188   4.154  0.0655  0.4152  0.0315
23625W        W39242  15.803  13.945  11.831  0.0967 -0.0087 -0.2881
23626W        W39243   5.808  11.558  14.432 -0.1213 -0.1476 -0.2876
23627W        W39244   0.369  17.403   1.651  0.0251  0.0343 -0.0885
23628W        W39245  14.400  10.693   1.839 -0.0699 -0.0409  0.0643
23629W        W39246   1.255   0.090   5.922  0.0676  0.3766 -0.2201
23630W        W39247  10.975  14.072  12.282 -0.2118 -0.0165  0.1231
23631W        W39248  14.160   7.480  14.633 -0.2573 -0.0258  0.2246
23632W        W39249   7.028  10.031   4.767 -0.2984  0.1682  0.1307
23633W        W39250   8.122   1.893  12.971 -0.0341 -0.2738  0.0276
23634W        W39251  16.049  10.662   4.412 -0.1853 -0.0140 -0.0344
23635W        W39252  15.591  18.130  10.267  0.1808  0.1370 -0.3011
23636W        W39253  18.367   3.268   4.765  0.1668 -0.2458 -0.1679
23637W        W39254   6.594  18.136   0.980  0.0745 -0.3424 -0.0436
23638W        W39255   5.977  10.883  13.388  0.0142 -0.1946  0.0331
23639W        W39256   3.126  11.979   3.542 -0.1926 -0.1823  0.2218
23640W        W39257   2.053   4.388   3.324 -0.3800  0.0150 -0.1660
23641W        W39258  14.935   6.823   0.348 -0.2138 -0.0328 -0.1749
23642W        W39259   5.505  11.650   3.598  0.1300 -0.0243 -0.3797
23643W        W39260  12.508   8.109   1.682  0.0661 -0.2080 -0.2098
23644W        W39261  17.951   7.866   2.775 -0.1523  0.0228 -0.2210
23645W        W39262  11.259  11.912  11.391 -0.0089 -0.3588  0.0766
23646W        W39263   2.002  15.767   4.940  0.1180 -0.0195  0.3879
23647W        W39264   6.298   2.561   1.288  0.0063  0.1440 -0.4080
23648W        W39265   7.840   1.568  12.344  0.0882  0.2871  0.1943
23649W        W39266   7.533   1.952  12.125 -0.0837 -0.0992  0.2424
23650W        W39267  10.807  17.162  11.599 -0.1386 -0.0384  0.1652
23651W        W39268   7.546   2.411   0.642 -0.3369  0.0267  0.1126
23652W        W39269   5.556   7.888  11.880 -0.1327  0.0212 -0.1623
23653W        W39270  11.415   3.593  10.320 -0.1375 -0.0645  0.3951
23654W        W39271   0.052   2.783   5.709 -0.1310 -0.1064 -0.1941
23655W        W39272  11.385  11.075   3.252  0.3175 -0.1021  0.0552
23656W        W39273  14.145   9.069  13.112 -0.4087  0.1827  0.0351
23657W        W39274  14.916   4.836   0.040  0.1046  0.1187 -0.3032
23658W        W39275  15.329   9.422  11.581 -0.1583 -0.0186  0.0031
23659W        W39276   2.691  11.395  12.198 -0.0096  0.2899  0.1056
23660W        W39277  13.945   3.059   3.333 -0.0465  0.1521 -0.1153
23661W        W39278  13.827  13.844  11.380  0.3052 -0.1019 -0.0987
23662W        W39279  11.887   3.802  14.082 -0.2510 -0.1579  0.1230
23663W        W39280   9.636   6.013  14.710 -0.0233  0.2589  0.0696
23664W        W39281   7.293  11.952  12.886 -0.1318 -0.3196  0.1179
23665W        W39282   4.773  10.397  11.564  0.0165  0.0125 -0.0156
23666W        W39283   7.657   2.104   2.839 -0.1404 -0.1332  0.0502
23667W        W39284   2.716  14.264  15.328  0.2362 -0.0693  0.0489
23668W        W39285  11.672   0.855  14.930 -0.1550  0.0124  0.0675
23669W        W39286  11.256   0.936  15.354  0.1453  0.0028  0.0644
23670W        W39287  11.183  11.086  13.192  0.0609 -0.5661 -0.0926
23671W        W39288   5.646  10.093   0.990  0.2674  0.1520 -0.0559
23672W        W39289  15.692   3.130  12.321 -0.0735  0.1836 -0.1395
23673W        W39290   5.703   5.047   4.376 -0.2208  0.1756  0.0808
23674W        W39291  13.093   2.229   1.600  0.0223  0.2121  0.1706
23675W        W39292   1.154   3.909   4.832 -0.1058  0.0099 -0.0891
23676W        W39293  11.413  14.157  13.239 -0.0517 -0.2323  0.2770
23677W        W39294  11.533  11.854  14.269  0.0840 -0.0356 -0.0559
23678W        W39295  14.282  18.634   5.533 -0.2605 -0.4454  0.1713
23679W        W39296  13.658   8.878   9.554  0.1043 -0.0445  0.2356
23680W        W39297   5.665   5.152  12.198 -0.0400  0.0328 -0.0937
23681W        W39298  16.310  13.750  15.319 -0.0896 -0.0047 -0.2394
23682W        W39299   3.696   2.504   2.622 -0.2020  0.2147  0.1832
23683W        W39300  15.022   7.709   3.881 -0.2006 -0.0137 -0.0646
23684W        W39301  17.284  12.332   0.861 -0.0594  0.3120 -0.5873
23685W        W39302  14.597  18.195  13.675  0.0549  0.2356  0.0817
23686W        W39303  15.590  16.778   3.634 -0.5581  0.1402 -0.3723
23687W        W39304  14.128  14.640   5.214 -0.1133  0.1972  0.4054
23688W        W39305   2.636  17.813  11.473 -0.0359  0.2735  0.0193
23689W        W39306   3.760   5.901   4.791  0.2572  0.0894  0.0458
23690W        W39307   9.531   8.543   0.527  0.0971  0.1298  0.0106
23691W        W39308   3.133   6.114   3.329  0.1024  0.0629 -0.1495
23692W        W39309   7.281   1.398  12.945  0.0335 -0.0845 -0.4552
23693W        W39310  10.452  13.070  11.172  0.3274  0.0403  0.1735
23694W        W39311   2.584  17.826   2.312 -0.1556 -0.2418  0.1345
23695W        W39312   2.206  16.878   2.015  0.1468  0.0210  0.1736
23696W        W39313  18.650  17.309  12.311  0.0310 -0.4767  0.0681
23697W        W39314  14.957  15.864   0.125  0.0352 -0.0677  0.0650
23698W        W39315  11.224   5.647  15.451 -0.0233 -0.0858  0.2742
23699W        W39316   6.965  16.438  14.601 -0.0153  0.3104 -0.3814
23700W        W39317   6.865   8.427  11.077 -0.0894 -0.1145  0.0880
23701W        W39318  10.072   5.562   1.811  0.0312 -0.1445  0.0904
23702W        W39319   7.527  13.707  12.266 -0.2061  0.0607  0.0587
23703W        W39320  10.673  18.499   3.175  0.3486  0.1242 -0.0082
23704W        W39321   1.918   0.605   1.338 -0.4238  0.0738  0.0256
23705W        W39322   9.050  17.231  10.697 -0.4689  0.0586 -0.2468
23706W        W39323   0.246   6.267   2.540 -0.0541 -0.0198  0.1791
23707W        W39324  11.914  15.056  14.797 -0.1077  0.1893  0.2454
23708W        W39325   9.895  13.200  15.481 -0.3269  0.0401 -0.1112
23709W        W39326   2.065   8.462  12.591 -0.1225  0.1433 -0.1800
23710W        W39327   0.120   8.984  12.445 -0.0337 -0.0737  0.1260
23711W        W39328  17.297  11.024  10.486 -0.2476 -0.2032  0.1029
23712W        W39329   9.936  10.626  12.312 -0.1024  0.1353  0.0425
23713W        W39330  12.611  10.689   2.962 -0.0174  0.0152 -0.2072
23714W        W39331   6.127   4.482  14.501  0.0573 -0.0705 -0.2852
23715W        W39332   0.094  16.836   3.554 -0.1381  0.0597 -0.0151
23716W        W39333  11.849  17.757  15.530 -0.0237 -0.1928  0.1979
23717W        W39334  16.973  12.465  12.403  0.2442 -0.2663  0.1192
23718W        W39335  15.966  11.748   2.771  0.0620  0.0543  0.2638
23719W        W39336   8.922  10.039   2.926 -0.0177 -0.0956  0.2987
23720W        W39337   3.716   4.022   5.229 -0.0795 -0.2914 -0.2589
23721W        W39338  14.493  12.439   1.024  0.0822  0.2781 -0.0112
23722W        W39339   9.449   5.214   0.288 -0.3138 -0.1636 -0.1679
23723W        W39340  12.753   0.943  14.942 -0.3568 -0.0769 -0.1045
23724W        W39341   4.119   9.474  11.826 -0.4781  0.0292 -0.1747
23725W        W39342   8.199   6.998  12.762  0.0055  0.0357  0.1331
23726W        W39343   2.580  11.340  11.256 -0.0958  0.1223 -0.1885
23727W        W39344  10.015  13.945   0.556 -0.3204 -0.2454 -0.0119
23728W        W39345   7.358  10.263  12.812 -0.3572  0.0001  0.0313
23729W        W39346   8.164   8.257   0.567 -0.2363  0.3441  0.0950
23730W        W39347   7.283   5.607  14.818 -0.1415  0.2878  0.1231
23731W        W39348   0.639   7.084   2.825 -0.2873  0.0211  0.0414
23732W        W39349   0.880   2.057  10.932 -0.1453  0.0280  0.0814
23733W        W39350  16.719   3.093   3.162  0.0396 -0.0844 -0.0639
23734W        W39351  11.704  15.783   1.934 -0.1546 -0.1769  0.0944
23735W        W39352   1.317  10.417  10.358 -0.0048  0.3327 -0.1876
23736W        W39353  18.476   7.407  12.029  0.1719 -0.1611  0.0068
23737W        W39354  15.105  14.482  12.124 -0.2873  0.2351 -0.1404
23738W        W39355   3.890  17.708   4.190  0.1480 -0.1117  0.0125
23739W        W39356   0.062   6.592   3.532 -0.0379  0.1486  0.2509
23740W        W39357   4.905   0.894   5.345  0.0974 -0.0528 -0.0761
23741W        W39358  11.181   2.816  11.466  0.0201 -0.0115 -0.0258
23742W        W39359  11.205   2.205  15.459  0.0522 -0.0339  0.1951
23743W        W39360   8.704   7.418   4.573  0.0885 -0.2053  0.0284
23744W        W39361   6.608   6.593  11.960 -0.2173  0.2397 -0.1691
23745W        W39362  13.706  10.682   0.188 -0.0086 -0.1870 -0.0077
23746W        W39363   7.301  14.457  14.396  0.0850  0.0789  0.3338
23747W        W39364   6.053  10.618  11.569  0.0274  0.0328 -0.0649
23748W        W39365   4.635   5.628   5.058  0.0320  0.1448  0.0866
23749W        W39366  11.717   8.633   1.173  0.1891  0.0081  0.0769
23750W        W39367   1.739  14.941  14.480  0.2017 -0.1519  0.0955
23751W        W39368   4.268  16.931  15.011 -0.1549  0.3133  0.0413
23752W        W39369  13.765   0.089  14.360  0.1250  0.3698 -0.0493
23753W        W39370  12.165   8.449  14.761 -0.3946 -0.1072 -0.3126
23754W        W39371   6.172  15.590  12.455 -0.1673  0.3190 -0.3054
23755W        W39372   1.989  15.163   3.808 -0.0467  0.0376 -0.0552
23756W        W39373   1.159  17.988  13.548  0.1274 -0.0272 -0.0852
23757W        W39374   7.727  13.503   5.246 -0.2188 -0.0890  0.1161
23758W        W39375   3.368  15.916   3.171  0.0608 -0.0277  0.0753
23759W        W39376  13.403  12.077   4.626 -0.2515 -0.0443 -0.1116
23760W        W39377  18.450  16.445   3.886 -0.0780 -0.0577  0.0043
23761W        W39378  14.441  13.747  13.983  0.0225 -0.0872 -0.1700
23762W        W39379   1.033  14.560   2.008  0.0397  0.2156 -0.1407
23763W        W39380  17.186   7.124  10.850  0.1857  0.0535  0.1011
23764W        W39381   5.474   6.900  12.062 -0.2040 -0.2406  0.2531
23765W        W39382  18.157  18.195   2.898  0.3038  0.1357  0.0430
23766W        W39383   0.412  18.468   2.170  0.0093 -0.1684 -0.0010
23767W        W39384  10.675  12.604  11.042  0.2926 -0.0830 -0.2639
23768W        W39385  11.097   5.200  14.199  0.1075  0.0352 -0.3054
23769W        W39386  17.979   2.100  11.272 -0.0189 -0.0651  0.0201
23770W        W39387   2.070  17.699   2.163  0.1334  0.2531 -0.2667
23771W        W39388   5.680   1.551   2.580 -0.1756 -0.3793  0.0231
23772W        W39389   0.471   4.410  14.067 -0.6097  0.1246 -0.0666
23773W        W39390  14.683   1.292  13.151  0.4374  0.1951  0.1875
23774W        W39391  11.211   8.763   1.111 -0.0096 -0.3317 -0.0376
23775W        W39392  10.620  12.324   3.531  0.2154 -0.1333 -0.0178
23776W        W39393  14.867  10.452  11.404 -0.1207 -0.0821 -0.1313
23777W        W39394  15.132   9.929  12.228 -0.2224 -0.0889  0.0894
23778W        W39395  12.395   4.542  13.032 -0.1143  0.0454  0.0634
23779W        W39396  11.816  15.544   5.418  0.0566 -0.0151 -0.0092
23780W        W39397   1.788  16.679  15.683  0.0443  0.1160  0.0985
23781W        W39398  15.482   0.740   6.319  0.1405  0.1462 -0.0528
23782W        W39399  15.747   3.594   4.342  0.0065 -0.1352 -0.1558
23783W        W39400  12.860   6.636  13.603 -0.0058 -0.0437  0.3500
23784W        W39401   7.256  16.476   1.945 -0.0379 -0.0643 -0.2183
23785W        W39402   1.409  11.351  15.597 -0.1288 -0.2043 -0.0880
23786W        W39403   8.397   1.703   5.323 -0.0533 -0.2249  0.1256
23787W        W39404  15.276  15.034  13.416 -0.3340  0.1085  0.0357
23788W        W39405   7.034   4.317   3.608  0.1684  0.0763  0.1178
23789W        W39406   9.404   7.977   5.177 -0.2215  0.0288 -0.1707
23790W        W39407  13.011   9.567  12.005 -0.1565  0.2073 -0.4850
23791W        W39408   3.436  15.073   4.904  0.3142 -0.1548  0.1636
23792W        W39409  15.367   0.322  15.584 -0.1710 -0.5486 -0.0083
23793W        W39410  15.917  11.835  10.855  0.0305  0.1299 -0.0013
23794W        W39411  13.951   4.866   6.361  0.1681 -0.0676  0.0602
23795W        W39412   8.532   8.351  11.692  0.1508  0.1950  0.0993
23796W        W39413   6.976  13.787   0.541  0.1645  0.3059  0.2428
23797W        W39414   8.534  16.781   2.417  0.1457  0.1625  0.0152
23798W        W39415   9.224   6.395  14.125 -0.1200  0.0988  0.0980
23799W        W39416   9.198   6.446  11.478 -0.3300  0.0569 -0.2272
23800W        W39417   4.607  11.181   0.261 -0.1765 -0.0125 -0.1641
23801W        W39418  17.342  16.589  12.455  0.2977  0.1810 -0.1002
23802W        W39419  15.317   2.910   0.828 -0.1729 -0.2869  0.0082
23803W        W39420  17.483  16.186   2.435 -0.1344  0.0326  0.4126
23804W        W39421   7.571   1.344   3.666  0.0175  0.4851  0.1602
23805W        W39422  17.520  12.367  13.538 -0.1156  0.1125 -0.0322
23806W        W39423   0.520  13.602  11.280  0.0176  0.2965 -0.0315
23807W        W39424   6.953   7.657   0.926 -0.1779 -0.0045  0.2568
23808W        W39425   0.323  13.378  12.696  0.2315 -0.2651  0.2395
23809W        W39426  13.656  16.946  13.345  0.0061 -0.0884  0.1093
23810W        W39427  15.930   1.484   0.922 -0.1761 -0.2671 -0.3228
23811W        W39428   0.824   9.463   2.729 -0.0606  0.0208 -0.3803
23812W        W39429  16.617   0.640   1.867  0.1216 -0.1152  0.1985
23813W        W39430   9.791   5.468   2.204  0.0866 -0.1232  0.0189
23814W        W39431   0.244   1.169   3.895  0.1239 -0.0745 -0.1248
23815W        W39432   2.443   1.344  15.031  0.0821  0.1050  0.0645
23816W        W39433  17.759   6.549  13.656 -0.1926  0.2861  0.0149
23817W        W39434   7.450   1.923   0.921 -0.1446  0.0078  0.1978
23818W        W39435   9.949  14.630   2.009 -0.5314  0.1333  0.0598
23819W        W39436   0.177  12.773  10.700  0.0026 -0.2557 -0.0294
23820W        W39437  11.641  17.505   4.466 -0.0315 -0.1393 -0.0622
23821W        W39438   5.642  16.217  15.734  0.2558  0.1400 -0.0147
23822W        W39439   9.233  15.636   1.695  0.0480  0.5303  0.0492
23823W        W39440   7.598   6.380   5.592  0.2023 -0.2354 -0.3254
23824W        W39441   5.397  16.411   5.578  0.0151 -0.0191 -0.3984
23825W        W39442  12.974   2.534  15.663 -0.1063 -0.0288  0.0754
23826W        W39443   4.648  14.768  15.157  0.0025  0.0367 -0.1478
23827W        W39444   9.272   1.285   5.608  0.0215 -0.0251 -0.1386
23828W        W39445   3.149  14.516  15.446 -0.2508  0.0595  0.0136
23829W        W39446  13.277  17.880   3.185 -0.0767  0.0745 -0.2284
23830W        W39447   5.125  18.254   0.607  0.2100 -0.0771  0.0027
23831W        W39448  17.195  15.578  15.165 -0.0330  0.1321 -0.1094
23832W        W39449   9.400  12.573  12.228  0.1935 -0.0469 -0.1333
23833W        W39450   4.008  16.931  15.511 -0.1718  0.1797  0.3799
23834W        W39451   1.914   6.304  12.823  0.1113  0.0863  0.1559
23835W        W39452  10.053   8.402   0.494 -0.0454  0.1511 -0.1462
23836W        W39453   2.607  10.669  15.050  0.2427  0.1759  0.2034
23837W        W39454  16.066   5.862  15.007 -0.2187  0.0019  0.1529
23838W        W39455   7.662   0.612  13.161 -0.1064 -0.0674 -0.4933
23839W        W39456  11.577   8.111  12.881  0.0235 -0.0441 -0.2542
23840W        W39457  14.283  17.795   3.856  0.0010  0.4132 -0.3839
23841W        W39458  10.073   9.309   5.557 -0.1039 -0.5965  0.0547
23842W        W39459  12.447   9.663   1.333 -0.0829 -0.0892  0.0914
23843W        W39460   0.712   5.096  15.562  0.2584 -0.0650 -0.0382
23844W        W39461  15.141  10.593  12.776 -0.0352  0.1294 -0.3322
23845W        W39462  12.600   8.965  12.587  0.2071 -0.2476  0.1335
23846W        W39463   9.991   9.537  13.301  0.1506 -0.1483  0.0827
23847W        W39464   8.829  17.030  14.662 -0.2751 -0.0388  0.0590
23848W        W39465  14.508  12.263  11.382  0.0979  0.0927 -0.1262
23849W        W39466   3.055   0.680   1.669  0.1505  0.2976 -0.2806
23850W        W39467  15.389  11.415  12.724 -0.0621  0.0394  0.3108
23851W        W39468  16.808   7.285   4.108 -0.2090 -0.1932  0.0393
23852W        W39469   3.426   6.692   2.262 -0.0726  0.1607 -0.1816
23853W        W39470  14.162  16.329   4.557 -0.1953  0.0723  0.2068
23854W        W39471  14.027   5.252   0.450 -0.0337 -0.0130 -0.1566
23855W        W39472   2.902   5.217  15.167 -0.2534 -0.0052 -0.0314
23856W        W39473  11.139  17.149  15.737  0.0745  0.3518 -0.2697
23857W        W39474   2.816   3.858  14.086  0.0682 -0.0092  0.2370
23858W        W39475   8.151   4.639   1.419 -0.0096 -0.0426  0.0140
23859W        W39476   1.977  17.916   3.571 -0.3522 -0.0859  0.0538
23860W        W39477  18.122  15.369   4.192 -0.1559  0.1335 -0.2602
23861W        W39478  15.047  10.442   0.478 -0.1009  0.2583  0.1416
23862W        W39479  11.947  16.506   3.823  0.1137  0.3933 -0.0355
23863W        W39480   3.473   5.614  13.491  0.0498  0.1704  0.1052
23864W        W39481  11.658   0.772  13.038  0.1979 -0.1546 -0.2002
23865W        W39482   8.136   6.521  11.458  0.1537  0.1508  0.4245
23866W        W39483   1.178  10.220  11.276 -0.2220  0.0602 -0.0171
23867W        W39484  14.824  18.443   2.655 -0.1060  0.3402  0.1185
23868W        W39485   4.154  12.475  14.055 -0.2092 -0.2441  0.1947
23869W        W39486  17.110  14.730   2.923  0.1349  0.3468 -0.1964
23870W        W39487  15.134  15.374   4.515  0.0146 -0.3053  0.1103
23871W        W39488   7.610  17.222   2.333  0.0139  0.0418  0.2934
23872W        W39489  18.195   9.989   1.999 -0.0349  0.3259  0.0078
23873W        W39490  15.837  12.086   1.622 -0.1542  0.0166  0.1538
23874W        W39491   8.686   1.512   1.229  0.2632 -0.1932 -0.1731
23875W        W39492  13.299  11.683   4.934 -0.1648 -0.0319  0.0598
23876W        W39493  16.701   3.475  12.978  0.3264  0.0533  0.3832
23877W        W39494   8.045   3.808  15.780 -0.1284  0.0244  0.1992
23878W        W39495  14.877  18.347   3.755  0.0160  0.1241 -0.0184
23879W        W39496   3.438   3.190  14.902 -0.3588  0.1324  0.3482
23880W        W39497  14.777  13.061   0.770  0.0032 -0.2498  0.0453
23881W        W39498   5.362  13.625   3.539 -0.1175  0.3552  0.2892
23882W        W39499   0.107   0.746  12.364 -0.0785 -0.0792  0.1224
23883W        W39500   6.755   7.278  11.949  0.0435 -0.1609 -0.0195
23884W        W39501  11.549  15.869  12.896 -0.2108  0.1767 -0.3752
23885W        W39502   4.375  10.331  11.272 -0.1853 -0.1539  0.2673
23886W        W39503  15.871  16.124   1.872  0.1108 -0.0679 -0.1125
23887W        W39504   8.973   3.899  14.420  0.2165 -0.1934 -0.2795
23888W        W39505   6.769   2.658   4.092  0.0815  0.3044 -0.1028
23889W        W39506  16.238  15.944   3.776 -0.1360  0.1749 -0.3431
23890W        W39507   6.803   7.810   4.432  0.1159 -0.0151 -0.2052
23891W        W39508  13.499   2.482   2.335 -0.2637  0.0290 -0.0930
23892W        W39509   5.048  12.033  12.930 -0.0628 -0.1590 -0.0278
23893W        W39510   9.772   8.258   0.131  0.1532  0.3326  0.1284
23894W        W39511   8.357  17.719   4.596 -0.0101  0.1652 -0.0927
23895W        W39512   3.769   9.898  11.688  0.3857  0.4129  0.0448
23896W        W39513   9.678   8.985   5.007  0.0256  0.1822  0.0688
23897W        W39514   6.846  10.748   0.046 -0.0776  0.0069 -0.0890
23898W        W39515   1.907  13.132   3.793  0.0040 -0.2567 -0.0767
23899W        W39516  15.282  13.158  12.239  0.1035 -0.0015 -0.3976
23900W        W39517   6.129   0.284  15.398 -0.0247 -0.0332  0.0470
23901W        W39518   4.053   2.876   1.037  0.0567 -0.2105  0.0387
23902W        W39519   8.905   1.090  12.006  0.0007  0.0851  0.1505
23903W        W39520  17.634   5.484  12.073  0.0666  0.0215  0.2856
23904W        W39521  15.565  14.143  13.698 -0.0963  0.2489 -0.2604
23905W        W39522  13.435   2.750   4.076 -0.0883  0.0132 -0.0530
23906W        W39523   3.997  13.033   2.384  0.2977  0.2293 -0.3754
23907W        W39524   1.597   4.853  12.348 -0.1370  0.0860 -0.0060
23908W        W39525  11.604  18.638   0.803 -0.1436  0.0727 -0.0888
23909W        W39526   6.485  15.470  15.038 -0.1191  0.0376 -0.0883
23910W        W39527   7.534   1.591   4.159 -0.0000 -0.0155  0.1663
23911W        W39528  13.055  16.418   5.143  0.1252 -0.1342 -0.1510
23912W        W39529   7.337   5.409   5.833  0.1666 -0.2435 -0.2971
23913W        W39530   5.126   9.459  15.595 -0.1107  0.0686 -0.2173
23914W        W39531  17.871   5.918   3.933  0.1081  0.0565 -0.1397
23915W        W39532  17.719  13.296   5.222 -0.2132  0.2244 -0.1983
23916W        W39533  16.672   5.423   2.652 -0.1338  0.2410 -0.0162
23917W        W39534   9.818  11.183   1.734  0.2396  0.1488 -0.1786
23918W        W39535   2.803   2.088   1.752  0.2990 -0.1543  0.0769
23919W        W39536   2.341   5.059  14.555 -0.0323 -0.0601 -0.0779
23920W        W39537  10.966  14.960   2.742  0.0094  0.1411  0.2324
23921W        W39538   3.624  14.480   1.838  0.0616 -0.0730 -0.0659
23922W        W39539   4.535  11.441  13.701  0.0591 -0.0607 -0.0454
23923W        W39540   6.322   3.614   5.962 -0.1100  0.0606  0.0298
23924W        W39541   6.806  14.344   2.044  0.0165  0.1609 -0.1118
23925W        W39542   5.393  14.693  14.503  0.2549 -0.2286  0.2007
23926W        W39543  17.030   0.754   4.584  0.2774 -0.0893 -0.4559
23927W        W39544   8.034  12.011   3.625  0.0004 -0.0856 -0.1764
23928W        W39545   0.414   6.607  13.158 -0.2521 -0.0243 -0.1212
23929W        W39546  10.496  16.197   0.383  0.2680 -0.0375 -0.2077
23930W        W39547   8.413  11.654   0.947 -0.1026  0.0382  0.0252
23931W        W39548   8.686  17.308   4.281  0.1080 -0.2231  0.1239
23932W        W39549  13.368  11.087   4.753 -0.0106 -0.0948  0.1820
23933W        W39550   6.434  17.898   4.486 -0.0356  0.1920  0.0882
23934W        W39551  13.371   3.887  15.079  0.1764  0.0429  0.2464
23935W        W39552   6.178   7.966   0.557  0.1146 -0.4525  0.2447
23936W        W39553  15.481   0.855  14.874  0.2025  0.0115  0.1471
23937W        W39554   5.506  11.052  10.626 -0.3211 -0.0734 -0.0007
23938W        W39555   3.117  17.962  11.940 -0.2654 -0.0055 -0.0264
23939W        W39556  18.591  15.652   2.335  0.1254  0.0705  0.2517
23940W        W39557   2.826  12.469  13.475 -0.0800  0.1713  0.0919
23941W        W39558  14.640   0.927  15.670 -0.0959 -0.2328  0.3005
23942W        W39559   2.232   0.584  14.016  0.0636 -0.3877  0.2531
23943W        W39560   1.981  18.523   4.744  0.0174 -0.3117 -0.1838
23944W        W39561  16.280   3.576   4.049 -0.2681  0.1151  0.1392
23945W        W39562   4.681   9.360   0.100 -0.2281  0.0341 -0.1002
23946W        W39563   4.847   5.358   1.518 -0.3289 -0.0814 -0.1189
23947W        W39564   9.963  17.035  11.066 -0.3413 -0.0468 -0.0391
23948W        W39565   9.401   5.943  15.404 -0.1077 -0.1417 -0.0873
23949W        W39566   0.338   3.379   1.906 -0.1656  0.0518  0.0401
23950W        W39567   4.718   3.992  12.302 -0.0175 -0.1328  0.3489
23951W        W39568  10.386   8.150   4.942  0.0071  0.2956  0.1171
23952W        W39569  17.385   7.642   2.352 -0.1804  0.0557 -0.1731
23953W        W39570  11.821  17.224  14.024  0.1059  0.0522  0.1176
23954W        W39571   0.070  16.399   1.622  0.0258 -0.1701 -0.0350
23955W        W39572   5.304  15.385   4.406  0.2157  0.2180  0.0279
23956W        W39573  17.057   4.486  15.463  0.0765 -0.2670  0.0194
23957W        W39574   9.839  13.650   1.344 -0.0525 -0.1970 -0.1255
23958W        W39575   0.401  17.567   2.191  0.0470  0.1978 -0.0957
23959W        W39576   8.538  12.146  10.497  0.0498  0.1179 -0.2094
23960W        W39577  18.239  15.091   3.151 -0.0042 -0.3625  0.3524
23961W        W39578  16.632   0.683   4.965 -0.0845  0.0439  0.2011
23962W        W39579  15.617   6.946   4.598 -0.0959  0.2347 -0.0987
23963W        W39580   6.529   9.981   2.609  0.0513  0.0035 -0.0778
23964W        W39581  16.419   0.946   3.662 -0.0364  0.1788  0.1086
23965W        W39582  17.951   4.349   3.754  0.0892  0.0532 -0.2280
23966W        W39583  10.590   4.451   0.550 -0.0170  0.0317 -0.0140
23967W        W39584   5.122   2.550  14.462  0.2715 -0.0536  0.0658
23968W        W39585  16.216  11.828  14.823  0.2229  0.2338  0.4159
23969W        W39586   4.961  16.462   2.859  0.0465  0.1012  0.3449
23970W        W39587   8.210   6.114   5.011 -0.0371  0.1330 -0.1477
23971W        W39588  14.251   3.052   5.627  0.0921  0.0109  0.1294
23972W        W39589  14.850  16.308   5.264 -0.1640 -0.0686 -0.2268
23973W        W39590   7.932  16.636   4.449  0.2864 -0.3932 -0.0777
23974W        W39591  11.137  16.160   3.195  0.0504 -0.1449 -0.0720
23975W        W39592  14.860   3.994  15.345  0.1629 -0.1000 -0.1116
23976W        W39593   8.942   1.965   0.988  0.3471  0.1402  0.1015
23977W        W39594   6.095  15.664   3.063  0.1404 -0.3050  0.1208
23978W        W39595   8.618  10.155   2.393  0.0321  0.0250 -0.2216
23979W        W39596   8.625  16.799   1.641  0.1201 -0.1219 -0.1039
23980W        W39597  10.907  17.427   9.984 -0.2771 -0.0652 -0.0598
23981W        W39598   7.077  12.845  12.109 -0.0203  0.2590  0.0035
23982W        W39599   6.173  13.959  12.703  0.2108 -0.0928 -0.1276
23983W        W39600  12.092   1.623  15.555 -0.0085 -0.0903 -0.2643
23984W        W39601  14.841   8.415   4.727 -0.2215 -0.0502 -0.1398
23985W        W39602  18.356  15.159   2.171 -0.3298  0.3493  0.2207
23986W        W39603  17.835  15.684   1.376 -0.0544  0.0234 -0.5421
23987W        W39604  16.995   7.247  15.132 -0.2201 -0.2241  0.1521
23988W        W39605  17.787  15.773  14.292  0.1709  0.0247  0.1044
23989W        W39606   3.284   6.584   4.608  0.1780  0.3610  0.1791
23990W        W39607   9.237  10.764   2.271  0.1934 -0.0684  0.0093
23991W        W39608   9.116   9.411   1.334  0.1159 -0.0022  0.1079
23992W        W39609   5.582  10.324  14.667  0.0103 -0.2462 -0.0110
23993W        W39610   4.874   9.947   4.330  0.2165 -0.2106 -0.0770
23994W        W39611   9.635  12.702  15.393  0.2572  0.2349 -0.1405
23995W        W39612  10.256   6.710   4.660 -0.1202 -0.0321 -0.0063
23996W        W39613  11.180  14.395   9.626 -0.0922 -0.1112 -0.1517
23997W        W39614  12.251  18.009  11.832 -0.3155 -0.0569 -0.1043
23998W        W39615  12.295  10.281  13.986 -0.1820 -0.4892  0.1081
23999W        W39616  10.007  10.277  15.513  0.0021  0.0896  0.1985
24000W        W39617   8.922   3.711  13.799 -0.0844  0.0054  0.0240
24001W        W39618   3.246   2.677  14.649  0.1984 -0.2133 -0.1211
24002W        W39619  14.299  15.274   0.608 -0.0384 -0.1703 -0.0520
24003W        W39620  14.197   5.720   5.090  0.0643 -0.1738  0.2126
24004W        W39621  12.517   3.285   3.012  0.0961  0.1989 -0.1731
24005W        W39622   0.069  15.785   0.970  0.0050  0.4024  0.1375
24006W        W39623   4.847  17.070  10.610  0.1299 -0.2003  0.1513
24007W        W39624  16.439  11.198   1.312 -0.1100  0.0234 -0.5531
24008W        W39625   7.661   6.702  13.987 -0.2795  0.0551 -0.2443
24009W        W39626   0.590   2.362   3.002  0.0723 -0.0026  0.0652
24010W        W39627  13.809  12.710   2.895  0.0969  0.3250 -0.0170
24011W        W39628   0.039   4.378  12.480  0.0849 -0.0291  0.1469
24012W        W39629   0.015  18.487  13.301  0.1202  0.2246  0.3034
24013W        W39630  16.075  16.357  15.508 -0.0571  0.1371 -0.1048
24014W        W39631   8.874  15.548  14.305  0.1932  0.3119 -0.3018
24015W        W39632  17.258  13.699   3.125  0.1117 -0.0630  0.0806
24016W        W39633   7.670  14.472  14.697 -0.3153  0.0828 -0.0857
24017W        W39634   9.893   8.461   5.805  0.3848  0.1865  0.0527
24018W        W39635  11.872  14.820   4.746 -0.2911 -0.0722  0.4789
24019W        W39636  17.104   5.812  12.093 -0.2210 -0.3590  0.1534
24020W        W39637   7.403   1.497  14.604  0.3467  0.0880  0.0195
24021W        W39638  14.782  14.017   5.701 -0.3199  0.1378  0.1433
24022W        W39639  15.921   4.974  14.116  0.0727  0.0216 -0.1024
24023W        W39640   6.798   5.688  15.011 -0.0174 -0.0332  0.0392
24024W        W39641   0.560   6.691   4.098 -0.1473  0.0114  0.2427
24025W        W39642   5.311   0.145   5.518 -0.1907 -0.3894  0.1269
24026W        W39643   1.988   9.657  14.281 -0.1421  0.2123 -0.2869
24027W        W39644  12.119   9.605   4.792 -0.3474  0.3211  0.1179
24028W        W39645  18.193  11.639   5.662 -0.0969  0.1440  0.0855
24029W        W39646  12.026   5.662  10.237 -0.1642  0.0382 -0.0731
24030W        W39647   8.359  17.294  12.055 -0.4281 -0.0387 -0.2250
24031W        W39648   7.047  11.692  11.276 -0.0041  0.2444  0.2159
24032W        W39649   2.528  15.230   3.888  0.0470  0.1496  0.2586
24033W        W39650  13.241  12.173  11.925 -0.1001  0.1373  0.1022
24034W        W39651   8.056  14.008   2.874  0.2504 -0.0210  0.0753
24035W        W39652   0.289   7.252   2.513 -0.0887 -0.0489  0.4453
24036W        W39653   6.060   3.243  13.745  0.4428  0.0248  0.1183
24037W        W39654  14.209  16.979   2.218 -0.1274 -0.0591  0.0380
24038W        W39655   3.376   3.188  13.291 -0.1037  0.0994 -0.1788
24039W        W39656   1.810  15.344   5.105  0.1152 -0.0304 -0.2609
24040W        W39657  11.629   6.868   0.951 -0.0942 -0.2159  0.1160
24041W        W39658  12.982   4.885  15.324  0.0187 -0.1527  0.3149
24042W        W39659  11.775  17.116   1.406  0.1317  0.3002  0.2321
24043W        W39660  10.319  14.379  10.643 -0.2793 -0.1090 -0.0674
24044W        W39661   2.679   2.597   1.867  0.0002  0.1597 -0.0980
24045W        W39662  18.076   4.729  13.306  0.0039 -0.1178 -0.3690
24046W        W39663   6.894   1.655   2.223 -0.2463 -0.1604  0.1198
24047W        W39664  12.538   7.433   3.447  0.1076 -0.0288 -0.1078
24048W        W39665  10.387   8.872  12.355  0.1315  0.3585  0.1414
24049W        W39666  12.496   9.457  12.873 -0.0318  0.1977  0.2642
24050W        W39667   0.458   2.398   0.235  0.3213 -0.1717  0.2222
24051W        W39668   0.663  17.045  14.841 -0.3585  0.0302 -0.4077
24052W        W39669   4.785   1.287   3.232  0.3288  0.2396  0.2075
24053W        W39670   7.925  16.942   4.863 -0.1227  0.1128  0.1685
24054W        W39671  13.313  16.945  12.782  0.1790  0.2852 -0.4233
24055W        W39672   0.248   1.181  15.449  0.1058  0.0795  0.3872
24056W        W39673   7.281   6.188   4.244 -0.3212  0.1116  0.2191
24057W        W39674  16.799  12.385  11.922 -0.0269  0.2974 -0.0383
24058W        W39675  14.615   6.496   0.123 -0.3966  0.0589  0.0893
24059W        W39676   4.367   3.098  11.338  0.1751  0.1667  0.1917
24060W        W39677  18.319   3.771   3.672  0.1290  0.1348  0.2322
24061W        W39678  10.934   0.388   0.660  0.1126 -0.1098  0.0308
24062W        W39679   8.854   6.665  14.823  0.0498 -0.0200 -0.2883
24063W        W39680   8.705  11.992  12.159  0.1287  0.0171  0.1300
24064W        W39681  15.456   8.435   2.296 -0.0551 -0.1267 -0.2803
24065W        W39682   6.218   6.680  12.303 -0.4202 -0.0824  0.1154
24066W        W39683  11.049   2.680   3.494  0.0429  0.2732 -0.0467
24067W        W39684  13.648   5.667  12.122  0.1105 -0.3125 -0.1972
24068W        W39685   3.933  16.170   4.595  0.0386  0.1526 -0.2023
24069W        W39686  11.617  17.594  12.732  0.0406 -0.1521 -0.0916
24070W        W39687   0.017  14.611   1.791  0.1905  0.0842  0.1047
24071W        W39688   0.039   2.079  11.214  0.4482 -0.0149  0.1545
24072W        W39689   8.033  12.613  14.879 -0.1379 -0.1991 -0.1550
24073W        W39690  15.660   8.505  13.638 -0.1530  0.1325 -0.2384
24074W        W39691   2.995  13.523  14.678  0.0992 -0.0531  0.2093
24075W        W39692  12.130   1.374   3.715  0.1043 -0.1300 -0.1431
24076W        W39693   9.979  11.039   5.534 -0.0353 -0.0861  0.0203
24077W        W39694  17.998   4.809  11.596 -0.0074  0.0367 -0.1171
24078W        W39695   8.741  10.945   4.853  0.1827  0.0706 -0.1132
24079W        W39696   1.254  15.182   4.180  0.1485 -0.0020 -0.0689
24080W        W39697  18.623  15.361   1.322  0.1547  0.2354  0.0590
24081W        W39698   0.461   0.415   4.340  0.2536  0.1005 -0.0533
24082W        W39699  10.813   9.047   3.982 -0.3308 -0.0209 -0.0968
24083W        W39700   1.855   8.575  11.400  0.0541 -0.2357 -0.1279
24084W        W39701   6.528   0.194  12.854 -0.4124 -0.0705  0.1136
24085W        W39702   2.340   6.155  15.389 -0.2780  0.1222  0.1288
24086W        W39703  15.243  14.973   0.264 -0.0908  0.0253 -0.0748
24087W        W39704  12.454   9.794  11.165 -0.2520  0.1657  0.2639
24088W        W39705  18.182   1.285  10.964 -0.2827 -0.1378  0.1284
24089W        W39706   3.742  14.418   2.707  0.1557 -0.2997  0.2925
24090W        W39707   3.722  17.856  14.726  0.1698  0.2325 -0.0959
24091W        W39708  17.219  16.381  13.633  0.0051  0.2179 -0.1692
24092W        W39709  17.248   0.061   0.157 -0.1015  0.1487  0.0022
24093W        W39710   0.499   4.299   6.110 -0.2034  0.2393  0.0384
24094W        W39711  16.232   7.292  13.269 -0.0629 -0.0432 -0.0416
24095W        W39712  11.100   6.969   4.698 -0.1052  0.1981 -0.1724
24096W        W39713   1.898  11.353   4.184 -0.0513  0.0847 -0.0827
24097W        W39714   9.041  18.494   0.945  0.0247 -0.0322  0.2159
24098W        W39715  17.752  17.349   2.008  0.0652 -0.0188  0.1409
24099W        W39716  15.532  11.534  10.863 -0.1239 -0.0295  0.2630
24100W        W39717   2.769   1.249  14.644  0.1109 -0.1635  0.3451
24101W        W39718   1.311   2.653  14.213  0.0754 -0.0152  0.1732
24102W        W39719  16.701  10.816  13.092 -0.0232 -0.3864  0.1163
24103W        W39720   1.108  12.955   2.661 -0.0293 -0.0806 -0.3998
24104W        W39721  13.357   3.796   1.926 -0.0431 -0.2956 -0.1139
24105W        W39722   1.060  17.901   0.444  0.0766 -0.1826 -0.1172
24106W        W39723   3.227   6.366   3.768  0.0747 -0.0308  0.1051
24107W        W39724  15.795  12.579  15.264  0.1284  0.2902  0.1714
24108W        W39725   0.945   9.361   2.256 -0.3367 -0.1899  0.1104
24109W        W39726   6.688   7.488  15.475 -0.1347  0.0082  0.0469
24110W        W39727  18.172  13.114   2.202 -0.1016  0.0459 -0.1615
24111W        W39728   2.183  11.799  14.917  0.3212 -0.1670  0.0917
24112W        W39729  13.079   4.338   2.399  0.0477  0.0071 -0.1014
24113W        W39730   0.553   1.862   3.192 -0.0582  0.2054 -0.2923
24114W        W39731   5.247  12.455  15.291  0.1403  0.0872  0.6156
24115W        W39732   2.284  16.528  13.530  0.0183 -0.2662 -0.0124
24116W        W39733   4.193  16.571   1.152  0.1283  0.0705  0.0042
24117W        W39734  10.526  15.390   5.494 -0.3639  0.2509  0.2026
24118W        W39735   0.868   7.338  13.339  0.1034  0.0341 -0.1584
24119W        W39736   9.165   0.527   5.209  0.0259  0.4031  0.2173
24120W        W39737  18.172  15.699  12.992 -0.1839  0.1056 -0.1370
24121W        W39738  15.396  16.619  14.380  0.0156 -0.0019  0.0730
24122W        W39739   7.308  12.574   2.746 -0.1492 -0.0983  0.1089
24123W        W39740   3.586   9.528   0.379 -0.0270  0.1179  0.1489
24124W        W39741   7.437  17.291  13.765 -0.1486  0.0067 -0.0432
24125W        W39742   2.661  16.208  13.812 -0.1495  0.0532  0.2664
24126W        W39743  17.361  17.391  15.680  0.0175  0.0634 -0.0739
24127W        W39744  15.151   8.156  12.205 -0.1796  0.1831 -0.2639
24128W        W39745  14.076  12.853   4.390  0.0373  0.0484 -0.3142
24129W        W39746  18.131  16.737  15.458 -0.1297  0.1569 -0.4663
24130W        W39747   2.729  15.791   0.284  0.1069 -0.0219 -0.1367
24131W        W39748  13.605   8.254  13.642  0.1460  0.1328  0.1470
24132W        W39749  15.168   0.412   5.515  0.3268  0.1414 -0.0327
24133W        W39750   9.616   1.750   5.609  0.0634  0.1782  0.4669
24134W        W39751  17.520   4.765   3.737  0.0382  0.1625  0.2308
24135W        W39752  17.213   5.973   4.743  0.3362 -0.2550 -0.3222
24136W        W39753  12.212  17.844   3.242 -0.1954  0.1431 -0.0434
24137W        W39754  15.933   5.698   0.058  0.4228  0.0883  0.1983
24138W        W39755  12.610   2.239   2.848  0.0750  0.1550 -0.0351
24139W        W39756  14.646   7.870   1.035 -0.2278 -0.1746  0.1102
24140W        W39757   2.754  14.881  13.283 -0.1912 -0.0150  0.2287
24141W        W39758   5.783  15.945   5.677 -0.0233  0.2084  0.0466
24142W        W39759   6.163   0.426   5.246 -0.2717 -0.1493  0.3197
24143W        W39760  16.803  11.397   4.122 -0.2100  0.1303 -0.0387
24144W        W39761   8.591   1.188  14.048 -0.1383 -0.2700  0.1029
24145W        W39762  14.090  18.085  12.897  0.0956  0.1162 -0.1158
24146W        W39763  16.845   4.041   3.644  0.0780  0.1697  0.1099
24147W        W39764  18.158   9.635  11.171  0.1280 -0.0316 -0.1053
24148W        W39765   8.048   4.283   1.842  0.2289  0.1631  0.1792
24149W        W39766   6.055   4.649   0.345 -0.0320 -0.1074 -0.2004
24150W        W39767  13.990   9.333   1.247  0.2900  0.0996 -0.0346
24151W        W39768  14.878   3.330   3.323 -0.2439  0.3273 -0.2081
24152W        W39769  18.161  16.208  11.768  0.2227 -0.2080  0.5579
24153W        W39770  15.817   3.252  11.863  0.0071  0.0018 -0.0281
24154W        W39771   1.640  15.541  12.891 -0.1979 -0.1253  0.0670
24155W        W39772  17.803   7.113   4.201 -0.0417 -0.4621  0.1598
24156W        W39773  16.479   9.819  15.436 -0.1788  0.0192 -0.1121
24157W        W39774   8.228  12.348   4.771  0.1918  0.0838 -0.1943
24158W        W39775  11.180   2.359  12.352  0.0245 -0.4031 -0.0788
24159W        W39776  15.800  13.758  10.998 -0.0629  0.5775 -0.3534
24160W        W39777  13.027   0.369   3.774  0.0827  0.0978  0.3961
24161W        W39778  17.689  13.813   3.478 -0.0517 -0.2241  0.0887
24162W        W39779   0.086   1.232   3.115 -0.1799  0.0935 -0.0642
24163W        W39780  13.108  14.772  15.788  0.3591 -0.0499  0.0615
24164W        W39781  15.905  16.525   0.240  0.2992  0.1736  0.1040
24165W        W39782  18.420  16.784  14.988 -0.1371 -0.0980  0.0910
24166W        W39783   0.390  16.941  14.378 -0.0774  0.1303 -0.0767
24167W        W39784   6.896   1.144   3.381 -0.0356 -0.0437  0.1207
24168W        W39785  10.689   8.973  10.707 -0.3662  0.1786  0.0990
24169W        W39786   4.010  14.252  11.528 -0.0168 -0.3068  0.1272
24170W        W39787   6.175  10.107   4.265 -0.1345 -0.2911 -0.1097
24171W        W39788  13.796  18.543  14.824  0.1181 -0.1280  0.0506
24172W        W39789  17.291   4.343   5.090 -0.0696 -0.0682 -0.3382
24173W        W39790   5.815  10.559   4.295 -0.0826 -0.1821 -0.1785
24174W        W39791  16.328  17.033  14.362  0.1850 -0.2904 -0.0138
24175W        W39792  13.748   7.064   4.376 -0.2276  0.0073 -0.0423
24176W        W39793   0.067   3.402   0.869 -0.0068 -0.0487 -0.1013
24177W        W39794  17.390   6.165   0.055 -0.1387  0.0864 -0.2098
24178W        W39795  11.908  18.483  15.020 -0.0957  0.1038  0.0660
24179W        W39796   4.886   7.967  11.201  0.1091 -0.2374 -0.1018
24180W        W39797   2.448   9.762  11.922  0.1190 -0.1540 -0.0084
24181W        W39798  17.567   3.065   0.496  0.3138  0.0794  0.1701
24182W        W39799  10.166   6.321  13.983 -0.2628  0.1663 -0.1231
24183W        W39800  14.141  14.690   4.170 -0.0077 -0.0068 -0.1550
24184W        W39801   2.948  11.995  14.050  0.1460  0.0958  0.1116
24185W        W39802   4.076   4.249   1.400 -0.0436 -0.2563 -0.1490
24186W        W39803   0.676  10.564   0.027  0.0391  0.3250  0.0303
24187W        W39804  13.389  13.427  12.774 -0.1074 -0.0975  0.1216
24188W        W39805   5.829   5.173   0.112 -0.3242  0.1486  0.0936
24189W        W39806   1.095   0.651   5.422 -0.2133 -0.2278 -0.1747
24190W        W39807  13.446   8.014   5.525 -0.0306  0.1087  0.3752
24191W        W39808  12.790  16.413   1.124  0.1001 -0.1368  0.1270
24192W        W39809   7.049  13.727   3.552 -0.0920 -0.2001  0.0987
24193W        W39810   3.309   6.558   1.775  0.2867  0.1444  0.0092
24194W        W39811   8.394   2.861   1.962 -0.3123  0.2930 -0.0085
24195W        W39812   9.043  10.928   2.877  0.2809 -0.0604  0.5184
24196W        W39813  10.992   0.446   4.968 -0.1166 -0.2173 -0.0340
24197W        W39814  12.178  13.714   2.564 -0.0414 -0.3339  0.0706
24198W        W39815  11.748  15.687  11.358 -0.2643  0.1319  0.0274
24199W        W39816   7.042   8.016  14.066 -0.2274 -0.1775 -0.1877
24200W        W39817  15.219  10.122   4.500 -0.2549  0.0471 -0.2259
24201W        W39818  10.644   8.913  11.178 -0.0675  0.1333  0.0325
24202W        W39819   2.313   7.382  11.479  0.1335 -0.1664 -0.2323
24203W        W39820  18.627   9.480   9.973  0.1484  0.2472  0.2348
24204W        W39821  17.401  14.141   4.026  0.3597 -0.2315  0.3061
24205W        W39822  16.549  17.045  15.369 -0.3302 -0.1730 -0.0905
24206W        W39823   3.253  17.494  15.475  0.0738 -0.1612 -0.2533
24207W        W39824   1.638  12.273   2.725  0.3164 -0.1385 -0.0178
24208W        W39825   8.096  10.231   4.401  0.1481  0.1061  0.3983
24209W        W39826  13.699  11.577  10.562  0.0203  0.0401  0.1197
24210W        W39827  11.015  13.509  12.897  0.1475  0.0759  0.2006
24211W        W39828  15.327   9.497   0.008  0.3063  0.1573  0.4362
24212W        W39829   2.749  16.681  13.659  0.1882  0.0750 -0.1148
24213W        W39830  16.214  10.415   3.859  0.1357 -0.1276 -0.1943
24214W        W39831  12.823   5.396   5.440 -0.1534  0.0427 -0.2997
24215W        W39832   2.996   2.984   1.749 -0.2415  0.0890 -0.0883
24216W        W39833  11.151  17.483   6.062 -0.0091  0.2202 -0.3835
24217W        W39834  15.048  11.590  14.706  0.2229 -0.0832  0.0199
24218W        W39835   8.665  17.650  11.851 -0.2820  0.1857  0.0031
24219W        W39836   0.110  16.595  14.576 -0.0673 -0.2878 -0.1449
24220W        W39837  11.184  16.081  13.570  0.2796  0.3518  0.1730
24221W        W39838   5.170  11.788   3.255  0.1055  0.1173  0.2290
24222W        W39839  11.720  18.574   4.884 -0.1705 -0.1000 -0.1228
24223W        W39840   8.190  15.038   0.394  0.0642 -0.0203  0.0710
24224W        W39841  18.500   5.572  15.492 -0.2432 -0.1095  0.1049
24225W        W39842   5.408  11.831   4.062 -0.0794  0.0709 -0.0169
24226W        W39843   6.085   0.593  14.386 -0.2889 -0.1661  0.1362
24227W        W39844   6.147   7.007   1.750  0.1546  0.0664 -0.3012
24228W        W39845   0.309  17.990  13.185  0.2412  0.0757 -0.1369
24229W        W39846   6.863  13.122  13.072  0.3901 -0.1388  0.2657
24230W        W39847  11.211   7.446   2.724  0.3331 -0.0178 -0.0520
24231W        W39848   3.180   4.397  15.362  0.0649 -0.1628 -0.1062
24232W        W39849   3.203  16.762   3.161 -0.1317 -0.1091  0.0614
24233W        W39850  12.791  16.826  12.985 -0.1766 -0.2300  0.1963
24234W        W39851   5.340  15.695  14.318  0.1390  0.0407  0.0626
24235W        W39852  14.634   3.413  14.568  0.4546 -0.1064 -0.4293
24236W        W39853   4.027  12.201  10.564  0.0133 -0.1510  0.1881
24237W        W39854   0.727  11.270  11.660  0.1782 -0.0343  0.2387
24238W        W39855   1.376   1.865   2.736  0.2792 -0.3524  0.0065
24239W        W39856  12.366  13.329  15.558  0.1503  0.0718 -0.3240
24240W        W39857  10.105  10.897  13.223  0.1719  0.2853  0.1492
24241W        W39858  11.673  10.197  15.225 -0.3605 -0.1107 -0.0298
24242W        W39859   0.286   7.839  12.280  0.0847 -0.1912  0.1532
24243W        W39860   7.122   9.180   2.395  0.0175  0.2048 -0.2923
24244W        W39861   7.731  15.725   5.619  0.0473 -0.1708 -0.1313
24245W        W39862  11.336  17.310   1.128  0.2393 -0.0048 -0.1163
24246W        W39863   5.978  12.000   4.229  0.2246  0.2461 -0.2271
24247W        W39864  10.538   2.898   1.336  0.1346  0.2258 -0.1867
24248W        W39865   5.633  13.346  12.118  0.0102 -0.0565 -0.1934
24249W        W39866   3.696   8.967  11.542  0.2285  0.0412  0.1051
24250W        W39867  13.404   2.825  14.264 -0.2928  0.0706  0.3673
24251W        W39868   7.527   2.542   3.055 -0.0871 -0.0156  0.2082
24252W        W39869   6.375   5.901   5.588  0.3316 -0.1182 -0.2354
24253W        W39870   7.910   4.570  11.732  0.0423 -0.4268 -0.1626
24254W        W39871   0.190   7.293   1.101  0.0497  0.1567  0.1168
24255W        W39872   6.850   5.049   4.989  0.6012 -0.1368  0.2244
24256W        W39873  16.310   0.181   0.754 -0.2306 -0.1138  0.1272
24257W        W39874  10.929  13.583   4.842  0.0025  0.2265  0.1747
24258W        W39875  11.252   8.448  15.140 -0.2201  0.0348  0.2257
24259W        W39876   2.246   7.075  15.252  0.0270  0.1184 -0.3031
24260W        W39877  11.382   5.961   6.290  0.2654 -0.1429  0.0494
24261W        W39878  16.974   9.214  14.941 -0.0820 -0.0607 -0.0361
24262W        W39879  10.170   0.143  15.303 -0.0215  0.0371 -0.1709
24263W        W39880  17.986   2.313  13.700  0.0011 -0.4733  0.0639
24264W        W39881  18.526  17.236   4.154 -0.1231  0.2305 -0.0021
24265W        W39882  18.505  11.047  13.670 -0.0283  0.2790  0.3656
24266W        W39883   4.016  12.365   1.406  0.0958  0.0288  0.0982
24267W        W39884   3.865  16.114  14.183 -0.1250  0.1530 -0.4319
24268W        W39885  17.797  17.873   2.600 -0.1406 -0.2252  0.0080
24269W        W39886   1.376   6.464   1.599  0.3733 -0.0447  0.3580
24270W        W39887  14.408   4.241   2.326  0.2434 -0.1284 -0.1594
24271W        W39888   5.341   3.734   4.138 -0.0667 -0.2048  0.1409
24272W        W39889  14.467   7.737   0.457 -0.1307 -0.1015  0.2323
24273W        W39890   4.211   2.150   4.398  0.0172  0.0621  0.1400
24274W        W39891   0.746  14.746  15.730 -0.0870  0.2165  0.0746
24275W        W39892  14.694  10.409  15.107 -0.1188 -0.1985  0.2598
24276W        W39893  10.124  18.610   6.598 -0.0491 -0.0059 -0.1367
24277W        W39894  12.044  15.111   3.060 -0.1724 -0.0728 -0.2028
24278W        W39895   2.710   4.153  12.008 -0.2327 -0.0060  0.2443
24279W        W39896   5.324   1.276  15.652  0.2441 -0.1156 -0.0125
24280W        W39897  12.270   3.450   5.717  0.1492 -0.3574 -0.0891
24281W        W39898   9.656  18.470   3.493  0.0390  0.0352  0.0525
24282W        W39899   8.760   0.224   0.853 -0.0709 -0.5114 -0.1008
24283W        W39900  14.097   0.745   2.100 -0.0190 -0.0931 -0.1728
24284W        W39901  13.845  10.587  12.345  0.1594  0.2896  0.1015
24285W        W39902   8.882   3.027   1.837  0.0388  0.0985  0.0884
24286W        W39903   2.015   5.499   3.901  0.0907  0.4480  0.1912
24287W        W39904   0.525  11.881  13.170 -0.1458 -0.0866  0.2923
24288W        W39905   8.689  12.302   1.035  0.0852 -0.1615  0.0883
24289W        W39906  18.055  16.563  12.089 -0.1459  0.3675 -0.0773
24290W        W39907   4.957   9.434   4.195 -0.0328 -0.3336  0.0361
24291W        W39908   1.902   3.933  13.968  0.4327  0.1134  0.1320
24292W        W39909  14.932  13.219  13.286  0.2838 -0.1284  0.0407
24293W        W39910  12.575  12.934  10.886  0.2701  0.2808  0.0445
24294W        W39911   1.564  14.389   2.129  0.1226  0.2000 -0.1214
24295W        W39912   6.854   2.081   3.869 -0.1861 -0.1064  0.0228
24296W        W39913  11.263   7.761   0.689 -0.0624 -0.0336  0.0719
24297W        W39914  18.377   7.730   3.063 -0.1026  0.1194 -0.0227
24298W        W39915  14.216  16.969   2.783  0.2384 -0.0121  0.3086
24299W        W39916   4.398   3.606  12.674  0.2056  0.0719  0.4509
24300W        W39917   5.709  18.131   4.913  0.1478  0.1658 -0.1086
24301W        W39918   2.400  15.986   2.504 -0.0557 -0.1412  0.1064
24302W        W39919   0.979   6.282   1.851 -0.1776  0.1706  0.3408
24303W        W39920  10.986  10.221   2.677 -0.1883 -0.0152  0.3953
24304W        W39921  14.536  15.317   2.870 -0.0865 -0.1075 -0.1799
24305W        W39922  14.098   6.099  12.243  0.0568 -0.2913 -0.1505
24306W        W39923   5.822   9.547   1.014 -0.0750  0.0676  0.0648
24307W        W39924  16.862   2.858   1.784  0.4681  0.2967  0.2829
24308W        W39925   9.819   8.136   3.333 -0.0482  0.1763 -0.1733
24309W        W39926   0.320   9.141   2.349 -0.0362  0.0166 -0.2755
24310W        W39927   4.455  10.910  13.682  0.1933  0.1059 -0.0725
24311W        W39928   7.939  17.514  11.751 -0.2412  0.3689  0.0794
24312W        W39929  10.867  14.022   2.760  0.3092  0.1942  0.0929
24313W        W39930   7.565  14.773  15.374  0.0789  0.0199  0.2115
24314W        W39931   5.398  13.471   0.326  0.2859 -0.2092  0.2933
24315W        W39932   0.345   9.933  13.592  0.1531  0.1187  0.0963
24316W        W39933   5.890  12.836  12.121 -0.0120 -0.0993  0.0008
24317W        W39934   2.691  17.360   2.742  0.1885  0.1897  0.2747
24318W        W39935  17.939  16.182  13.332  0.1419 -0.0227  0.3182
24319W        W39936   7.402  17.730   2.339  0.3503 -0.1881  0.1560
24320W        W39937   3.996  18.382   1.246  0.0623 -0.0336 -0.0365
24321W        W39938   5.229   8.484  12.192 -0.0137  0.0083 -0.0408
24322W        W39939   1.032   4.455  14.953 -0.2913  0.0005  0.0872
24323W        W39940   3.856   6.882   0.610 -0.1843  0.1099  0.1448
24324W        W39941   1.762  11.114  12.086  0.1143 -0.2540  0.1902
24325W        W39942  13.730   9.450  15.667  0.2260 -0.0242  0.0338
24326W        W39943  10.890   6.301   0.695 -0.3052 -0.1061  0.3464
24327W        W39944   9.479  10.017  12.150 -0.0935  0.0240  0.0607
24328W        W39945   2.168  18.025   2.553  0.1171  0.2802  0.0510
24329W        W39946  11.343   4.805  12.476  0.1439 -0.1172 -0.1156
24330W        W39947   7.668   9.491   1.318  0.1533 -0.2315  0.0916
24331W        W39948  10.226  13.009  15.182  0.2407 -0.0695  0.1768
24332W        W39949  16.796   1.077  14.582 -0.2573  0.4047 -0.1363
24333W        W39950  13.106  12.096   2.828  0.3093 -0.0628  0.0963
24334W        W39951   2.977  14.989   5.768  0.0589 -0.0934  0.1554
24335W        W39952  18.487  16.649   2.060  0.2490  0.0510  0.0256
24336W        W39953   8.065  14.586  13.761 -0.0691 -0.0045  0.0592
24337W        W39954   4.701  12.783  10.475 -0.1478 -0.0576 -0.0677
24338W        W39955  14.192  11.261   4.617  0.0860 -0.0553  0.0347
24339W        W39956   7.911   8.897  11.569 -0.0218 -0.2027  0.1308
24340W        W39957   0.329  14.996   0.887 -0.2299  0.1333 -0.0838
24341W        W39958  18.218   6.500  12.003  0.0725 -0.0265 -0.2595
24342W        W39959  18.570  15.662  13.294 -0.1182  0.0966  0.0803
24343W        W39960   5.339   9.726   5.027 -0.0128  0.1978 -0.0854
24344W        W39961   2.589  10.169   3.885 -0.0240  0.2708  0.0942
24345W        W39962   5.078   4.969   0.814  0.0342 -0.0743  0.3049
24346W        W39963  10.995  18.434   5.465 -0.0935  0.1290 -0.2989
24347W        W39964   9.466   2.610   5.877  0.2646  0.3230  0.1693
24348W        W39965  15.358   8.004   4.091  0.2598  0.1078 -0.0046
24349W        W39966   4.051  14.929   4.404 -0.2388  0.0213 -0.1548
24350W        W39967  15.637   8.954  13.894 -0.1959 -0.0532  0.1343
24351W        W39968   4.540   4.372  14.468 -0.3150 -0.4050 -0.1639
24352W        W39969   2.639   6.784   3.043 -0.0359  0.2369  0.0411
24353W        W39970   2.772  14.229   4.642  0.0215  0.2800 -0.3242
24354W        W39971   4.255   4.683   2.975 -0.1293  0.1077 -0.2127
24355W        W39972   0.960  13.417  11.493 -0.1315 -0.0588 -0.6243
24356W        W39973  11.266  10.685   4.960 -0.0509 -0.1586  0.3773
24357W        W39974  14.539   2.408   4.033  0.0357 -0.0070 -0.0975
24358W        W39975  13.334  16.831   5.607 -0.0289  0.1726  0.3823
24359W        W39976   1.147   2.158   1.802  0.1554  0.3330 -0.1463
24360W        W39977  11.604  17.707   1.305  0.2042 -0.2584  0.0185
24361W        W39978  12.886   1.734   5.411  0.1507  0.0363  0.0597
24362W        W39979   4.709  15.478  12.446  0.1431  0.0025  0.1047
24363W        W39980  13.065  11.872  12.899  0.0670 -0.3558 -0.2464
24364W        W39981  11.101  11.505   5.528 -0.0391  0.0570 -0.1751
24365W        W39982  14.877  11.109   3.563 -0.0464  0.1508  0.3097
24366W        W39983  13.530   3.537  15.417 -0.0440 -0.4863  0.2488
24367W        W39984  13.817  12.692   3.381 -0.0355 -0.1317  0.0814
24368W        W39985   8.493  13.612   2.945 -0.1597 -0.1021  0.3654
24369W        W39986  14.012   2.708  12.098 -0.0569  0.1820 -0.2487
24370W        W39987  17.299   8.188  15.225 -0.0639 -0.2026 -0.1320
24371W        W39988  17.139   2.777  11.032 -0.0904 -0.4806 -0.0787
24372W        W39989   5.051  15.089  12.338  0.2040 -0.0633 -0.1290
24373W        W39990  13.718   7.468   3.525  0.2896 -0.0748  0.1347
24374W        W39991   6.904   5.440   2.732 -0.2392 -0.0340  0.1217
24375W        W39992  11.650   3.188   3.444  0.3230  0.1505  0.0997
24376W        W39993  16.321  15.211  13.874 -0.2356  0.0356  0.4363
24377W        W39994  14.121   7.658   0.843 -0.2348  0.1076  0.0251
24378W        W39995  16.267  14.524   0.116 -0.0304  0.2146 -0.0926
24379W        W39996   3.415   8.026   1.041 -0.0460 -0.1337 -0.2177
24380W        W39997  14.092  17.117   3.279  0.2567  0.3004 -0.2246
24381W        W39998   4.364  11.069  10.914  0.3699 -0.0373  0.2101
24382W        W39999   4.327   7.569   3.408  0.1053 -0.1456  0.2571
24383W        W40000  14.495   1.484  11.116 -0.0461 -0.2224  0.1867
24384W        W40001  15.561  13.929   3.810  0.5104  0.0322  0.1666
24385W        W40002   3.807  13.533   0.832  0.0428  0.0767 -0.1555
24386W        W40003   4.410   2.818  15.166  0.0771  0.0247  0.0293
24387W        W40004  18.284  16.493  13.562 -0.0543  0.1250  0.0671
24388W        W40005   4.976  16.515   3.402 -0.1411  0.3626  0.0540
24389W        W40006   9.052  13.692  10.857  0.1567  0.0044 -0.1133
24390W        W40007  14.761   0.248  14.994 -0.2229 -0.1785  0.2895
24391W        W40008   5.224   8.424  14.143  0.2538 -0.3788  0.0212
24392W        W40009   4.343   3.410   3.009  0.0262 -0.0326  0.3029
24393W        W40010   8.053   2.014   6.816 -0.1957 -0.1240 -0.1422
24394W        W40011   7.358   3.882   1.096 -0.0766  0.1797  0.0353
24395W        W40012   5.444  10.032   1.478 -0.2510 -0.1747  0.0567
24396W        W40013  17.835   4.146  15.369 -0.0550 -0.1124  0.5264
24397W        W40014  14.876   4.167  12.607  0.1551  0.0582 -0.0790
24398W        W40015   3.691   4.572  12.484  0.0250 -0.2368  0.3698
24399W        W40016   0.366  11.061   2.510 -0.3108  0.1116  0.1525
24400W        W40017  17.889   0.286  11.781  0.0026 -0.2253  0.1186
24401W        W40018   6.293   1.601   0.348 -0.1594 -0.0233  0.0350
24402W        W40019  15.537  10.969  14.668 -0.0889 -0.1748  0.1501
24403W        W40020   4.032  18.179  10.779  0.1223 -0.1292  0.0538
24404W        W40021  11.224   6.658   1.848  0.1496 -0.0330 -0.0409
24405W        W40022  18.277  14.570  12.315 -0.3719 -0.1836 -0.1267
24406W        W40023   9.350  15.361  14.188 -0.2661 -0.1486 -0.3488
24407W        W40024   0.693  16.424   5.807 -0.2254  0.2726  0.1822
24408W        W40025   9.223   7.778  15.324 -0.0465  0.2489  0.2229
24409W        W40026  11.106  15.114  13.489  0.0161 -0.0338 -0.0240
24410W        W40027   7.443   5.017  12.532 -0.2314  0.1256 -0.1709
24411W        W40028   8.618  16.441   0.701 -0.2877  0.1777  0.1987
24412W        W40029   5.143  17.249  11.999  0.1439 -0.2696  0.1532
24413W        W40030   7.045   8.123  13.544  0.1620 -0.1079 -0.2459
24414W        W40031   8.066  18.320  14.129  0.0510  0.0145 -0.2992
24415W        W40032   4.626  17.556  15.210  0.0287  0.2097 -0.1698
24416W        W40033   0.791   6.262  10.547 -0.1450  0.1942  0.1486
24417W        W40034  14.592   4.191   5.760  0.0738 -0.3398  0.0973
24418W        W40035  12.149   4.799   4.325 -0.0086 -0.0717 -0.2256
24419W        W40036   3.845   4.960  12.228 -0.1820  0.0817 -0.1383
24420W        W40037   7.832   8.018   4.781  0.2399  0.0120  0.1310
24421W        W40038  11.156  17.616   2.282  0.2102  0.1338 -0.1519
24422W        W40039   1.190  17.510  13.790  0.3647 -0.3517  0.1661
24423W        W40040   9.007   6.689   1.840 -0.0665 -0.2503 -0.0242
24424W        W40041  12.517   0.198  12.993  0.1112  0.0040 -0.2086
24425W        W40042  14.861   6.601   5.103 -0.0371  0.0423 -0.1311
24426W        W40043   9.733  15.866   4.070 -0.0298  0.1639  0.0493
24427W        W40044  14.585   1.038  15.134  0.1110  0.2452 -0.0711
24428W        W40045   2.582  10.649  10.687  0.0213  0.0253  0.0796
24429W        W40046   5.236   8.441   0.880 -0.0903  0.1068  0.0245
24430W        W40047  14.398   8.822   3.238 -0.1504  0.1654  0.1528
24431W        W40048   4.810   1.464   4.386 -0.3462  0.2465  0.0939
24432W        W40049  10.493   5.632   1.299 -0.0602 -0.1869 -0.0345
24433W        W40050   1.738  18.360   4.268  0.1434 -0.0860 -0.1728
24434W        W40051   9.471  15.632  13.255  0.0949 -0.1118 -0.2816
24435W        W40052   0.312  11.697   0.241 -0.1627 -0.1386 -0.2579
24436W        W40053   4.472   5.617  13.517 -0.1933  0.1441 -0.1503
24437W        W40054  17.431   1.320   1.807 -0.0713 -0.3130  0.0388
24438W        W40055  10.350   6.961   2.599  0.1083 -0.0713  0.0825
24439W        W40056   4.085   6.479   0.889  0.1146  0.0667  0.0064
24440W        W40057  10.759   6.947   3.989  0.1859  0.1493  0.0528
24441W        W40058   5.694   0.471  12.475  0.0696  0.0814 -0.0736
24442W        W40059  15.065  18.367  13.832  0.1093 -0.0102  0.0512
24443W        W40060  14.921   5.518  14.343 -0.0582 -0.3262  0.0401
24444W        W40061   3.683  11.698   4.307 -0.0977  0.1605  0.2766
24445W        W40062  11.812   4.233   6.009 -0.0965 -0.3493  0.3575
24446W        W40063  17.953   9.506   1.902 -0.1442 -0.0098 -0.1964
24447W        W40064   8.774  17.262   1.513  0.2775 -0.0006 -0.0562
24448W        W40065  15.088   4.241   4.374  0.3179 -0.0722 -0.1588
24449W        W40066  13.572  10.762  11.908  0.0358 -0.1044 -0.0441
24450W        W40067   6.844   5.496  12.272  0.0531 -0.3845 -0.4820
24451W        W40068  11.957  13.089  12.295  0.4558  0.1197  0.3799
24452W        W40069  16.585  14.697   5.033 -0.0417 -0.1548  0.4515
24453W        W40070   3.643   4.256   1.070  0.0348 -0.0972 -0.2123
24454W        W40071   3.435   9.855  12.443  0.2279 -0.0321 -0.1341
24455W        W40072  12.776   5.276   4.904  0.0239 -0.2362  0.1584
24456W        W40073   9.083  13.499   3.385  0.1436 -0.0916 -0.1147
24457W        W40074  15.347   3.327   4.640 -0.1242  0.2143 -0.0641
24458W        W40075   6.724   7.350   0.525 -0.1096  0.1971  0.0406
24459W        W40076   7.841  11.075   0.013  0.1284  0.0801 -0.3637
24460W        W40077  10.503   9.584  13.092  0.0520 -0.1555  0.1941
24461W        W40078  17.446   0.336  12.921 -0.1880 -0.0249 -0.1230
24462W        W40079   2.110  12.711   2.439  0.0548  0.0444  0.2375
24463W        W40080   8.906   1.470  12.340 -0.1966  0.2812 -0.0112
24464W        W40081   6.809  12.074   0.227  0.0156  0.2439 -0.0956
24465W        W40082  14.401  11.354  13.297 -0.0411 -0.1651 -0.0041
24466W        W40083   9.279  17.834   4.043 -0.1291 -0.0699  0.0025
24467W        W40084   9.143  17.544  11.675  0.0091  0.1389  0.1149
24468W        W40085   8.815  10.998   2.380 -0.0949 -0.1436  0.0596
24469W        W40086   4.101  16.679  13.165 -0.0193  0.1558  0.1864
24470W        W40087   6.163  17.007  12.944  0.0392  0.3205 -0.1854
24471W        W40088   2.128   3.371   2.849 -0.2417  0.2166  0.1739
24472W        W40089   3.784  15.583   3.141  0.1551  0.3265 -0.0606
24473W        W40090  10.014  13.246   5.153 -0.0148  0.1820  0.1941
24474W        W40091  15.725   1.112   4.385  0.0014  0.0672  0.0084
24475W        W40092   7.503   4.075   3.770 -0.0972  0.3414 -0.0504
24476W        W40093  16.282   6.912  11.797 -0.2305  0.0262  0.1290
24477W        W40094   9.241  14.161  11.551  0.2793  0.1435  0.3746
24478W        W40095  17.357  12.069  13.176  0.1923  0.1187  0.1117
24479W        W40096  10.848   3.909   5.236  0.0772 -0.1074 -0.3216
24480W        W40097   7.939   7.653   4.367  0.3550 -0.0450 -0.3358
24481W        W40098   4.800   3.912   5.647  0.0664 -0.0132  0.2552
24482W        W40099   0.558   6.514  14.965  0.1148 -0.2780 -0.1369
24483W        W40100   9.353   1.539  14.659 -0.3515  0.1068 -0.3299
24484W        W40101  13.643   9.589   1.493 -0.3002 -0.1433 -0.1659
24485W        W40102   7.257  12.744  13.120 -0.0349 -0.2254  0.1204
24486W        W40103   3.812   4.506  14.876 -0.0428  0.0253  0.0065
24487W        W40104  15.275  17.875  13.915  0.0245 -0.0307 -0.2588
24488W        W40105  11.368  10.213   3.919  0.1508  0.1434 -0.1228
24489W        W40106   9.219  12.046   4.667 -0.3607 -0.1273  0.0110
24490W        W40107   3.105  13.624  11.003 -0.2633  0.2065 -0.1872
24491W        W40108   1.793   6.858   5.553 -0.0611  0.1320  0.0619
24492W        W40109   5.001  14.042  14.079  0.4157  0.1616 -0.1109
24493W        W40110  17.332  11.989   0.535 -0.3874 -0.0803  0.0008
24494W        W40111   9.835   0.303   4.237  0.2556 -0.1326 -0.0715
24495W        W40112  10.866  18.428   0.263 -0.3541 -0.1242 -0.1436
24496W        W40113   6.550  11.041  10.646  0.3042 -0.0285 -0.2850
24497W        W40114  13.085   3.161   1.806 -0.1964 -0.1775  0.2557
24498W        W40115   9.581   7.211   3.371  0.0982 -0.3388  0.0886
24499W        W40116   6.273  13.583   4.860  0.1144  0.1754  0.0767
24500W        W40117  12.800  14.155  15.320 -0.0389  0.0241 -0.0994
24501W        W40118   8.486   9.338   4.060  0.0977  0.1166 -0.2675
24502W        W40119   3.140   7.149  14.677  0.2020 -0.1874  0.1299
24503W        W40120   1.123  14.043   3.363 -0.0700 -0.2004 -0.1927
24504W        W40121   0.574  18.266  13.924  0.0033  0.3720  0.1007
24505W        W40122  17.235   9.401  14.514 -0.3570 -0.0450  0.3074
24506W        W40123   2.930  16.158   4.976  0.0513 -0.1330 -0.2888
24507W        W40124  17.969   1.235   3.670  0.4236  0.2812 -0.0101
24508W        W40125   1.940   8.813   2.608  0.0531 -0.1670  0.1185
24509W        W40126  16.441   6.955   2.015 -0.3095 -0.0373 -0.3186
24510W        W40127  12.405   2.998   5.473 -0.1490 -0.2703 -0.1271
24511W        W40128  14.836  17.009   1.422  0.1866  0.2270 -0.2851
24512W        W40129  14.922  18.116  11.645 -0.0787  0.3284 -0.0349
24513W        W40130   3.402  11.352  14.392 -0.0220  0.1073 -0.2185
24514W        W40131   8.737  12.253   2.761 -0.0708 -0.3335  0.0596
24515W        W40132   4.198  11.098   2.615  0.0493  0.0226  0.1155
24516W        W40133  15.139  11.962  15.590  0.0292 -0.2777 -0.1531
24517W        W40134  16.792  12.570   2.096  0.1105 -0.0405  0.2058
24518W        W40135  18.151   2.054   6.453  0.1697  0.0733  0.0499
24519W        W40136   6.047   0.678   4.302  0.3512 -0.3348  0.0475
24520W        W40137   0.968   5.913   2.239 -0.2396 -0.0048  0.2290
24521W        W40138  10.173   3.354   3.638  0.2437 -0.1109 -0.0225
24522W        W40139   6.290   9.166   1.573  0.2771  0.0071  0.1874
24523W        W40140   4.244  15.544   9.425 -0.1743  0.1122 -0.2697
24524W        W40141  11.801   9.923   4.570 -0.1576 -0.1822  0.3018
24525W        W40142   0.484   6.054   0.073  0.1080 -0.2221  0.1314
24526W        W40143   8.129   9.775  14.943  0.1009 -0.0331  0.0104
24527W        W40144   8.839  10.466  11.264 -0.1400  0.0223 -0.0060
24528W        W40145  10.262  16.882  11.591 -0.4994  0.0135 -0.0724
24529W        W40146  13.648   1.480   4.323 -0.2356 -0.1941  0.2624
24530W        W40147  14.612  16.783   2.603 -0.3782  0.0663  0.1110
24531W        W40148   2.577  12.034   2.182  0.1491  0.0827 -0.1787
24532W        W40149   6.613   0.383   3.639 -0.0486  0.1546 -0.0235
24533W        W40150  13.024   9.098  12.306  0.0121 -0.1882  0.0119
24534W        W40151   9.655  15.385   4.044 -0.0391 -0.0377 -0.0737
24535W        W40152  15.547   3.810   2.856  0.1120  0.0800  0.1454
24536W        W40153   0.295   5.424  12.065 -0.2747 -0.2481  0.1002
24537W        W40154   1.076  17.677  12.658 -0.0044 -0.1305 -0.0637
24538W        W40155  17.298  10.466   2.316 -0.1461  0.1525  0.0457
24539W        W40156  13.742   1.922   2.977  0.5161 -0.1314 -0.0736
24540W        W40157   2.502   8.009  13.762  0.0960 -0.1527  0.1769
24541W        W40158  11.080   4.390  12.290 -0.2133  0.3660 -0.0696
24542W        W40159   8.478   9.274  15.698  0.1607 -0.1139  0.0448
24543W        W40160  15.497  17.833   2.681 -0.0203  0.1290 -0.1013
24544W        W40161  13.795  17.268   2.880  0.2228  0.2861 -0.0499
24545W        W40162  15.886   8.925  13.465 -0.2168 -0.1844  0.1448
24546W        W40163  16.226  16.275   2.239  0.3396  0.1107 -0.2331
24547W        W40164  15.253  15.337   1.630  0.0082 -0.2291 -0.0151
24548W        W40165  18.177   5.839   0.653  0.2374 -0.1103  0.2349
24549W        W40166   7.933  12.240   4.428  0.3047 -0.0408 -0.0869
24550W        W40167  13.586   5.740   5.962  0.2217  0.0890  0.1088
24551W        W40168   9.716  15.158   0.646  0.0994  0.0234  0.0212
24552W        W40169   1.082   3.250  15.230  0.0460  0.2090  0.0146
24553W        W40170  14.439   0.474   4.016 -0.2544  0.1228  0.1071
24554W        W40171   3.150  10.911  12.603  0.1738  0.3688  0.1348
24555W        W40172  13.788   2.585  13.712  0.0807 -0.2527  0.2481
24556W        W40173   4.240  16.419   1.709  0.1089  0.2893 -0.1521
24557W        W40174   4.870  13.373   9.435  0.3131  0.1895 -0.0235
24558W        W40175   3.519  14.327  13.728 -0.0930  0.2040  0.1537
24559W        W40176  14.335  18.498  12.802 -0.0383  0.0373  0.0788
24560W        W40177  12.277  15.134   2.118 -0.0122 -0.3420 -0.3460
24561W        W40178   3.672   8.426   4.391 -0.0160 -0.0755 -0.1716
24562W        W40179   5.762  13.852   4.453 -0.0280 -0.1634 -0.1087
24563W        W40180  15.540  18.591   1.638 -0.1429 -0.0959  0.2059
24564W        W40181  15.932   4.134   2.018 -0.1464  0.0037 -0.2558
24565W        W40182  13.112   5.772  13.574 -0.1199 -0.0405  0.0346
24566W        W40183   4.443   1.653  13.405 -0.0229  0.1803  0.1683
24567W        W40184   6.435  11.779  15.689 -0.2586  0.0381  0.0818
24568W        W40185   3.680  12.529   3.428 -0.0247 -0.2628  0.1688
24569W        W40186  10.191   0.413   1.330 -0.0206  0.2583 -0.0367
24570W        W40187   6.202  15.049   5.576  0.1645  0.1906  0.2745
24571W        W40188  18.495   3.776  12.509 -0.1293  0.1240 -0.0206
24572W        W40189  17.968   4.496  14.915 -0.0452 -0.0466 -0.0438
24573W        W40190  12.358  13.267  13.863  0.2624  0.1595  0.3597
24574W        W40191   6.497  11.593   1.603  0.2573 -0.1377  0.1012
24575W        W40192   1.042   0.183   3.729  0.2463  0.3841  0.3110
24576W        W40193   3.961  16.895  11.065 -0.1271  0.1532  0.0123
24577W        W40194   8.867   0.913   1.910 -0.2576  0.0251 -0.0088
24578W        W40195   3.388  18.375  12.917 -0.1132 -0.1036 -0.0646
24579W        W40196  14.410   5.694   2.234  0.3513 -0.0068 -0.0084
24580W        W40197   4.098  14.754  11.521  0.1372 -0.1103  0.0916
24581W        W40198   2.316   8.758   1.684 -0.0308 -0.1030  0.1324
24582W        W40199   1.081   0.985  14.539 -0.0720  0.0522  0.2148
24583W        W40200   1.298   5.576   3.597 -0.1397  0.1012  0.0084
24584W        W40201   1.301   8.348  12.031  0.0689 -0.0105  0.0090
24585W        W40202   1.531  10.952  12.528  0.3706  0.2662 -0.0780
24586W        W40203  12.528   6.956   1.033  0.1615  0.2491 -0.0393
24587W        W40204   3.075   1.797  12.295  0.1390 -0.2907  0.0318
24588W        W40205  10.821  14.086  15.058  0.1801 -0.1402 -0.3068
24589W        W40206   2.566   0.982  12.575  0.1352 -0.1867  0.2105
24590W        W40207  18.195  11.598   0.442  0.1804 -0.0335  0.0591
24591W        W40208   0.238   8.541  13.414 -0.1302  0.0088  0.1310
24592W        W40209  10.811  14.136  15.675  0.0165  0.0194  0.3714
24593W        W40210  10.920  10.300  11.006  0.4106 -0.3062  0.0558
24594W        W40211  12.301   1.547  14.818 -0.1080  0.0210  0.0645
24595W        W40212   8.238   4.060   4.615 -0.1600  0.3401 -0.0291
24596W        W40213  14.513   9.032   0.992  0.0490  0.1457  0.1838
24597W        W40214  16.352   8.790   0.045  0.0509 -0.0154  0.2975
24598W        W40215  17.052  13.384  13.479 -0.3884  0.2991  0.1151
24599W        W40216   2.895   8.435  14.481  0.0585  0.1172  0.0461
24600W        W40217  13.732   4.004   3.345 -0.0648 -0.1262  0.1036
24601W        W40218  13.612   6.944  15.343  0.0439  0.0962 -0.0140
24602W        W40219   7.939   1.316   3.291 -0.1500 -0.3431 -0.0285
24603W        W40220  14.550   2.013   1.048  0.2170 -0.1430  0.0520
24604W        W40221   1.218  12.196   4.765  0.3234  0.1862  0.0881
24605W        W40222  13.910  17.603  13.721 -0.1069  0.0544  0.2479
24606W        W40223   7.181  15.362   5.222 -0.1683  0.2730 -0.1504
24607W        W40224  13.887  12.884  15.038  0.4570  0.0176  0.2566
24608W        W40225   6.221  15.650  13.239 -0.1504 -0.0123 -0.3246
24609W        W40226   6.275   1.103   4.242  0.0798  0.0436 -0.1771
24610W        W40227   6.797  15.226   0.860 -0.2125  0.0624 -0.3216
24611W        W40228  10.438   3.103   0.205 -0.0313  0.2217  0.2964
24612W        W40229   3.207   1.792  15.081  0.1573 -0.1211 -0.0707
24613W        W40230   0.034   4.947   1.876 -0.1797 -0.2734 -0.1334
24614W        W40231  16.993   3.682   4.880 -0.2264 -0.1540  0.0648
24615W        W40232  11.937  14.780   1.733 -0.1644  0.0819  0.1245
24616W        W40233   4.648  10.728   5.429  0.2933  0.1800 -0.2050
24617W        W40234   4.538  18.550  12.570 -0.0450  0.0305 -0.1550
24618W        W40235  15.335   9.979  14.974  0.0330  0.1525  0.0726
24619W        W40236   4.238  16.481  13.944 -0.1850 -0.4293  0.0201
24620W        W40237   8.566  13.818   0.460  0.1568 -0.0850 -0.0226
24621W        W40238  16.612   4.387  15.721 -0.0888 -0.0228  0.2562
24622W        W40239   8.777   9.913   5.515 -0.0007  0.3821 -0.1563
24623W        W40240   1.421  17.123  13.064  0.4432 -0.2844 -0.1924
24624W        W40241   1.054  13.882   0.995 -0.0363  0.0274  0.1699
24625W        W40242   8.281  17.074  12.530  0.1106 -0.0548 -0.0776
24626W        W40243   6.753  11.793  11.817 -0.2003  0.0135  0.0769
24627W        W40244  16.809   5.757   2.316  0.0040  0.0863 -0.0121
24628W        W40245   1.201  16.499   4.121  0.2261 -0.0383 -0.0518
24629W        W40246   5.714  14.094  14.802 -0.0919 -0.1565  0.2044
24630W        W40247  12.888   8.395   1.431 -0.0000  0.0224 -0.0889
24631W        W40248  17.294  15.083   3.281  0.2196  0.1570 -0.2765
24632W        W40249   5.376  16.376  10.953  0.1369 -0.0602  0.0955
24633W        W40250  15.311  17.439  14.570 -0.1225  0.0009 -0.2122
24634W        W40251  16.964  16.077   4.593 -0.0090  0.2400 -0.0197
24635W        W40252  12.490  14.585   2.763  0.0230 -0.1152  0.1797
24636W        W40253   6.014  16.064   2.738 -0.1483  0.0322  0.4158
24637W        W40254   3.404   2.648  14.159 -0.1552 -0.1476  0.0221
24638W        W40255  17.807   9.000  12.190 -0.1112  0.0707  0.0058
24639W        W40256  18.462  10.725   1.222  0.0954  0.2982 -0.0910
24640W        W40257  11.249   4.769  14.444 -0.0980 -0.2739 -0.0775
24641W        W40258  14.599  14.772   5.022  0.2425 -0.0060  0.3394
24642W        W40259  13.491   1.435   2.532 -0.1432 -0.3445 -0.0334
24643W        W40260   1.891   2.882  11.325  0.0403 -0.3337 -0.1176
24644W        W40261   8.064   8.403  11.468 -0.2231  0.2821  0.1810
24645W        W40262   1.775   0.882   5.163  0.0535 -0.1361 -0.0195
24646W        W40263   4.648  14.925  12.517  0.0803  0.1757  0.0642
24647W        W40264  12.439   1.884  11.566 -0.2638  0.1605  0.2209
24648W        W40265   9.433   3.102  11.880 -0.0502 -0.1482  0.0275
24649W        W40266   1.766  14.629  14.880 -0.1505  0.2628 -0.0666
24650W        W40267  18.084   2.205   0.188  0.0267 -0.3924 -0.1071
24651W        W40268  13.445   8.271  12.270  0.1877  0.1536  0.0191
24652W        W40269  18.453   4.789   3.262 -0.0236 -0.0991 -0.1334
24653W        W40270  15.255   7.216   1.576  0.0219 -0.3827  0.0326
24654W        W40271  16.480  16.092  14.287 -0.1257  0.1866 -0.1403
24655W        W40272   9.757   6.745   1.038 -0.0378  0.0155 -0.0925
24656W        W40273  14.680   4.275   1.930 -0.0625 -0.0810 -0.2366
24657W        W40274  12.077  10.163  11.440 -0.1841 -0.1030 -0.2348
24658W        W40275   8.371  14.744   1.301  0.0450  0.1107 -0.0949
24659W        W40276   5.265   1.084  11.707  0.0554  0.2819  0.3141
24660W        W40277  15.054   8.357   3.076 -0.0737  0.1571 -0.0413
24661W        W40278   5.873   8.389   0.588 -0.1451  0.0762  0.0700
24662W        W40279  15.330  18.484   4.348  0.4182 -0.1217  0.2040
24663W        W40280  17.864  15.373   1.851 -0.1179 -0.0683  0.2069
24664W        W40281  14.040  11.103  11.259  0.0961  0.2182 -0.0647
24665W        W40282  15.830   2.301   2.381 -0.0433  0.0916 -0.2578
24666W        W40283   8.100   3.555   1.009 -0.1146 -0.3414  0.0713
24667W        W40284  18.214  13.521   4.534 -0.0910  0.1304  0.0760
24668W        W40285  15.454  17.520  15.095  0.2484 -0.0071  0.0416
24669W        W40286   8.807   9.045   4.371 -0.0138  0.0934  0.0571
24670W        W40287   9.651  12.240  11.896 -0.0269  0.1461 -0.1028
24671W        W40288  10.690  16.866   2.136  0.0880  0.3419  0.0666
24672W        W40289  14.149  14.423  14.446 -0.2846 -0.1745  0.1010
24673W        W40290   9.512   3.950   3.977  0.0890 -0.0862 -0.1588
24674W        W40291   0.844   9.036  12.154  0.1197  0.0037 -0.0312
24675W        W40292  13.856   4.382   1.547 -0.0390 -0.2720  0.1867
24676W        W40293   1.811   1.325   0.269 -0.2965  0.1464  0.0426
24677W        W40294  14.077  13.897  13.673  0.0609 -0.0719  0.2740
24678W        W40295  12.269  17.231   0.517 -0.0770  0.3713 -0.1476
24679W        W40296  17.716  12.791  11.095 -0.1751 -0.2407  0.2153
24680W        W40297  14.076  16.243  12.632  0.1025  0.2267 -0.1484
24681W        W40298  11.768  13.986  15.301  0.2751  0.1547 -0.1981
24682W        W40299   6.540  14.460   1.229  0.3515  0.0692 -0.1729
24683W        W40300  15.920   4.184   4.734 -0.1703  0.0759 -0.2744
24684W        W40301  12.024  11.955   4.731  0.4686 -0.0384 -0.0378
24685W        W40302   1.889  17.636   5.141  0.0006  0.1827  0.0316
24686W        W40303   7.597  11.775  12.473 -0.0576  0.1843 -0.0355
24687W        W40304   8.554  17.217  11.607 -0.1493 -0.0061  0.0204
24688W        W40305  10.968   9.812   4.025 -0.1130 -0.0025 -0.0532
24689W        W40306  10.805  11.081  15.508  0.1582 -0.0606 -0.1835
24690W        W40307   4.686  14.249  14.460 -0.1662 -0.0775 -0.0803
24691W        W40308   2.337   1.562   4.763 -0.0492  0.0936  0.0223
24692W        W40309   2.024   3.837   1.113  0.2176 -0.3008 -0.5162
24693W        W40310  16.292   9.148  13.800  0.0260  0.4295  0.2738
24694W        W40311   3.374  18.171   3.515  0.0640 -0.1001 -0.0438
24695W        W40312   7.641  13.498   2.891  0.1546 -0.0933  0.1611
24696W        W40313   7.443  14.603   2.522 -0.2094  0.0337 -0.0909
24697W        W40314   8.720  16.629   5.108  0.0111 -0.1225  0.2374
24698W        W40315   4.839   7.181   1.065 -0.1707 -0.0162 -0.2993
24699W        W40316   2.582   6.686   2.454  0.0307  0.0639 -0.4088
24700W        W40317   2.959   0.001  15.564  0.1001 -0.1270  0.2213
24701W        W40318  12.452  11.839   4.003  0.2659  0.2220  0.2568
24702W        W40319   3.080   7.355  14.211  0.1324 -0.0571  0.2505
24703W        W40320  18.091   1.493  13.539  0.0342 -0.0942 -0.0473
24704W        W40321   7.971   3.189   0.678 -0.3039 -0.0664  0.2802
24705W        W40322   1.641  15.834  14.936 -0.0532 -0.0183  0.2015
24706W        W40323   2.228  14.273  11.038  0.3218  0.3897  0.2598
24707W        W40324   6.069   2.975   0.028  0.0280 -0.3687  0.0385
24708W        W40325   3.688  18.550   1.873 -0.1204 -0.1076 -0.0359
24709W        W40326  11.034  14.143  13.548  0.1264 -0.3363 -0.2114
24710W        W40327   9.930   2.956  13.139 -0.5282  0.4131  0.2257
24711W        W40328   5.849  12.949  11.315  0.0113 -0.0844 -0.2055
24712W        W40329   9.594   0.727  14.282 -0.2423 -0.0312  0.0985
24713W        W40330   8.600   9.139   2.036  0.0708 -0.2483  0.5222
24714W        W40331  16.160   0.868   4.606  0.2568  0.1493  0.0649
24715W        W40332  17.758   4.508  13.776 -0.1169  0.0061  0.0937
24716W        W40333  15.041   3.580  11.637  0.2385 -0.1594 -0.0244
24717W        W40334  14.434   9.073  10.901  0.1723  0.1311 -0.1030
24718W        W40335   6.812   6.001  14.187  0.1546  0.0634  0.3393
24719W        W40336   8.850  10.357  12.752  0.0184  0.4146 -0.1043
24720W        W40337   4.575   1.639  11.443 -0.0321 -0.0467 -0.0896
24721W        W40338  11.115  13.970  14.471 -0.2935 -0.0037 -0.2373
24722W        W40339   4.877  13.459  11.633  0.0176  0.1413  0.1402
24723W        W40340   1.343  16.709  11.811  0.1476  0.4526 -0.3274
24724W        W40341   4.891  18.620  11.813 -0.1470 -0.0315  0.2873
24725W        W40342  10.640  13.931  10.634  0.4535  0.1134  0.2860
24726W        W40343   5.225   3.768   0.724  0.1675 -0.1658 -0.1610
24727W        W40344  11.869   3.700   4.109 -0.3388 -0.0532 -0.1130
24728W        W40345   3.084   3.534   2.456  0.1189  0.2561 -0.1725
24729W        W40346  13.375  18.221   0.675  0.3209  0.1948  0.0396
24730W        W40347   1.223  11.271  12.113 -0.3905 -0.1655  0.1884
24731W        W40348   9.109  16.763   1.458 -0.1323 -0.3402  0.1298
24732W        W40349  10.330   2.080   1.257 -0.0946  0.2430 -0.2658
24733W        W40350  15.499  14.956  10.884  0.0315  0.0459  0.1592
24734W        W40351   0.210   0.394   2.902 -0.1095  0.0905 -0.1827
24735W        W40352   8.309   2.707  14.330  0.1304 -0.0430  0.0707
24736W        W40353   4.357  10.723  10.235  0.0673  0.0344 -0.3532
24737W        W40354   3.306   6.521  13.522 -0.1592 -0.0172  0.3077
24738W        W40355  15.367  18.332   2.731  0.0363  0.0035 -0.1802
24739W        W40356  10.922   4.473  12.753  0.1576 -0.1521  0.1684
24740W        W40357  12.702  10.933  14.848  0.0449 -0.1771 -0.1859
24741W        W40358   0.184   6.753  11.500  0.1895 -0.0570  0.2311
24742W        W40359   4.035   4.223  14.059 -0.1511  0.0791 -0.0767
24743W        W40360  10.152  12.267   1.775 -0.1780  0.0333  0.2877
24744W        W40361   4.844   5.568   0.318  0.1840 -0.2694 -0.0948
24745W        W40362   0.534   1.602   4.803  0.0881 -0.0910  0.1208
24746W        W40363   8.770  11.269   1.423 -0.0462 -0.0321 -0.1852
24747W        W40364  12.582   4.951  13.278  0.1169 -0.0196 -0.0627
24748W        W40365   1.022  15.639   0.531  0.0406  0.3036  0.1222
24749W        W40366  15.581  18.466   0.322 -0.1738  0.1001 -0.0696
24750W        W40367   8.728  13.284   3.743 -0.1057 -0.3236  0.1020
24751W        W40368  14.880   3.547   4.713 -0.0829 -0.0605  0.2058
24752W        W40369  18.177  10.140   2.507  0.0042 -0.0250 -0.2699
24753W        W40370   5.493  11.413  15.475 -0.1261 -0.0081 -0.1242
24754W        W40371   5.673  11.151   4.119 -0.0378 -0.1370 -0.0721
24755W        W40372   6.622  10.317  11.740  0.1035 -0.3456  0.0425
24756W        W40373  16.284   9.433   5.280  0.0593 -0.3142 -0.0533
24757W        W40374  10.269   2.758   4.265 -0.1256  0.2867  0.1637
24758W        W40375   6.486   7.698   2.719 -0.1556 -0.0756 -0.2349
24759W        W40376   5.012  10.506  14.601 -0.0690 -0.1785  0.1705
24760W        W40377  10.953   1.602   1.418 -0.1361 -0.0083 -0.0082
24761W        W40378  10.550  14.407  13.722 -0.1020 -0.1456  0.2075
24762W        W40379   3.238   7.534   4.150  0.1249 -0.1632  0.0400
24763W        W40380   1.394   4.091  13.914 -0.1150 -0.4313  0.2494
24764W        W40381   5.329   4.135   1.970 -0.2297 -0.1203 -0.1566
24765W        W40382   6.733   2.259  13.050 -0.0871  0.0884  0.1581
24766W        W40383   2.836   9.500   1.987  0.0495  0.2950  0.0088
24767W        W40384   5.281   9.791   3.063 -0.1018 -0.0095 -0.3838
24768W        W40385   1.432   6.049   2.061  0.0562 -0.3113  0.0556
24769W        W40386   1.019  17.900  11.197  0.1338  0.2772  0.0881
24770W        W40387  10.398  17.600   4.679 -0.0852  0.1062 -0.1891
24771W        W40388   0.383   1.546   5.281 -0.2577 -0.2587  0.3407
24772W        W40389   5.964   4.240   4.690  0.1108 -0.0299  0.0478
24773W        W40390  15.042   3.098  13.723 -0.0318 -0.1850 -0.0687
24774W        W40391  10.341   1.546   4.889 -0.4978  0.0313  0.0449
24775W        W40392  16.486   4.091   0.814 -0.0044  0.1380 -0.2127
24776W        W40393  14.482  13.123  14.012  0.2629 -0.1361  0.4654
24777W        W40394  18.631  13.804   2.228 -0.0093 -0.1360  0.0952
24778W        W40395  17.769  11.345   1.541 -0.0521  0.0271  0.0711
24779W        W40396   4.602   9.119  13.787  0.3063 -0.1961  0.6730
24780W        W40397   2.940  14.009  10.756 -0.0506  0.1396  0.1866
24781W        W40398  12.741   2.340   0.253 -0.1143  0.1268 -0.0391
24782W        W40399  12.414  12.632   0.224 -0.0035 -0.1725  0.0661
24783W        W40400   6.382   1.220  12.339  0.0954 -0.1249 -0.0845
24784W        W40401   8.678  11.689   5.743 -0.0836 -0.2960  0.1814
24785W        W40402  10.891   3.132  13.728 -0.0914  0.1139 -0.3200
24786W        W40403   1.562   0.218  14.569  0.1091  0.0366 -0.0231
24787W        W40404  17.038   2.502  12.036 -0.0549 -0.0965 -0.1471
24788W        W40405   3.154  11.471   3.757 -0.1407 -0.0931 -0.1204
24789W        W40406  11.682  10.489   0.671  0.0789 -0.2782  0.1973
24790W        W40407  16.988  13.856   1.457  0.0312 -0.2080  0.1009
24791W        W40408   9.512  12.657   0.900  0.0511  0.0316  0.1917
24792W        W40409   2.593  11.870   0.353  0.3324  0.0579  0.1778
24793W        W40410  12.303   6.184  14.804 -0.0552 -0.2417 -0.0442
24794W        W40411   8.335   5.794   3.040  0.2503  0.2221  0.2334
24795W        W40412  14.553  17.136   3.104 -0.0202  0.1166 -0.1423
24796W        W40413   8.587  18.022   5.417 -0.2069 -0.0379 -0.1531
24797W        W40414  15.936  13.818  14.009  0.2930 -0.0457  0.2645
24798W        W40415   5.903   0.049  12.462  0.0480  0.0456  0.0961
24799W        W40416  10.531   9.290   5.309 -0.2459  0.0377 -0.2403
24800W        W40417   2.466  16.129   4.287  0.1803  0.1283  0.0283
24801W        W40418   6.158  17.945  12.684  0.0751 -0.1046 -0.2052
24802W        W40419  10.504  10.034  10.979 -0.1767 -0.2005  0.1426
24803W        W40420  13.141   9.448   0.577 -0.2433 -0.6092  0.0666
24804W        W40421   1.537   5.166  11.400  0.0680  0.1311  0.0708
24805W        W40422   1.631   4.901   1.950  0.2689  0.1640  0.3196
24806W        W40423   3.344   7.567   2.868 -0.3409 -0.1280 -0.1113
24807W        W40424  15.054  14.261   4.028 -0.0966  0.0524 -0.1225
24808W        W40425   0.146   4.567   1.504 -0.2601 -0.1591 -0.1732
24809W        W40426   5.242   1.834   5.134  0.0370  0.1145 -0.4698
24810W        W40427  15.610   6.324   5.948 -0.1375  0.2323 -0.1208
24811W        W40428   3.643  13.475   1.605  0.0429  0.3337 -0.0054
24812W        W40429  17.257  18.616  11.154 -0.1447  0.0514 -0.0026
24813W        W40430   0.222  15.460   5.366 -0.0034 -0.1953 -0.0705
24814W        W40431  13.676   9.895  10.827  0.1379  0.1968 -0.0726
24815W        W40432   8.236   5.238   3.733 -0.2490  0.0145 -0.4141
24816W        W40433  14.447   7.876  12.532  0.4311 -0.0865 -0.1477
24817W        W40434   5.034  12.041  11.082  0.1581 -0.0451 -0.2616
24818W        W40435   1.021   9.057   0.900  0.0875  0.2271 -0.0292
24819W        W40436  11.760   4.866   3.084 -0.1262  0.0109 -0.3108
24820W        W40437   6.204   5.978  13.387 -0.0699  0.0288 -0.3086
24821W        W40438  11.253  15.096  13.006 -0.0994  0.2265  0.3902
24822W        W40439   4.348   4.892  15.556  0.0656  0.3350 -0.1297
24823W        W40440   9.186   1.373   3.932  0.2649  0.2762 -0.3879
24824W        W40441  11.389   6.455   0.697  0.0116  0.0744 -0.0612
24825W        W40442  14.456  10.892  15.131  0.0820  0.0489 -0.1400
24826W        W40443  16.539  14.484  10.182  0.0812 -0.1826 -0.2219
24827W        W40444  10.373   3.157  12.446  0.2529 -0.1463 -0.2473
24828W        W40445  16.333  10.490   0.218 -0.4131 -0.4009 -0.0018
24829W        W40446  17.814  16.929  12.589 -0.0613  0.2540  0.0545
24830W        W40447  15.679  14.700   2.256  0.0849 -0.0348  0.0347
24831W        W40448  18.568  10.596   0.176 -0.3046  0.1441  0.2172
24832W        W40449  16.172  17.072   1.353  0.2063 -0.1776  0.0730
24833W        W40450   1.471   1.309   4.123 -0.3074 -0.2800 -0.1662
24834W        W40451  14.975   3.159   5.137  0.2882 -0.0433 -0.2493
24835W        W40452  15.360   4.406   0.674 -0.1332  0.3781 -0.1746
24836W        W40453   5.365  14.359  11.268 -0.0786 -0.2054 -0.0340
24837W        W40454   5.397  13.159  10.075 -0.3607  0.2577 -0.0281
24838W        W40455   6.230   9.430   5.680  0.0386 -0.0584  0.1120
24839W        W40456   0.170   5.857  15.249 -0.3138 -0.0085  0.1440
24840W        W40457  14.092  15.806   5.939  0.2257  0.0119  0.1616
24841W        W40458   1.060  10.484  15.397  0.2676 -0.1327 -0.1715
24842W        W40459   5.673  11.679  13.431  0.0385 -0.1363  0.4476
24843W        W40460  11.297  12.259  14.061  0.0775  0.0255 -0.0124
24844W        W40461   3.541   3.688  15.175 -0.0430 -0.0784  0.0090
24845W        W40462   2.429   0.577   5.099 -0.0138  0.2576  0.2317
24846W        W40463  10.078   8.040  11.193  0.1145 -0.0279 -0.1844
24847W        W40464  15.838   2.494   3.836 -0.1227 -0.0422  0.0455
24848W        W40465   9.266   2.898   3.276 -0.1372 -0.2605  0.1893
24849W        W40466  15.320  16.794  15.702 -0.1006 -0.0080  0.2003
24850W        W40467   3.375   6.127  11.910  0.0644 -0.2865 -0.1101
24851W        W40468  12.751  16.998  14.373  0.0090  0.1084  0.1134
24852W        W40469   5.485   6.125   3.736 -0.0053  0.0150 -0.1623
24853W        W40470  13.177   2.226  13.006  0.3315 -0.2869  0.1499
24854W        W40471   9.534  14.715   0.601 -0.3551  0.0088 -0.1400
24855W        W40472   9.894  11.402  11.842  0.1355 -0.0616 -0.1463
24856W        W40473   8.171  13.843   1.408 -0.0977 -0.1244 -0.2868
24857W        W40474  17.887   8.321  10.608  0.0306  0.1210  0.0385
24858W        W40475   9.238   6.321   5.438  0.0211  0.2188  0.0320
24859W        W40476   0.475  16.255   4.779 -0.0359  0.0992  0.1412
24860W        W40477  11.520   8.874  12.383  0.1720 -0.0160  0.1490
24861W        W40478  15.393   7.625   2.719  0.0879  0.1823 -0.0091
24862W        W40479   1.994  18.298  10.236  0.1426 -0.5289  0.0157
24863W        W40480   0.249   4.900  13.975  0.1550  0.2574  0.0716
24864W        W40481  13.577   7.994  15.264 -0.1005 -0.0230 -0.4757
24865W        W40482   1.892   9.957  13.834 -0.0346  0.0672 -0.0181
24866W        W40483  12.040  17.844   5.547  0.2548 -0.0179  0.0668
24867W        W40484  16.847  12.285   3.327  0.2470  0.0983 -0.1992
24868W        W40485   4.199  11.932   0.526 -0.3105  0.0331 -0.0706
24869W        W40486   5.510  12.790   2.091  0.1095  0.0252 -0.2856
24870W        W40487   5.074  18.218   2.949 -0.1179  0.2032  0.0590
24871W        W40488   8.481   4.321   2.234  0.1153  0.3317 -0.0893
24872W        W40489  14.648   5.804  11.738  0.0922  0.1013 -0.0537
24873W        W40490  18.454  12.788  12.475 -0.1595 -0.0066 -0.1404
24874W        W40491  10.140  15.181  12.244  0.2310  0.0999 -0.3325
24875W        W40492  17.240   5.033  12.768  0.0032  0.1618  0.1592
24876W        W40493  15.443  11.502  13.279  0.0565 -0.0404  0.0032
24877W        W40494  12.452   1.961   3.722  0.0171 -0.0652  0.2244
24878W        W40495  14.155   4.456  11.994  0.2576  0.0659 -0.0507
24879W        W40496   6.804   1.611   3.018 -0.2817 -0.0421 -0.1331
24880W        W40497  17.024   1.657   2.824 -0.0345  0.0979 -0.0207
24881W        W40498   2.178   0.121   0.148  0.1335 -0.1872 -0.0631
24882W        W40499  17.549   9.895   2.055  0.3773  0.1033  0.0104
24883W        W40500  10.497  13.702   2.498  0.1779 -0.2532  0.2036
24884W        W40501   3.688  11.251  14.840 -0.1802 -0.2296 -0.0599
24885W        W40502  16.038   2.037  13.955 -0.1545 -0.0520  0.0123
24886W        W40503   0.935  13.415   1.301 -0.2070  0.0996 -0.1151
24887W        W40504  13.090   6.623  12.866 -0.0138  0.0533  0.1044
24888W        W40505   6.343  15.126  11.790 -0.1978 -0.0828 -0.3715
24889W        W40506  12.948   7.277  15.297 -0.1325 -0.0047 -0.0348
24890W        W40507  14.917   0.853  12.916  0.1200 -0.1188  0.1831
24891W        W40508  13.183   8.709  15.026  0.1311  0.1197  0.2344
24892W        W40509  15.857  16.029   3.058 -0.2286 -0.0712  0.0580
24893W        W40510   3.117  17.227  10.841  0.3574  0.0440  0.0020
24894W        W40511   2.436  14.363   1.508 -0.1277  0.4398  0.1211
24895W        W40512   3.576   5.387   0.243 -0.1119  0.0090 -0.0687
24896W        W40513   1.171   2.483   0.935 -0.0117 -0.2458 -0.2333
24897W        W40514  11.960  11.175   0.190  0.1145 -0.1106 -0.0457
24898W        W40515   5.281  15.929   1.380  0.1265  0.2648  0.2900
24899W        W40516  14.812   1.352   3.531 -0.3425  0.2360 -0.0582
24900W        W40517  12.952  17.777   1.585 -0.1895  0.1537  0.1497
24901W        W40518   1.469   9.058  13.845  0.2678 -0.0684  0.0127
24902W        W40519   4.146  12.668  13.458  0.0806 -0.1397  0.0486
24903W        W40520   1.381  14.592  14.567  0.1186  0.2555  0.4298
24904W        W40521   9.068  15.056  10.903  0.0641  0.2229  0.1264
24905W        W40522   3.428   1.307   6.072  0.3788 -0.0564 -0.0011
24906W        W40523  11.549  13.691  10.580 -0.0224 -0.4283  0.2197
24907W        W40524   4.872  15.681   5.199 -0.2890 -0.2778  0.1848
24908W        W40525   1.047   5.816   3.170 -0.0667  0.0037 -0.1476
24909W        W40526   6.053  12.166   0.015 -0.1471 -0.1805 -0.0782
24910W        W40527  17.943  17.579  14.480 -0.1515  0.1020 -0.1170
24911W        W40528   8.493  13.684  15.229 -0.4233  0.1009 -0.2170
24912W        W40529  16.744   2.221  11.691  0.0557 -0.0150  0.0673
24913W        W40530  10.348   9.451  12.278  0.1087 -0.1200  0.2850
24914W        W40531   3.245   7.133  15.204 -0.1280  0.0115 -0.2860
24915W        W40532  13.320   7.682   1.491  0.0608 -0.0258  0.0513
24916W        W40533   0.295  11.342  11.356 -0.1643 -0.0762  0.2633
24917W        W40534  12.544   1.322   5.218  0.1173  0.1842  0.2718
24918W        W40535  16.050  15.028   2.564  0.0990 -0.1448  0.0308
24919W        W40536   0.482  14.064  11.508 -0.2457 -0.1684  0.3238
24920W        W40537  14.753   2.398  12.015 -0.2852  0.1147  0.0976
24921W        W40538   4.711   9.864  13.426  0.1588 -0.2911  0.2021
24922W        W40539   2.380   8.375   5.136  0.2382 -0.1414 -0.0206
24923W        W40540   5.154  18.177  15.695  0.0617 -0.1262  0.1359
24924W        W40541  15.585  11.241   4.148 -0.0790 -0.1526  0.0775
24925W        W40542   3.869   8.990   9.726  0.2547 -0.4643 -0.1829
24926W        W40543  17.442  15.157   0.684  0.0333  0.1212 -0.1263
24927W        W40544   8.229   9.407  14.103 -0.4872  0.4473 -0.1534
24928W        W40545   2.044   3.201  13.090 -0.0827  0.0233  0.0509
24929W        W40546   5.405  13.229   3.183 -0.0388 -0.1083 -0.0769
24930W        W40547  15.880   2.970  14.760  0.0640  0.1005 -0.0148
24931W        W40548   1.177  18.258   5.031 -0.1525  0.1149 -0.1641
24932W        W40549  12.578  10.438  14.811  0.0636 -0.2468  0.2548
24933W        W40550   4.252   3.990   4.258 -0.2245  0.0620 -0.0346
24934W        W40551   7.618  15.639  11.791 -0.0226  0.2038  0.0047
24935W        W40552   8.727   1.699  13.461 -0.1020  0.3146  0.2050
24936W        W40553   5.929   5.481  11.897  0.1405 -0.1592 -0.0885
24937W        W40554   1.302   5.426  11.736 -0.4904 -0.0199 -0.0529
24938W        W40555  16.901  10.570  14.477 -0.1383 -0.2444 -0.0739
24939W        W40556   1.263   0.421  11.075 -0.2140 -0.2653 -0.1742
24940W        W40557  12.201   9.560  13.870 -0.2255 -0.0334 -0.2204
24941W        W40558   3.185  14.584  14.492  0.1143 -0.0576 -0.0818
24942W        W40559   9.803   6.375   1.463 -0.0902  0.0317 -0.1852
24943W        W40560  11.300  10.903  14.635  0.1744 -0.1995 -0.2613
24944W        W40561  17.141   4.480  14.934 -0.1963 -0.2237  0.5645
24945W        W40562  15.684   4.630   4.535  0.3019 -0.1740 -0.0438
24946W        W40563   9.153   5.886   3.149  0.2324 -0.1728  0.1657
24947W        W40564   5.810   3.512   0.268 -0.2916  0.1438 -0.0756
24948W        W40565   4.016  13.980  10.767  0.0716  0.0007  0.3188
24949W        W40566  11.667   0.095  11.413  0.0345 -0.0133  0.1917
24950W        W40567   2.256   3.864   3.436  0.0550 -0.0762 -0.1962
24951W        W40568   8.872  17.177   2.411 -0.2198  0.2419 -0.0083
24952W        W40569  17.382   8.567   3.908  0.1510  0.0216 -0.0886
24953W        W40570  14.514   5.339   5.252  0.0600  0.2149  0.0661
24954W        W40571  12.026   7.645   1.209  0.0746  0.0801 -0.3876
24955W        W40572  10.443  18.270   4.282  0.0845  0.0731 -0.0447
24956W        W40573   4.653  18.516  13.075  0.2499 -0.0479 -0.1865
24957W        W40574   1.063   5.297  13.174 -0.1360  0.1314  0.0432
24958W        W40575   0.583   2.980  12.841 -0.1812 -0.2059 -0.5997
24959W        W40576  14.708   3.796   3.319  0.1194  0.3007 -0.1566
24960W        W40577   9.619   9.610   0.238  0.2290  0.1312  0.2924
24961W        W40578  16.681  11.989  15.022 -0.0337 -0.0768  0.0147
24962W        W40579   3.120  16.064   2.552  0.1492  0.1596 -0.0235
24963W        W40580  17.718  16.465   3.409 -0.2079 -0.0407  0.0456
24964W        W40581   9.689   2.494  13.160 -0.4821 -0.2274 -0.0308
24965W        W40582  10.593   3.494   1.899 -0.1686  0.1189  0.3504
24966W        W40583   1.366   1.966  15.795  0.0609 -0.0374 -0.3031
24967W        W40584  11.769  17.738  13.198 -0.0729  0.0258  0.1172
24968W        W40585   4.981   5.507  10.300 -0.0835 -0.0644  0.1654
24969W        W40586  12.191   0.151  11.473 -0.1706  0.2220  0.2565
24970W        W40587  17.282   0.860   2.592 -0.0422 -0.3002  0.1941
24971W        W40588  13.187   7.332   0.440 -0.4286 -0.1473  0.1419
24972W        W40589   1.372   2.969   0.006 -0.0664  0.2461  0.3584
24973W        W40590  15.467   9.612   2.654 -0.1267  0.2503  0.2624
24974W        W40591   0.435   0.795   0.959  0.0993 -0.1513 -0.0444
24975W        W40592   6.306   8.891   3.655 -0.0225 -0.0693  0.2745
24976W        W40593  11.938   3.100  14.130  0.0100 -0.0733 -0.0193
24977W        W40594   4.318   8.524   2.128  0.1646  0.2243 -0.0522
24978W        W40595   1.496  10.908   0.101  0.0133  0.0220  0.1383
24979W        W40596   5.841   0.212   0.307 -0.2256  0.1866  0.0727
24980W        W40597   7.110   6.501  13.442  0.2150 -0.0780 -0.2886
24981W        W40598   4.569  16.379   0.015 -0.0938 -0.2301  0.0261
24982W        W40599  16.282  14.103  12.429 -0.2282  0.0703 -0.3758
24983W        W40600  14.987   9.039   0.731 -0.0046 -0.1219  0.2679
24984W        W40601   7.206  13.869   3.109 -0.1822  0.2087 -0.3494
24985W        W40602  11.271   0.016  13.070  0.1888 -0.0304  0.1635
24986W        W40603  12.316   7.169   1.419  0.1846 -0.0276 -0.3519
24987W        W40604  10.505   7.691   4.064  0.5488  0.3047 -0.0592
24988W        W40605   5.992   4.072   3.633 -0.1297 -0.1466  0.2228
24989W        W40606   7.151  14.674   3.873  0.4026 -0.2789  0.2370
24990W        W40607   2.505   6.943  13.886  0.1005 -0.1791 -0.1349
24991W        W40608  11.961  14.863   0.903 -0.0066  0.1421 -0.0631
24992W        W40609   3.465   3.927   2.801 -0.0338  0.0503  0.1149
24993W        W40610   5.219   1.518   1.739 -0.3527  0.1239  0.3091
24994W        W40611   0.939   8.980   2.712 -0.0942  0.1309  0.1872
24995W        W40612   6.153  15.365  14.462  0.2194 -0.1481 -0.2414
24996W        W40613  10.880   1.194  11.997 -0.0026  0.0114 -0.3449
24997W        W40614   5.103  10.954   2.381  0.1019  0.1025  0.3474
24998W        W40615   9.596   0.803  12.578  0.0637 -0.2505 -0.0512
24999W        W40616  12.019  12.345   3.253 -0.2526  0.2303 -0.1575
25000W        W40617  12.909  12.286  12.422  0.2084  0.2679  0.1013
25001W        W40618  15.856  10.740   2.652  0.1575  0.3798 -0.3931
25002W        W40619   6.873   6.397  10.998  0.4768 -0.3250  0.0955
25003W        W40620  16.603   0.301  13.909 -0.0821 -0.4230 -0.4482
25004W        W40621  17.507   5.664  12.827  0.1845 -0.1612  0.2945
25005W        W40622   9.244   7.774  11.833 -0.2839 -0.1604 -0.2747
25006W        W40623   5.186   8.986   6.011  0.1277  0.1346 -0.1010
25007W        W40624   5.666   8.382   4.916  0.2110  0.1917 -0.0047
25008W        W40625   4.541  10.245   2.883  0.1378 -0.3691 -0.2944
25009W        W40626   0.486   5.845  13.699 -0.1778 -0.1933 -0.1103
25010W        W40627   2.465   1.847   2.007  0.1097  0.3374 -0.0488
25011W        W40628  14.990   5.397   3.572  0.1907  0.0537  0.0495
25012W        W40629  11.278  15.489   1.216 -0.0251 -0.3504 -0.1871
25013W        W40630   3.438   6.807   5.839  0.0492 -0.0135  0.0513
25014W        W40631   2.440   9.938  12.387  0.2112  0.1782  0.4173
25015W        W40632  13.566   2.220  14.068  0.2653 -0.0937  0.1038
25016W        W40633   9.412  10.797  14.535 -0.0321 -0.2517 -0.0713
25017W        W40634   0.510   0.514  13.623 -0.0665  0.3030  0.0711
25018W        W40635   7.374  14.859  14.936 -0.2286  0.0485 -0.2793
25019W        W40636   1.439   0.385  12.295  0.1278 -0.3397  0.3044
25020W        W40637  13.192  18.514  15.092  0.0964  0.1054 -0.0475
25021W        W40638   2.640  14.343  13.487 -0.1127 -0.3332  0.0581
25022W        W40639   1.442   5.093   1.097  0.1578  0.1151 -0.0145
25023W        W40640   1.413   0.513   0.058 -0.2360 -0.0107 -0.0420
25024W        W40641   4.316   8.901   3.978  0.1600  0.1765 -0.2683
25025W        W40642  17.172  12.985   4.122 -0.3454  0.2219 -0.1829
25026W        W40643   9.941   0.710   2.425 -0.1147  0.0424 -0.3962
25027W        W40644   3.031  15.443  14.269 -0.1121 -0.1393 -0.3171
25028W        W40645  15.291  17.002   3.331  0.0584 -0.2106  0.3742
25029W        W40646   4.237   4.763   0.542  0.0960  0.0638 -0.3101
25030W        W40647   4.471   5.742  14.670  0.0462  0.0697  0.2162
25031W        W40648   6.487  15.974  12.960 -0.0814 -0.1747 -0.2932
25032W        W40649   4.651   3.873   5.190 -0.0183  0.2078  0.1608
25033W        W40650   0.191   0.928   2.740 -0.0654  0.0948 -0.2084
25034W        W40651   0.833  12.058  12.293  0.3480 -0.1562 -0.0193
25035W        W40652   1.307   0.414   3.177 -0.0276 -0.1856  0.5357
25036W        W40653  18.583  15.186   2.636 -0.2765 -0.0627 -0.0126
25037W        W40654  18.114  10.188  12.975 -0.0580 -0.1743  0.2732
25038W        W40655   6.537   8.566  15.159 -0.0560 -0.0784  0.0061
25039W        W40656  18.356   2.043   1.415 -0.0247  0.0731 -0.1927
25040W        W40657  11.980  13.420  10.680  0.1267  0.2411 -0.0491
25041W        W40658  17.359   3.360  14.515  0.1483  0.0275 -0.2126
25042W        W40659  13.285   1.284  11.503  0.1862  0.0936  0.1922
25043W        W40660   3.862  16.704   1.564 -0.1144 -0.2844  0.0476
25044W        W40661  16.778  14.909   2.563  0.4072 -0.1200  0.0985
25045W        W40662  14.148  18.351  15.154 -0.2725  0.1107  0.0124
25046W        W40663  13.551  16.588   5.182  0.3801  0.0678  0.0780
25047W        W40664   2.393  11.141  12.967  0.1394  0.3221  0.0441
25048W        W40665  17.031  12.061  12.788 -0.2101  0.2247  0.4209
25049W        W40666  14.914   4.074   2.422  0.1804 -0.1956  0.1129
25050W        W40667   1.283   1.596   1.507  0.0634  0.0148  0.0135
25051W        W40668  12.118  16.687  15.552 -0.1961  0.2476 -0.0995
25052W        W40669  12.947   4.408   0.973 -0.2557  0.4862 -0.1396
25053W        W40670   2.793  12.570  15.576 -0.0175 -0.1032 -0.0410
25054W        W40671   8.752  15.465   1.717 -0.1488 -0.0791  0.0104
25055W        W40672  17.169   0.749   0.971  0.2442 -0.0255  0.0488
25056W        W40673  12.470   2.889  12.184 -0.0692 -0.1107  0.1134
25057W        W40674   0.522   4.654  12.464  0.2296 -0.2872  0.3324
25058W        W40675  17.303  18.396   3.429  0.3706 -0.0437  0.3185
25059W        W40676   3.204  18.195  12.501  0.0850  0.3684  0.0177
25060W        W40677   9.783  12.546   2.055 -0.1966  0.0749  0.1919
25061W        W40678   0.636  12.511  12.351 -0.1356  0.2234 -0.0986
25062W        W40679   3.128  14.609  13.621 -0.1100  0.1665 -0.0229
25063W        W40680  11.881   1.273  14.792 -0.0196  0.1727  0.1212
25064W        W40681  15.592  10.431  12.542 -0.2645  0.0988 -0.0014
25065W        W40682  12.864   2.816   2.129  0.1893 -0.1680  0.3530
25066W        W40683   0.513   1.865  12.817 -0.0824  0.1549 -0.1509
25067W        W40684   6.121   5.025   5.175 -0.1235 -0.3688  0.0389
25068W        W40685   1.575  18.526   0.712  0.0779 -0.0433 -0.0356
25069W        W40686  16.572  15.497   0.680  0.0366  0.0898  0.0240
25070W        W40687   2.938   6.434  12.076  0.3742  0.1785 -0.0165
25071W        W40688  17.424  11.158   0.212  0.2985 -0.0959  0.1570
25072W        W40689  14.704  15.150   4.293  0.0578 -0.0699  0.0620
25073W        W40690   7.345   2.180  14.608 -0.1386  0.1507 -0.2092
25074W        W40691   5.556   2.327   0.055  0.0813 -0.3381  0.2891
25075W        W40692   0.529   1.436  13.155 -0.1388  0.1282 -0.3198
25076W        W40693  16.123   8.593  12.264 -0.1611 -0.1536  0.1397
25077W        W40694   9.377  13.622  13.704  0.1091  0.1655  0.0148
25078W        W40695   2.343   7.225   0.893  0.2736 -0.1713  0.0655
25079W        W40696  11.427   8.074  14.769  0.0920  0.0137  0.0375
25080W        W40697   0.366  16.427  13.265 -0.1597 -0.0471 -0.0603
25081W        W40698   7.948  14.812   3.387 -0.1021 -0.1053  0.1719
25082W        W40699   8.077   8.221  10.992  0.1836  0.0439 -0.0137
25083W        W40700   1.977   7.079   1.185  0.1587 -0.2383  0.2847
25084W        W40701   7.472  11.499  14.607 -0.1238  0.1500 -0.0419
25085W        W40702   4.516  12.311  10.560  0.1571 -0.0761 -0.1547
25086W        W40703   2.694   7.639  13.358  0.3761  0.1933 -0.1308
25087W        W40704   1.338   5.250  12.262 -0.1976 -0.2182  0.2656
25088W        W40705   5.699  11.827   3.150 -0.2614  0.0385  0.3058
25089W        W40706   0.764  14.730   4.609 -0.1093 -0.2678 -0.1981
25090W        W40707  13.783   8.081   2.090  0.0042  0.1762 -0.1207
25091W        W40708  12.472  10.162   2.810 -0.3496 -0.3175 -0.2216
25092W        W40709  12.324   4.008  14.963 -0.0569 -0.0988 -0.1327
25093W        W40710   4.199   4.386   0.916  0.0059 -0.1712 -0.0021
25094W        W40711  12.324   5.443  12.557  0.2776  0.1125  0.0949
25095W        W40712   9.659  10.363   2.226 -0.0602  0.0767 -0.0182
25096W        W40713   5.588   3.663   5.012  0.0916 -0.1866  0.1546
25097W        W40714   2.818  10.282   1.512  0.3219 -0.3522  0.0116
25098W        W40715   5.202   3.974   1.198  0.0670 -0.2477 -0.0632
25099W        W40716   6.082   4.801  15.028 -0.1222 -0.1907  0.0012
25100W        W40717   1.618  13.083   0.040  0.0575 -0.0447 -0.0428
25101W        W40718  17.060  16.594   3.721  0.3872  0.0696 -0.0363
25102W        W40719   4.164  15.277   3.195  0.0014  0.1451 -0.0031
25103W        W40720  12.894   3.929   3.627  0.0220  0.0208 -0.0294
25104W        W40721   7.942  14.436   4.377 -0.1792  0.0497  0.0756
25105W        W40722   1.968  16.901  11.193  0.3277  0.1771 -0.4792
25106W        W40723  15.840  12.758   4.860  0.0061 -0.1751 -0.1380
25107W        W40724  14.971  11.482  13.071  0.3317 -0.2394  0.0314
25108W        W40725   2.413  10.160   1.251  0.1235  0.2887 -0.2658
25109W        W40726  18.451  18.022   5.231 -0.0599  0.0449  0.0965
25110W        W40727  10.785   5.193  11.470  0.0467  0.1267 -0.2708
25111W        W40728   0.221   2.853  13.290 -0.0249 -0.1433  0.3359
25112W        W40729   1.497   2.687   0.431 -0.0039  0.2923 -0.0103
25113W        W40730  18.416  18.373  13.802 -0.0541  0.0069  0.2685
25114W        W40731   9.474   5.908  13.340  0.1000  0.0414 -0.0182
25115W        W40732   3.280   8.327  11.186  0.1931  0.2255 -0.1189
25116W        W40733   0.748   6.736  15.375 -0.3403 -0.1738  0.0220
25117W        W40734   5.943   2.182  11.740  0.1568 -0.1552 -0.0682
25118W        W40735  16.360   9.306   5.950 -0.0059 -0.0688 -0.1258
25119W        W40736  11.897  14.307   1.849 -0.2325  0.0216  0.2214
25120W        W40737   6.191   6.138   5.144 -0.0181  0.2171  0.1137
25121W        W40738  11.289  17.407   5.551 -0.0610 -0.0300 -0.1550
25122W        W40739  13.760   3.719  12.002 -0.3155  0.2238 -0.0548
25123W        W40740   5.324   5.111   5.525 -0.1910 -0.0558 -0.0342
25124W        W40741   4.362   1.147  15.127  0.0846  0.0404 -0.0049
25125W        W40742   0.067  15.162  15.711  0.1295  0.1250  0.0749
25126W        W40743   5.710   9.155   2.408  0.3348 -0.1436  0.0111
25127W        W40744  12.007  16.743   2.829 -0.0546  0.1823  0.0573
25128W        W40745  10.000  15.398   4.435 -0.2248 -0.2105 -0.1271
25129W        W40746  10.755  10.251  11.933 -0.1274  0.1015 -0.1342
25130W        W40747   2.675  11.941   4.497  0.2665 -0.2310 -0.5038
25131W        W40748   8.281  18.475  13.687  0.1149  0.2290 -0.1650
25132W        W40749  11.472   6.187   2.739  0.0435  0.2846  0.1661
25133W        W40750   5.765  16.772  14.951 -0.0307  0.1576  0.2736
25134W        W40751  14.054  11.600  12.589  0.0983 -0.0773 -0.1933
25135W        W40752  10.352  18.124   3.791 -0.2718  0.3486 -0.2636
25136W        W40753  10.973   5.749   2.430  0.1002  0.3232  0.1675
25137W        W40754   3.611  12.180  14.280  0.0446 -0.0798  0.3060
25138W        W40755   1.273   1.379  15.011  0.1263 -0.0315  0.2377
25139W        W40756  16.836   9.124  13.880  0.2826  0.0770  0.2299
25140W        W40757  12.887  15.027   4.280  0.2241  0.5556  0.3452
25141W        W40758   5.113   0.404  15.294 -0.1664 -0.1663  0.0838
25142W        W40759   4.098   1.956  11.959 -0.0031 -0.1397  0.0024
25143W        W40760  14.637   8.815  12.737 -0.1947 -0.1881  0.2101
25144W        W40761  13.534   1.847   5.618  0.1609 -0.1294  0.1603
25145W        W40762  15.674   4.127   0.336  0.0525  0.1031 -0.2241
25146W        W40763   7.799  18.133   1.538 -0.0077 -0.2690  0.2827
25147W        W40764  13.935   5.691   1.312  0.3110 -0.1660  0.0623
25148W        W40765  12.438   1.672  14.190  0.0304 -0.3504  0.0957
25149W        W40766   1.056  18.389  13.134  0.2103  0.0152  0.0533
25150W        W40767   2.839   4.094   2.762 -0.1593  0.2438  0.3259
25151W        W40768  11.617  15.723  15.574  0.1036  0.0248  0.0046
25152W        W40769  13.303   2.336   5.012  0.2477  0.2115 -0.0930
25153W        W40770   8.668  14.868  13.856 -0.1392  0.1080  0.1435
25154W        W40771   9.776   8.518  15.492  0.2645 -0.5070 -0.0364
25155W        W40772   7.702   0.355   2.109  0.2198 -0.3015 -0.1240
25156W        W40773   5.662  11.117  15.034  0.3747  0.1242 -0.0093
25157W        W40774   1.597   5.416  13.856  0.0151  0.1237 -0.1498
25158W        W40775  12.921  13.436   4.982 -0.0717 -0.2858 -0.0882
25159W        W40776  14.600  10.712   2.323 -0.1993 -0.0926 -0.3601
25160W        W40777   9.586   1.798  11.156 -0.1845  0.0533 -0.0066
25161W        W40778   4.734   2.941   1.203 -0.2591  0.0108 -0.5115
25162W        W40779  10.492   7.031   1.423  0.2210 -0.2129 -0.1856
25163W        W40780  11.982   9.431  13.066  0.1010  0.4243  0.0165
25164W        W40781  15.735   9.501   2.176 -0.2418 -0.2285  0.0971
25165W        W40782   1.655  12.751  11.270 -0.0467 -0.1405 -0.2602
25166W        W40783   8.685   4.419   0.149 -0.1197 -0.0881 -0.0539
25167W        W40784  18.208  15.183   3.639  0.0588 -0.0513 -0.1684
25168W        W40785  12.450   8.183   1.150  0.0017 -0.1045  0.0114
25169W        W40786   6.572  17.377   0.481 -0.0449 -0.1287  0.1969
25170W        W40787   0.033  14.217  14.141 -0.2154  0.0477  0.1670
25171W        W40788   1.372   4.860   5.883  0.0700 -0.0402  0.2547
25172W        W40789   8.757   9.127  10.792  0.0351 -0.0928  0.0083
25173W        W40790   3.264   8.305  13.013 -0.1369 -0.1636  0.1379
25174W        W40791  16.805  14.495  15.049  0.2895 -0.0574  0.0737
25175W        W40792  13.409   4.634   3.264  0.0691  0.2054  0.2070
25176W        W40793   4.536  18.307  11.605  0.0574 -0.0477  0.0708
25177W        W40794  14.652   9.485   0.128  0.2932  0.2196 -0.3685
25178W        W40795   5.571   1.128  14.682 -0.2285 -0.1364  0.0562
25179W        W40796   5.590  15.017  12.098  0.1708 -0.3032  0.2114
25180W        W40797   6.348   7.299  12.389 -0.1518  0.0273 -0.0552
25181W        W40798   5.699  17.188  12.031 -0.0241 -0.0535 -0.1997
25182W        W40799   2.425   7.636   1.850 -0.0465 -0.4363 -0.0190
25183W        W40800  14.810  10.624   4.933  0.0099  0.1678  0.0645
25184W        W40801  14.984   8.076  14.991  0.1329 -0.1543  0.0208
25185W        W40802   3.759   2.603   5.998 -0.0467 -0.1122 -0.3352
25186W        W40803  14.922   0.252  11.378  0.1192 -0.0662 -0.0272
25187W        W40804  14.520   4.036   1.014  0.0768  0.0826 -0.0266
25188W        W40805  10.605  10.857  14.438  0.0885  0.0312 -0.4411
25189W        W40806  17.838   8.364   2.734 -0.0304  0.0468 -0.1764
25190W        W40807   2.835  14.495  14.100  0.1986 -0.1387  0.2682
25191W        W40808  10.495  13.302  12.451 -0.0794  0.0588 -0.0950
25192W        W40809   1.606  11.523  14.280  0.4117 -0.0858  0.2593
25193W        W40810   3.919   5.670   1.282  0.1928  0.1189 -0.4402
25194W        W40811   4.474   8.015   2.311  0.1656 -0.0680  0.2381
25195W        W40812   1.238   4.975  12.752 -0.1445  0.0704  0.1352
25196W        W40813  11.391   9.851  12.495 -0.1635  0.0139  0.0545
25197W        W40814   6.967  11.089  13.257 -0.2462  0.1676 -0.1059
25198W        W40815  17.000   6.004  15.546  0.1496 -0.4365 -0.0653
25199W        W40816  14.500   6.093  13.938 -0.2386  0.2418 -0.0471
25200W        W40817   0.947  12.827   4.156 -0.0543  0.0177 -0.2737
25201W        W40818   0.226   2.541  12.100 -0.0173  0.0987  0.3264
25202W        W40819  17.717  15.315  12.987 -0.1778  0.2097  0.0388
25203W        W40820   3.062   2.070   0.089 -0.0034 -0.1806  0.1556
25204W        W40821   9.638  15.875   5.758 -0.2776  0.1441 -0.0033
25205W        W40822   7.510   3.637  14.391 -0.2182  0.0601 -0.0931
25206W        W40823   9.832   2.518  12.240  0.2883  0.0779 -0.2597
25207W        W40824   6.798  12.481  14.536  0.0379  0.0223  0.0403
25208W        W40825  15.968  14.882   5.419 -0.0499  0.3936 -0.1497
25209W        W40826   2.022   1.103   5.543  0.2058 -0.1124  0.3645
25210W        W40827  13.171   2.155   6.267  0.0196  0.1790 -0.0822
25211W        W40828  10.403   0.265  14.464 -0.0514 -0.1341 -0.2915
25212W        W40829  18.101  13.152  10.751  0.1871  0.0351 -0.0731
25213W        W40830   4.226  15.231  12.425 -0.0068 -0.2873 -0.0063
25214W        W40831   9.555  11.165  13.881 -0.0780  0.2587 -0.1313
25215W        W40832   8.686  14.406  11.496 -0.4090  0.0462  0.0013
25216W        W40833  17.690   8.246   0.931  0.3763  0.0149  0.0407
25217W        W40834  16.120   6.661   2.785 -0.1387 -0.1672 -0.1376
25218W        W40835  15.509  12.459   0.444  0.1354 -0.2728  0.0412
25219W        W40836   1.025   6.518  13.970 -0.1618 -0.4678  0.0881
25220W        W40837   7.500   8.812  15.054  0.0700 -0.0217  0.0866
25221W        W40838   1.352   9.703  13.995 -0.3828 -0.2545  0.0562
25222W        W40839   2.356  17.048   3.134  0.0200 -0.0655  0.0292
25223W        W40840   1.822   2.432   6.119  0.2792  0.0962  0.1749
25224W        W40841   5.987   2.049   4.391 -0.0192 -0.1882  0.1323
25225W        W40842  14.278  10.687   4.987  0.0374  0.1918 -0.0468
25226W        W40843   2.617  17.848   2.822 -0.1275  0.0394 -0.1505
25227W        W40844  18.113  11.392  13.649  0.2204  0.1540 -0.2019
25228W        W40845  12.004  12.227   2.128 -0.0859 -0.4520  0.0025
25229W        W40846  10.643  10.689   4.375  0.0410  0.2350  0.0073
25230W        W40847  14.890   1.726  13.326  0.0106  0.4686 -0.0952
25231W        W40848  15.770   5.028  11.348 -0.2172 -0.1027  0.0859
25232W        W40849   6.491  15.074  14.670  0.0181  0.1904 -0.0555
25233W        W40850  17.846  16.999   0.701  0.1514 -0.0282  0.0829
25234W        W40851  15.522  10.838  15.144  0.0458 -0.2939 -0.0866
25235W        W40852  10.188   5.895  12.069 -0.2094  0.0515 -0.0113
25236W        W40853  18.454  14.307   2.304  0.0920 -0.1726  0.1170
25237W        W40854   1.087  12.723   4.677 -0.0246  0.0411 -0.0338
25238W        W40855   0.439   3.507  14.491 -0.1355  0.0086  0.2414
25239W        W40856  12.938   8.171  10.720  0.2985 -0.0707 -0.0046
25240W        W40857   6.441   3.333   0.195  0.1804  0.0743  0.0086
25241W        W40858   8.150  15.865   5.388  0.0805  0.1474  0.4242
25242W        W40859  11.080   4.353  13.180  0.2876  0.1515 -0.1523
25243W        W40860  13.871   4.274  13.838 -0.0020 -0.0754 -0.3729
25244W        W40861   2.726   5.649   3.626  0.1607  0.0731  0.2634
25245W        W40862   5.691   1.546  13.816 -0.2123 -0.0496 -0.0138
25246W        W40863  17.294  17.126  12.328 -0.4683 -0.0480  0.0561
25247W        W40864  11.149  15.782   0.260 -0.1635  0.1302  0.0939
25248W        W40865   3.114   6.717  11.705  0.0985 -0.2046 -0.1272
25249W        W40866   4.814   2.548   1.601 -0.0076  0.0714 -0.1454
25250W        W40867  18.213   3.848  12.087  0.0214 -0.1821 -0.4766
25251W        W40868  12.066   7.299   2.850 -0.0805  0.1915  0.2495
25252W        W40869   3.161   1.855   5.306 -0.1583  0.0512  0.4101
25253W        W40870  11.490  12.786  13.904 -0.3777 -0.1178 -0.0007
25254W        W40871  11.412  10.147  11.041 -0.0096 -0.1954 -0.2252
25255W        W40872  10.972  13.207   0.391 -0.2677  0.2079 -0.1000
25256W        W40873   3.809   8.225   5.598 -0.2483  0.1103  0.1915
25257W        W40874  15.309   6.304  15.180 -0.4076 -0.2073 -0.2749
25258W        W40875  11.983   1.725   1.176 -0.0368 -0.1273  0.2226
25259W        W40876  10.497   0.243   4.839 -0.0325  0.0564  0.1348
25260W        W40877  14.330  17.782  14.465  0.0443  0.2156  0.0889
25261W        W40878   9.990   4.768   6.237 -0.1049  0.1978  0.1250
25262W        W40879   1.945  13.961   1.846 -0.0176  0.2057 -0.0075
25263W        W40880   9.848   1.082  11.733  0.2260 -0.1155  0.4517
25264W        W40881   5.319   9.487   2.299  0.0913 -0.0616  0.0468
25265W        W40882   2.100  11.442  13.797 -0.5493 -0.0487  0.2149
25266W        W40883  11.902   7.332  12.066  0.2329 -0.1146 -0.1998
25267W        W40884   9.782   3.417  14.375 -0.3150 -0.0284  0.2166
25268W        W40885  16.291  14.895  10.347 -0.2468  0.1492  0.0067
25269W        W40886   3.773  11.040  11.048  0.0346  0.0388  0.2093
25270W        W40887  15.827   4.061  14.027  0.0345 -0.0357 -0.2454
25271W        W40888   7.785   9.276  15.000 -0.0346 -0.1061 -0.1175
25272W        W40889  13.446  17.217   5.291  0.3441  0.3493  0.0717
25273W        W40890   9.349  12.548   5.174 -0.0924  0.0731 -0.0805
25274W        W40891  13.920   9.078   3.305  0.1298  0.1166 -0.1746
25275W        W40892   1.849  15.407   6.057  0.0568  0.0275  0.3091
25276W        W40893  10.361   9.307   3.889  0.1421  0.0988 -0.0364
25277W        W40894  16.493   2.938   0.285  0.1832  0.1338  0.0124
25278W        W40895   7.585  15.162   2.594 -0.2199  0.0575 -0.0096
25279W        W40896  17.001   5.673  12.926 -0.1576  0.1686 -0.2832
25280W        W40897   7.301   1.330  15.049 -0.0800  0.0423  0.2488
25281W        W40898  11.373   3.316  11.282  0.2210  0.2169 -0.0930
25282W        W40899  14.348   5.508   1.511 -0.1720 -0.1877 -0.1404
25283W        W40900  14.968   1.822  13.888 -0.3283  0.0450  0.0273
25284W        W40901   6.497   1.348  11.137  0.3535 -0.1527  0.1998
25285W        W40902   7.268  14.660  13.072  0.0520 -0.1980 -0.3194
25286W        W40903  17.782  13.071  14.988 -0.1626  0.1288  0.0001
25287W        W40904  16.873  17.458   5.320  0.4333 -0.0478  0.2751
25288W        W40905  15.134  11.809  14.084 -0.0018 -0.2881  0.1178
25289W        W40906   2.058  10.615  15.240 -0.1660  0.0216 -0.1100
25290W        W40907   8.006   6.122  12.803 -0.0176 -0.2161  0.2035
25291W        W40908  17.561  16.902   3.649  0.1355 -0.3349  0.2167
25292W        W40909  17.311   0.149   3.709  0.1552 -0.1955  0.1121
25293W        W40910  15.687  11.031   0.583  0.0105 -0.3689 -0.2356
25294W        W40911   5.978  11.324  13.165 -0.0086  0.0862 -0.1154
25295W        W40912  15.817  17.695  11.243 -0.0836 -0.0527  0.0009
25296W        W40913  13.733   2.462   3.377  0.0300  0.0170  0.3078
25297W        W40914   6.552   1.875   5.475 -0.2540 -0.1724  0.0503
25298W        W40915   4.188   5.342  11.136 -0.0019 -0.1633  0.1573
25299W        W40916   6.259   3.517  15.056 -0.1833  0.3874  0.1895
25300W        W40917   9.745  11.509   0.809 -0.1425 -0.1388 -0.4650
25301W        W40918   1.101  12.494  12.211 -0.1026  0.0256  0.4842
25302W        W40919  17.574   8.431   4.678 -0.2282  0.1146 -0.2393
25303W        W40920  17.450  18.156  13.847  0.1045 -0.0182 -0.0906
25304W        W40921  17.833  11.448  13.131  0.1150  0.0944  0.2489
25305W        W40922  14.849   6.241   2.294 -0.0313  0.4824 -0.1425
25306W        W40923   2.986  11.025  12.142  0.2003  0.1933  0.1901
25307W        W40924   2.576  15.432  14.550  0.4204  0.5227  0.0664
25308W        W40925   1.169  10.387   0.814  0.1254 -0.0619 -0.0861
25309W        W40926   9.492   7.653   3.797  0.0065  0.1456  0.0566
25310W        W40927   3.783  18.399  13.209  0.0393 -0.0058  0.1464
25311W        W40928   6.227   7.484   0.566  0.2205 -0.0650  0.6150
25312W        W40929   6.672  14.020  12.873  0.1998 -0.2487  0.1313
25313W        W40930  10.411  15.696  11.025 -0.2009  0.1098  0.0925
25314W        W40931  11.922   6.051   3.561  0.1512  0.0707 -0.0024
25315W        W40932  14.589  17.129  14.072  0.0982  0.1871 -0.0790
25316W        W40933  12.975   2.311   4.587  0.0235  0.1205  0.0453
25317W        W40934  11.268  11.542  14.712 -0.0683 -0.0899 -0.0956
25318W        W40935   1.751  13.206   0.849  0.1707 -0.0548 -0.0482
25319W        W40936   0.458   9.724  11.707 -0.5173 -0.1987  0.2380
25320W        W40937  15.254   3.649   4.259  0.0192 -0.1289  0.1288
25321W        W40938  16.581  17.025  14.826 -0.0105  0.0761 -0.4222
25322W        W40939   6.815  17.762   0.168 -0.1445  0.1338 -0.1359
25323W        W40940   5.827   6.397   5.301  0.1462 -0.4706  0.0952
25324W        W40941  18.551  13.358  14.579 -0.1402 -0.0684 -0.1780
25325W        W40942   7.528   6.403  14.872 -0.1937  0.1744  0.3032
25326W        W40943   7.271  14.551  10.168  0.2923  0.0777 -0.0092
25327W        W40944   9.021   2.619   5.634  0.2256 -0.2476 -0.0640
25328W        W40945  17.710  13.411   4.679  0.0101 -0.2650 -0.0704
25329W        W40946   7.803  14.111  14.427 -0.0312 -0.0883 -0.0835
25330W        W40947   2.872   6.667  13.803  0.0497 -0.1013 -0.1037
25331W        W40948  11.703   2.231  15.214 -0.2086 -0.3331  0.3809
25332W        W40949   9.959  18.231  12.489 -0.3571 -0.1658 -0.1712
25333W        W40950  15.182  10.371  15.271 -0.1619 -0.1421 -0.0341
25334W        W40951   7.130   7.473  14.797 -0.0264 -0.1730 -0.0990
25335W        W40952  12.066   8.838   4.045 -0.0399  0.2628 -0.2762
25336W        W40953   7.069   9.322   4.270 -0.2370  0.1724  0.3711
25337W        W40954   2.776   8.241  13.064  0.0611  0.2382 -0.2222
25338W        W40955  15.802  13.913   1.388  0.1869  0.1141 -0.3385
25339W        W40956   9.332  13.320   3.794 -0.1843 -0.0206 -0.0003
25340W        W40957   3.590   4.455   1.567  0.0027 -0.1191 -0.2298
25341W        W40958   5.364  14.854   1.987 -0.0042 -0.0223 -0.1674
25342W        W40959   9.739   9.313  15.150  0.1114 -0.1750 -0.1904
25343W        W40960  10.588   1.559   5.376 -0.2693 -0.0785  0.0687
25344W        W40961  18.027  11.676   1.199  0.0506 -0.0861 -0.0139
25345W        W40962   9.571   9.997   0.576  0.2302  0.1775 -0.0519
25346W        W40963   6.613   0.555  13.788 -0.0009  0.1497  0.3084
25347W        W40964   8.950   2.560  11.173 -0.0698  0.3624  0.1065
25348W        W40965   2.393   0.482  15.728 -0.0988 -0.0769  0.0943
25349W        W40966   0.825   1.712   3.631  0.3476  0.0076 -0.1921
25350W        W40967  12.265   7.173  14.559  0.2076 -0.0827 -0.2325
25351W        W40968   1.171  11.148  11.434 -0.3234 -0.0622  0.2409
25352W        W40969   1.081   0.476  14.371  0.1145 -0.0662  0.2033
25353W        W40970   4.060  11.014   2.043 -0.3997  0.4291  0.2302
25354W        W40971   1.836   7.114  14.946  0.0773  0.0047  0.0656
25355W        W40972   6.711   6.335   5.198 -0.2127  0.2699  0.0588
25356W        W40973   1.517   6.791  13.656 -0.0845 -0.2643 -0.2822
25357W        W40974  10.889  17.466   0.801 -0.4894 -0.1294 -0.0461
25358W        W40975   1.924  10.116  13.367  0.0140  0.1098 -0.2243
25359W        W40976  17.129   0.880   1.584 -0.3101  0.1262  0.2892
25360W        W40977   9.235   0.810   4.792 -0.0588  0.0683 -0.0467
25361W        W40978   1.637   8.209   4.578  0.0933  0.3311  0.0666
25362W        W40979  17.489  10.559  11.981  0.2719 -0.2390 -0.0112
25363W        W40980   1.598   3.940  15.727 -0.0424 -0.0141  0.0778
25364W        W40981  16.824  16.907   3.246 -0.0332  0.3519  0.1164
25365W        W40982  18.494  12.151   2.207 -0.4691 -0.0585  0.1250
25366W        W40983  17.766  10.783  14.383  0.3769  0.0885  0.3083
25367W        W40984   8.872   3.188   3.275 -0.2032 -0.4566  0.2320
25368W        W40985   2.913   3.374  11.552 -0.1551 -0.0784 -0.0668
25369W        W40986   0.367   0.596  15.155 -0.0507 -0.4374 -0.3463
25370W        W40987   4.953   3.108  15.115  0.1460  0.2470  0.4136
25371W        W40988  15.468   0.981   1.863 -0.2097  0.0484 -0.1472
25372W        W40989  18.280  10.938  14.575  0.0225  0.2262 -0.0506
25373W        W40990  10.097   3.646   2.443 -0.2298  0.4625  0.2853
25374W        W40991   7.859  11.381  13.390 -0.0462 -0.0264 -0.0808
25375W        W40992   2.573  14.842   1.332 -0.1472  0.0061 -0.2330
25376W        W40993   7.308   8.331  14.711  0.0762 -0.1687  0.1056
25377W        W40994  12.910   2.844   6.060 -0.0702 -0.2778 -0.2721
25378W        W40995  12.281   4.638   2.607  0.2071  0.2037 -0.2985
25379W        W40996  15.107  14.309   0.593 -0.0333  0.0860 -0.2895
25380W        W40997  14.867  18.239  12.647 -0.0874 -0.2052 -0.1279
25381W        W40998  12.591  17.524   2.930  0.2387  0.0453 -0.0587
25382W        W40999   7.280  15.164  10.810  0.0428 -0.1319  0.1476
25383W        W41000   7.518  17.686   3.622 -0.1633 -0.0301 -0.1649
25384W        W41001   5.384   2.575   0.693  0.1194 -0.0425 -0.3821
25385W        W41002   7.092  18.099  14.090  0.0296  0.2230 -0.0389
25386W        W41003  10.542   2.872   5.276 -0.0224 -0.1395  0.1731
25387W        W41004   1.506  17.758   3.915 -0.2611 -0.2061  0.0268
25388W        W41005  11.989   7.484   1.717 -0.0603  0.1742 -0.1315
25389W        W41006  18.232  18.157   3.971 -0.1787  0.0104  0.0056
25390W        W41007  11.678  14.539   3.967  0.0445 -0.0376 -0.2825
25391W        W41008   6.818  15.089  13.751  0.1536 -0.3775 -0.0146
25392W        W41009  12.911   4.589   4.422  0.1313 -0.0687 -0.1890
25393W        W41010   1.836   6.453   9.965  0.1657 -0.1673 -0.1418
25394W        W41011  16.132   6.821   4.334  0.0406  0.1872 -0.0788
25395W        W41012  13.137   1.263   2.256  0.1285  0.1550  0.0929
25396W        W41013   9.853   5.417  14.063  0.0627  0.2207  0.0943
25397W        W41014   3.028   1.742   3.956 -0.0957  0.3421 -0.0375
25398W        W41015  10.248  15.169  13.138  0.0420  0.2088 -0.2026
25399W        W41016  17.217   7.399   1.179  0.2726  0.0756  0.0222
25400W        W41017   5.170   9.010   1.886 -0.3112 -0.2313  0.1401
25401W        W41018   4.892   5.278  12.785  0.0459  0.2321  0.0197
25402W        W41019  18.268  17.282   2.687  0.3487  0.0907  0.2202
25403W        W41020   9.608  16.266  15.193 -0.1362  0.1104 -0.1688
25404W        W41021   8.540  13.955  13.642  0.1280  0.2071 -0.6459
25405W        W41022  11.180   3.064   0.448 -0.3277 -0.0485 -0.1941
25406W        W41023  17.660  18.522  12.950  0.2446  0.2156 -0.0125
25407W        W41024   9.308  11.223   0.916  0.0958 -0.1802 -0.0554
25408W        W41025  14.848  16.395   0.751 -0.2964  0.2107  0.0605
25409W        W41026  12.818  15.204  14.390 -0.0655 -0.0508 -0.2911
25410W        W41027   3.832  14.171  10.382 -0.3230  0.2087 -0.2562
25411W        W41028  13.797   1.808   4.637  0.1034  0.0902 -0.1339
25412W        W41029  18.501   3.958  15.735 -0.3963 -0.1918 -0.1148
25413W        W41030   6.053  13.223  12.921 -0.1603  0.0803 -0.0449
25414W        W41031   5.232   2.699   5.542 -0.0582  0.0777  0.0261
25415W        W41032  16.578  10.210  12.393  0.3038 -0.4674 -0.2447
25416W        W41033  10.191  17.572  14.201 -0.0087 -0.0916 -0.0959
25417W        W41034  18.409  18.075   0.845 -0.1183 -0.0167 -0.5156
25418W        W41035   4.592  16.892  12.549  0.1334 -0.1885  0.0831
25419W        W41036   9.609  13.935  11.027 -0.0119 -0.3994  0.0957
25420W        W41037   9.779  13.996  14.330  0.0912 -0.0527 -0.0493
25421W        W41038   0.953  10.428   1.278 -0.2803  0.0739  0.3224
25422W        W41039  12.728   8.431   3.844 -0.3282 -0.0930 -0.1092
25423W        W41040   9.465   5.948  12.334 -0.2316  0.0491  0.2019
25424W        W41041   4.339   4.202   5.711 -0.0757 -0.1013  0.2155
25425W        W41042  10.624  10.097   2.256 -0.0668  0.1668 -0.4212
25426W        W41043   5.703   7.972  14.960  0.2750 -0.0498 -0.1527
25427W        W41044  12.986   7.098   5.383 -0.0801  0.1248  0.2124
25428W        W41045   3.906   3.040  12.775 -0.0458  0.1917  0.2374
25429W        W41046  17.870   2.344   5.262 -0.3568  0.0497 -0.2721
25430W        W41047  16.938   3.526   0.018  0.2737  0.1566  0.1289
25431W        W41048  11.145  17.059   6.288  0.0390 -0.1004 -0.0206
25432W        W41049  10.196   2.515  13.326  0.1825  0.0059  0.0193
25433W        W41050  17.738   1.680   1.912  0.0029  0.4808 -0.2271
25434W        W41051   6.944   0.992   0.037  0.0286 -0.0781  0.0958
25435W        W41052  17.056  10.421   5.018  0.1165  0.1107 -0.1328
25436W        W41053   3.149   8.502   1.104  0.1110 -0.1422 -0.1472
25437W        W41054   9.842   1.992  12.646  0.0452  0.1821  0.0089
25438W        W41055   2.223  18.003   1.295 -0.1886 -0.0755  0.0567
25439W        W41056   8.143  15.256  11.299  0.5118  0.0381 -0.0431
25440W        W41057  17.559   0.200  13.884  0.1002  0.4712  0.0189
25441W        W41058   8.124  14.138   1.821  0.0317 -0.0447  0.3255
25442W        W41059   2.410  11.206   2.444  0.0316 -0.2632 -0.1741
25443W        W41060  18.635   9.962  12.328  0.0996 -0.1635 -0.1483
25444W        W41061   4.526  10.201   3.833  0.1443  0.0108 -0.1045
25445W        W41062   7.209   9.552  10.788  0.0921  0.0391 -0.1564
25446W        W41063   3.167  16.542   2.725 -0.0042 -0.0413 -0.0049
25447W        W41064   6.750   3.610   2.347  0.2719  0.2901 -0.1893
25448W        W41065   3.086  10.772  13.536 -0.0818 -0.0953  0.0992
25449W        W41066  11.241  10.191   0.632 -0.0306 -0.1695  0.1533
25450W        W41067  13.648  16.167   3.324  0.1861 -0.1257  0.0490
25451W        W41068   5.515   5.079   3.853 -0.1386 -0.1573 -0.0628
25452W        W41069   8.647   7.718   4.963 -0.0564  0.0023 -0.0700
25453W        W41070  16.278  11.446   2.450 -0.0637  0.1726  0.1797
25454W        W41071   2.021   5.209  11.471 -0.0341  0.0364 -0.1186
25455W        W41072   7.012  13.025   1.008 -0.1190 -0.2373  0.2071
25456W        W41073   3.049  17.712   0.361 -0.2008  0.0089  0.3059
25457W        W41074   1.617  17.015  14.876  0.1442 -0.1415  0.1876
25458W        W41075   2.655   8.983  13.781 -0.1405  0.1726 -0.1634
25459W        W41076  17.460   1.866  14.687 -0.1442  0.0015 -0.1984
25460W        W41077  14.397  16.533   2.028 -0.0519  0.1261 -0.5211
25461W        W41078   0.252  17.937   2.476 -0.0125  0.0648  0.2504
25462W        W41079  16.817  17.336  12.256  0.1561 -0.1113  0.0864
25463W        W41080  11.317   5.306  12.814 -0.0976 -0.1157  0.2226
25464W        W41081  16.975   9.375   0.529 -0.2801 -0.1278  0.0921
25465W        W41082  14.952  12.260  10.754  0.0724  0.0136 -0.1341
25466W        W41083   9.184   0.962   3.424 -0.1812  0.2192  0.1033
25467W        W41084  13.104   9.576  14.993  0.0643 -0.2221 -0.4406
25468W        W41085  16.339   1.925   0.372  0.2439  0.0291  0.2837
25469W        W41086  18.539  11.899  10.434  0.0648 -0.1979  0.2809
25470W        W41087  10.653  18.391   5.028 -0.1183  0.0307 -0.1135
25471W        W41088   9.593   4.413   1.111 -0.0021 -0.0099  0.1319
25472W        W41089  14.291   0.165  15.179  0.1551 -0.1860  0.1273
25473W        W41090   3.832   8.957   4.325  0.0470 -0.3093 -0.0176
25474W        W41091   7.822  15.348  10.399  0.3289 -0.2191  0.2251
25475W        W41092   8.331   8.131  15.616 -0.2213  0.1954 -0.1906
25476W        W41093  18.188  18.254   6.166 -0.0172  0.0572 -0.0674
25477W        W41094   1.291   2.467  12.772 -0.1302  0.0769  0.1419
25478W        W41095  12.276   2.424   1.472 -0.2116  0.1609 -0.1142
25479W        W41096   6.681  15.141   4.278  0.0528 -0.2395  0.2433
25480W        W41097   3.494  12.038  13.095  0.2074  0.1240  0.2142
25481W        W41098   4.806   4.700   2.719  0.1014 -0.0755  0.0822
25482W        W41099   3.921  11.269  10.633 -0.0856  0.3842 -0.2913
25483W        W41100  16.779   7.948   4.239  0.1363  0.0341 -0.2392
25484W        W41101   9.397   1.193   1.974 -0.0875 -0.1074 -0.2883
25485W        W41102  14.681   0.824   0.400  0.1958 -0.1975 -0.0978
25486W        W41103  16.793  12.184   0.579  0.1251 -0.0883 -0.4226
25487W        W41104  18.366   1.161   4.068  0.2210  0.2629 -0.0300
25488W        W41105   4.388   3.631  15.685 -0.0846  0.0447 -0.1457
25489W        W41106   4.881  10.006  15.086 -0.1102  0.2046  0.1775
25490W        W41107  10.737  16.183  11.920 -0.1884 -0.2146 -0.0487
25491W        W41108   1.631   8.051  11.786 -0.1837  0.2211  0.0546
25492W        W41109  13.405  16.794  13.742 -0.1195 -0.0357 -0.0613
25493W        W41110   7.040   9.519   0.313 -0.0295 -0.1269  0.0907
25494W        W41111   3.387  15.313  12.019 -0.3762 -0.2247  0.1452
25495W        W41112   3.497  16.892   0.648  0.3945  0.2108 -0.0658
25496W        W41113   2.571   0.302   5.474  0.1079 -0.2215 -0.2232
25497W        W41114  15.918   1.199  11.614 -0.1579  0.1975 -0.1478
25498W        W41115   6.121   5.144   0.556  0.1152 -0.1703  0.1962
25499W        W41116  17.436   2.359   2.373  0.2694 -0.0908 -0.2199
25500W        W41117  12.045  11.565  15.246 -0.0033  0.1127  0.2340
25501W        W41118   2.367   7.348   1.453  0.1619  0.0716 -0.1768
25502W        W41119  10.425  18.003  14.301  0.0113 -0.1720 -0.0947
25503W        W41120  12.444  14.462  14.258 -0.1599  0.3844 -0.0799
25504W        W41121  10.859  18.455   4.552  0.1893  0.0028 -0.0114
25505W        W41122   6.384  15.752  15.445  0.1847  0.2491 -0.1951
25506W        W41123   9.789  17.632  13.339 -0.1000 -0.3028 -0.0481
25507W        W41124   4.329   1.387   3.959 -0.1736 -0.0498 -0.3168
25508W        W41125  15.259  14.291  14.102 -0.0000 -0.2361 -0.0773
25509W        W41126   1.780   2.003   3.588 -0.3525 -0.1842 -0.0142
25510W        W41127   5.518   6.679   2.074  0.0422  0.1063 -0.2572
25511W        W41128   6.399  12.957   4.495 -0.1141 -0.5441 -0.2354
25512W        W41129  17.858   4.940  15.137 -0.0166 -0.1128 -0.2073
25513W        W41130  15.344  12.330   3.110 -0.2896  0.2814  0.0556
25514W        W41131  16.981   9.853  12.321 -0.3687  0.1669 -0.0448
25515W        W41132   9.847  18.505   4.007 -0.0739  0.1778 -0.1105
25516W        W41133  15.651   5.727  12.402  0.0541  0.0441 -0.0927
25517W        W41134  10.307  13.568  13.114  0.0745 -0.0551  0.3325
25518W        W41135   1.475   4.496  11.914  0.0013  0.3416 -0.2541
25519W        W41136  17.483  15.858   5.694 -0.0086  0.0141 -0.0631
25520W        W41137  13.774   0.814   0.005 -0.1760 -0.1469  0.2689
25521W        W41138   9.905   1.608  14.270  0.3632  0.2007  0.1317
25522W        W41139  15.768   7.045   1.499 -0.1490 -0.4017 -0.0720
25523W        W41140   6.668   5.281   0.965 -0.2775  0.0602 -0.0264
25524W        W41141   6.923   1.730  13.113 -0.0327 -0.2013 -0.2086
25525W        W41142  14.248   2.976  15.440  0.1250 -0.1141 -0.2134
25526W        W41143  15.545  14.997  11.399 -0.0270 -0.1068  0.1025
25527W        W41144  13.769   9.731   4.646 -0.0875 -0.1680 -0.2630
25528W        W41145   5.095   3.234   1.465  0.2988  0.1407 -0.2389
25529W        W41146   8.870  17.623   0.929  0.1058  0.1348  0.1027
25530W        W41147  15.248   8.253   0.934  0.1530  0.0394  0.1837
25531W        W41148   4.406  12.840   3.176  0.3575  0.0613 -0.2639
25532W        W41149  13.941  11.300   1.360  0.0435 -0.1072  0.2062
25533W        W41150  14.506   2.987  14.899 -0.0798 -0.1538 -0.0437
25534W        W41151   1.823  10.281   3.341  0.2586  0.3321 -0.3087
25535W        W41152  18.108  16.567   0.865 -0.1906  0.0371  0.3129
25536W        W41153   6.385   5.023   0.093  0.2013 -0.1958  0.1035
25537W        W41154   4.870   0.634   4.458  0.1731  0.1202  0.0923
25538W        W41155   3.945  11.968   3.454 -0.0152  0.2504  0.0355
25539W        W41156  10.773  14.586   0.305 -0.0572 -0.0335 -0.0084
25540W        W41157  10.700   2.593  14.194 -0.0644 -0.0926  0.0162
25541W        W41158  16.176   4.716   4.697  0.1414 -0.0806 -0.1915
25542W        W41159   1.085  12.655  11.308 -0.1459 -0.0386 -0.2910
25543W        W41160  12.310  11.754  12.181  0.1447  0.3510  0.3412
25544W        W41161  18.046   7.740  15.736 -0.2066 -0.0166  0.2098
25545W        W41162   6.200  10.114   1.303  0.0723  0.2863  0.2099
25546W        W41163   1.305   0.069  14.139 -0.2660  0.0860  0.0849
25547W        W41164   3.444   9.961   0.465  0.1073 -0.0612  0.0635
25548W        W41165   7.444   2.602  14.293  0.0207 -0.0428  0.3310
25549W        W41166  18.270   5.688   4.343 -0.0004  0.2401 -0.0240
25550W        W41167   7.205   9.376   1.933  0.1969  0.0745 -0.1307
25551W        W41168   0.129  16.336   3.528  0.0729 -0.0724  0.2184
25552W        W41169   3.553   4.676   5.786 -0.0389 -0.1444  0.2259
25553W        W41170   1.196   4.108   2.310 -0.2144 -0.1128 -0.1198
25554W        W41171   4.115  18.609   1.667 -0.0114 -0.1065 -0.0262
25555W        W41172   2.749   1.574  11.235  0.1217  0.0407  0.2028
25556W        W41173  17.365  15.803   0.709 -0.2735  0.1524 -0.1868
25557W        W41174   9.128   0.179  12.123 -0.1581 -0.0910 -0.0266
25558W        W41175   4.428   3.406  15.174 -0.0515 -0.2284 -0.0542
25559W        W41176   3.459   1.900  13.207 -0.2230  0.1084  0.0053
25560W        W41177   5.453  14.137   0.924 -0.0036 -0.3540  0.1379
25561W        W41178   1.540  16.727  13.332 -0.0738 -0.1811 -0.1940
25562W        W41179  11.681  11.135   0.971 -0.1845  0.2586 -0.5171
25563W        W41180  12.955   8.962   5.604 -0.1029  0.1540 -0.1526
25564W        W41181  14.699   6.439   4.687  0.0249 -0.2687 -0.1408
25565W        W41182  13.862   6.507   0.576  0.1474 -0.0041  0.2101
25566W        W41183   0.048   5.725  11.666 -0.0438  0.2459 -0.2749
25567W        W41184  14.601   1.837  15.516 -0.1054  0.1789  0.1263
25568W        W41185   2.032   5.479   2.537 -0.1477  0.1276  0.5921
25569W        W41186   3.458  13.465  14.984 -0.4798 -0.0530  0.0097
25570W        W41187   8.273   1.471  12.121  0.0779 -0.2624  0.0628
25571W        W41188   7.994  14.579  11.714 -0.3831  0.2797  0.2762
25572W        W41189   0.118  12.333  15.357 -0.1266 -0.2392 -0.4298
25573W        W41190  17.489   4.457   2.830  0.3539 -0.0461  0.1601
25574W        W41191  11.040   1.222   4.236 -0.2653  0.0171  0.3156
25575W        W41192  10.415  17.197   3.853  0.1934 -0.1864 -0.2547
25576W        W41193  15.924   2.895  11.465 -0.3085  0.0176  0.0309
25577W        W41194  18.592  17.592   2.393  0.1551  0.1625 -0.1051
25578W        W41195  15.784  14.589   2.785  0.2974 -0.3688 -0.1288
25579W        W41196  12.784   4.997   3.585 -0.0442  0.3115  0.0792
25580W        W41197   9.684  12.934  12.479 -0.1012  0.2100 -0.0432
25581W        W41198   0.850   5.177  11.423 -0.1178  0.0402 -0.0153
25582W        W41199   1.745   5.475   3.438  0.0659 -0.3358 -0.1219
25583W        W41200  16.333  16.806   4.308  0.2144  0.2919 -0.0207
25584W        W41201   4.454   0.510   5.442 -0.5296 -0.1180  0.3509
25585W        W41202   9.290  14.052  12.031 -0.2491 -0.1373 -0.2719
25586W        W41203  16.229   3.400  12.791  0.0620 -0.1724 -0.1508
25587W        W41204  17.094  18.098  12.000 -0.2385  0.6099  0.0234
25588W        W41205   1.154   7.836   3.397 -0.0467 -0.0282  0.0945
25589W        W41206   3.353   0.035   3.992 -0.0299  0.1673  0.3670
25590W        W41207  15.681   5.439   4.973 -0.0056  0.0155 -0.0069
25591W        W41208   7.598  12.398  14.502 -0.0234  0.3248  0.0397
25592W        W41209   1.673  14.181  13.612 -0.1224  0.2048 -0.2616
25593W        W41210  13.053  11.765   0.718 -0.1179 -0.1363  0.1117
25594W        W41211   8.549  11.555   3.223  0.1935 -0.2197 -0.0611
25595W        W41212   9.343   4.153  12.994  0.0283  0.0265 -0.2883
25596W        W41213   1.852   8.970  13.473 -0.2518 -0.0991  0.0827
25597W        W41214   9.876   2.144   5.672  0.0210  0.0667 -0.1762
25598W        W41215   6.237   1.348   4.770  0.2425 -0.2437 -0.1851
25599W        W41216   3.249   4.737   2.203  0.0174 -0.0423 -0.1248
25600W        W41217   2.947   6.272  10.634 -0.0868  0.0541  0.1103
25601W        W41218   8.264   2.188   5.256  0.1760 -0.0159  0.1556
25602W        W41219  11.648  12.608   4.283  0.0183 -0.2473 -0.0343
25603W        W41220  12.260  10.454  12.379 -0.3426 -0.1062 -0.1280
25604W        W41221   8.582  17.572  13.359 -0.1807 -0.2556  0.1171
25605W        W41222  16.158   0.375  12.687 -0.2064 -0.0023  0.2761
25606W        W41223   2.160  17.149  11.595  0.2083 -0.1297 -0.0074
25607W        W41224  16.549   5.733   3.567  0.0978 -0.0133 -0.0972
25608W        W41225   9.561   9.062  11.988  0.1530 -0.0677  0.2100
25609W        W41226  11.124  10.703   1.922  0.1146  0.4682 -0.1491
25610W        W41227  16.360   5.105  12.758  0.4618 -0.0387  0.0072
25611W        W41228   4.682   9.920  11.519 -0.1539  0.3404 -0.3037
25612W        W41229  11.542  11.348   1.838  0.0258 -0.0753 -0.0493
25613W        W41230   5.185  10.406   2.192 -0.1263  0.0097 -0.1047
25614W        W41231   9.633   6.102   0.470 -0.0337  0.0121  0.0076
25615W        W41232  18.142  10.997  13.259  0.3022 -0.0140  0.0747
25616W        W41233   0.028   9.672   0.244 -0.0455  0.0503 -0.1251
25617W        W41234   5.173   5.188  13.261 -0.0753 -0.1242 -0.0617
25618W        W41235  13.959  16.804  15.459 -0.2219  0.0662  0.1686
25619W        W41236  13.597   3.928  12.818  0.1122  0.2841  0.1533
25620W        W41237  13.525   1.889  15.497 -0.0922  0.1821  0.2301
25621W        W41238  14.154  14.786   2.072 -0.2862 -0.0858  0.0639
25622W        W41239   5.689  10.615  14.338 -0.2748  0.2963 -0.0723
25623W        W41240  11.324  17.857  12.308  0.0796  0.3319  0.1557
25624W        W41241   4.162  15.804  14.502 -0.3607  0.0765 -0.1521
25625W        W41242  13.070  16.174  10.207 -0.1119 -0.1228 -0.2343
25626W        W41243   0.687  15.872  13.827 -0.0499 -0.1604  0.1584
25627W        W41244  18.308  12.002  13.843  0.3913 -0.1471 -0.0221
25628W        W41245   8.548  16.249  10.954  0.3148 -0.0867 -0.1336
25629W        W41246   6.250  16.695  12.537 -0.1737  0.2483  0.0562
25630W        W41247   3.487  13.334   3.355  0.0605  0.0386  0.1392
25631W        W41248   3.958  12.248  13.103 -0.0364 -0.0725 -0.0036
25632W        W41249   8.633   2.415   5.876  0.2635  0.2623  0.2640
25633W        W41250   2.482  14.498   1.031 -0.1074 -0.2695  0.2024
25634W        W41251   0.494   7.061  15.783 -0.0032  0.0833  0.2030
25635W        W41252   0.665   5.261   4.211 -0.0767 -0.0030  0.0229
25636W        W41253   9.874  17.150   4.784 -0.0669 -0.2076 -0.0047
25637W        W41254  11.582   1.461  11.354  0.0351  0.1468 -0.2153
25638W        W41255   3.837   4.336   4.317 -0.2350 -0.1576 -0.0903
25639W        W41256   2.462  17.544  12.747  0.2525 -0.2540  0.0233
25640W        W41257   9.175  12.238   5.584 -0.3025 -0.2794  0.1675
25641W        W41258  16.096  12.359  11.614  0.1225  0.2785 -0.3458
25642W        W41259  15.625   9.958  12.282  0.3187  0.0608 -0.1070
25643W        W41260  11.891   8.575   0.676  0.0643  0.2538 -0.0642
25644W        W41261  10.658  15.734   0.185  0.0098 -0.1865  0.1068
25645W        W41262   2.413   3.409  13.346  0.0521  0.0411  0.0232
25646W        W41263  15.840  11.587  13.562  0.0348  0.1863  0.1033
25647W        W41264   0.742  17.093   1.820  0.0826  0.1515  0.0216
25648W        W41265   5.525   2.081   4.210  0.0156 -0.0306  0.1482
25649W        W41266   2.072   8.120  12.179  0.0944 -0.3595  0.2475
25650W        W41267   5.314   4.443  11.817 -0.1569  0.1145  0.4353
25651W        W41268   6.176  17.318   1.329 -0.2468 -0.0471 -0.2647
25652W        W41269  13.262   6.996  14.965  0.0855  0.0332 -0.1991
25653W        W41270  15.473   0.960  10.819 -0.0081 -0.1459  0.0938
25654W        W41271   1.301  12.769  10.903  0.1369  0.2873  0.1275
25655W        W41272  16.699   1.752   2.423  0.0211 -0.0210 -0.2222
25656W        W41273  11.400   0.157  13.927 -0.3281 -0.1568 -0.1876
25657W        W41274  12.952   9.904  12.881  0.1125 -0.1924  0.1418
25658W        W41275   8.406   8.776   2.269  0.0119 -0.0915 -0.2947
25659W        W41276   7.073  12.246   2.346 -0.1816  0.3633  0.1961
25660W        W41277  10.369  16.584   3.100  0.0038 -0.0876 -0.2127
25661W        W41278  11.536   7.603  11.815 -0.1824 -0.1229 -0.2953
25662W        W41279   5.641  16.561  10.025  0.0331 -0.0248 -0.0967
25663W        W41280   4.754   6.780  11.479  0.0912 -0.0587 -0.0985
25664W        W41281  15.126   9.944   5.503  0.0535  0.1566  0.1086
25665W        W41282   7.817  14.791   2.941 -0.0696  0.0148 -0.0418
25666W        W41283   4.838  10.469  10.193 -0.0139 -0.1489  0.0537
25667W        W41284   6.944  15.212  12.300  0.0839 -0.0835 -0.1449
25668W        W41285   7.261   3.396   3.689 -0.1419  0.0759  0.3608
25669W        W41286   1.251  15.906  14.053 -0.4487 -0.4071  0.1692
25670W        W41287   2.721   8.038  14.743  0.2061  0.2785  0.0656
25671W        W41288   3.930   0.963  12.085 -0.0041  0.2053  0.0730
25672W        W41289   1.363   0.050   4.179 -0.0778 -0.0038  0.1992
25673W        W41290  15.755  17.261   4.759 -0.0097 -0.0026 -0.3673
25674W        W41291   6.625  17.646  12.734 -0.0235  0.0419 -0.2184
25675W        W41292   3.322  17.305   1.779 -0.3504  0.0881  0.0614
25676W        W41293  12.154   9.035  10.863 -0.2771  0.1853  0.0601
25677W        W41294  13.106  18.281   0.195  0.2315 -0.3849 -0.0469
25678W        W41295  16.705   1.536  14.427  0.0580 -0.0023 -0.1032
25679W        W41296   4.595  11.118   4.081  0.0667  0.1238  0.0373
25680W        W41297  11.996  16.621   1.454  0.1248 -0.1018  0.2643
25681W        W41298   7.433   2.192  13.964  0.2521 -0.0437  0.0448
25682W        W41299  11.011  11.543   3.902  0.0698 -0.1925 -0.1314
25683W        W41300  13.952   7.595   0.369  0.1206 -0.0403 -0.0364
25684W        W41301  16.684  18.058   0.531 -0.0576  0.2655 -0.1151
25685W        W41302   8.383   8.373  12.642 -0.0775 -0.3675 -0.1322
25686W        W41303   7.583  11.390   1.302  0.0442  0.1937 -0.1278
25687W        W41304   8.638  13.933   4.513  0.0981 -0.1614  0.0481
25688W        W41305   5.808  16.576  11.626  0.1922  0.0504  0.2446
25689W        W41306  12.336  17.715   0.696 -0.1496 -0.1639 -0.1264
25690W        W41307   9.626   3.103  15.624  0.1957 -0.1083 -0.2773
25691W        W41308   8.243   6.552   0.703  0.0715  0.0331 -0.1650
25692W        W41309  13.072   0.688  12.842 -0.2152  0.0764  0.1638
25693W        W41310  12.547   9.006   0.606 -0.2152 -0.2484 -0.3029
25694W        W41311   0.561   6.027  14.939 -0.1271 -0.2543  0.2609
25695W        W41312  17.744  10.049   1.075 -0.0243  0.0243  0.1502
25696W        W41313  14.228  15.999   1.860  0.1832  0.1261 -0.3565
25697W        W41314  10.179   7.292  10.688 -0.1419  0.0590 -0.3243
25698W        W41315   0.987  14.164   0.425 -0.0022 -0.4159 -0.1162
25699W        W41316  15.612  18.499  11.943  0.2268  0.0279  0.2628
25700W        W41317   2.576  10.617  13.461 -0.0920 -0.1866  0.3447
25701W        W41318   6.394   0.834  14.136  0.0293 -0.3887 -0.0801
25702W        W41319   1.925   1.590   2.957 -0.3017  0.2123 -0.3181
25703W        W41320   6.121  15.123   1.642 -0.4119  0.2641  0.0612
25704W        W41321  10.575  16.286  11.444 -0.3647  0.0633  0.0126
25705W        W41322   1.678  11.347  11.655 -0.0720 -0.1770  0.0985
25706W        W41323  18.065   6.858   1.051 -0.2569  0.0682 -0.2438
25707W        W41324   4.162   9.238   2.690 -0.0835  0.2963 -0.1687
25708W        W41325   0.948   6.657  11.999  0.0630  0.2322 -0.1892
25709W        W41326   1.135   2.250  11.671  0.0276 -0.0710 -0.1438
25710W        W41327   4.857   0.702   1.190  0.0629  0.2547 -0.3240
25711W        W41328   8.534  16.000   1.701  0.0272 -0.6370 -0.1530
25712W        W41329  16.390   9.478  11.111  0.3075  0.3694  0.2818
25713W        W41330   7.254  16.912   0.692  0.2231 -0.1018 -0.0308
25714W        W41331  10.629  11.382  10.961  0.1157 -0.0403  0.0084
25715W        W41332   9.844   8.218  13.593 -0.2741  0.1172 -0.1613
25716W        W41333   7.441   8.621  15.559 -0.0512 -0.1250  0.4887
25717W        W41334   1.408   9.840   1.553  0.2196 -0.4181 -0.2175
25718W        W41335  14.115  14.658  13.930  0.0801  0.1904 -0.1274
25719W        W41336  10.287  11.405  14.213  0.0752 -0.3354  0.1155
25720W        W41337   7.211  11.704   3.288  0.1601  0.1046 -0.0497
25721W        W41338  13.280   3.749   6.106  0.3493 -0.0078 -0.0408
25722W        W41339   0.820   3.828   4.325 -0.0708  0.0063 -0.0637
25723W        W41340  16.546  14.976  13.084  0.3333 -0.0158  0.2088
25724W        W41341  12.504  17.152   4.864 -0.1565  0.0826 -0.2488
25725W        W41342  17.242  16.344   0.088  0.1885 -0.3353  0.0413
25726W        W41343   2.277   6.304   2.936 -0.1894 -0.0137 -0.3989
25727W        W41344   2.359  11.889   4.067 -0.1533 -0.0399  0.0470
25728W        W41345   2.863  13.709  11.456  0.2515  0.3091 -0.2408
25729W        W41346   7.232   8.386   1.821  0.1473  0.0708  0.0823
25730W        W41347   6.230   9.585   4.279 -0.0458 -0.1856  0.1090
25731W        W41348   1.694   0.969  15.758 -0.2670  0.0027 -0.1309
25732W        W41349  12.090   6.200   4.947 -0.0573  0.0307  0.1529
25733W        W41350   3.360  15.156   0.396 -0.2509  0.1899  0.1584
25734W        W41351   2.346   8.625   3.893 -0.0028 -0.1973  0.1268
25735W        W41352   2.125   2.950  15.241  0.0529  0.0893  0.0504
25736W        W41353   3.713  15.037  11.057  0.1372 -0.1734  0.0971
25737W        W41354   9.571   8.840  15.084  0.0722 -0.1596  0.2610
25738W        W41355  12.353   6.613  11.794  0.1413  0.1292  0.1926
25739W        W41356  13.257  17.601   4.287 -0.1260  0.1460  0.1659
25740W        W41357  14.390   3.825   1.985  0.0242  0.4110  0.0594
25741W        W41358   7.810   9.540  12.435  0.1297  0.3649  0.0061
25742W        W41359   2.126  12.985  10.969  0.1606 -0.1581  0.0952
25743W        W41360  14.012  12.716  11.369 -0.0313 -0.0653 -0.2907
25744W        W41361  10.698   4.390   0.073 -0.0641 -0.1626 -0.1222
25745W        W41362  13.968   0.108  12.408  0.0636  0.3186  0.0590
25746W        W41363   5.571  15.226   2.310 -0.2011 -0.1421 -0.0583
25747W        W41364  14.971   3.908   0.192  0.3651 -0.1736  0.1127
25748W        W41365  17.233  14.779  10.816 -0.0350  0.2965  0.1399
25749W        W41366  16.742   3.214   4.860 -0.2396 -0.2827  0.3233
25750W        W41367   7.356  10.361   2.160 -0.3478 -0.1674 -0.0992
25751W        W41368   7.425   2.112   3.964 -0.1862  0.0093  0.2216
25752W        W41369  11.558   2.493  11.394 -0.0571  0.0063  0.0720
25753W        W41370   3.687  12.573  15.431 -0.3880 -0.0341 -0.3052
25754W        W41371   4.688  15.991   4.056  0.4987 -0.0925  0.3275
25755W        W41372  15.639  13.597   1.865  0.4569  0.3053 -0.1187
25756W        W41373   2.487  12.682   1.469 -0.2624  0.0390  0.1343
25757W        W41374  14.625   7.280  10.344  0.0530 -0.1459  0.0650
25758W        W41375   8.757  12.500   4.163 -0.0361  0.0811 -0.3884
25759W        W41376  18.214   9.281  14.515 -0.2420 -0.0917  0.1252
25760W        W41377   3.449  15.424  13.832 -0.1111  0.4019  0.0458
25761W        W41378   8.875  12.670  11.399  0.0052 -0.2281  0.1579
25762W        W41379  15.782   9.770   3.396 -0.1936 -0.0229 -0.1718
25763W        W41380  13.850   0.148   1.676 -0.0444 -0.3420  0.1448
25764W        W41381  15.281   4.947  11.345 -0.1258  0.0157 -0.4115
25765W        W41382   9.728   4.712   0.176 -0.1427 -0.2025  0.0904
25766W        W41383  10.612  17.180  15.600 -0.0225 -0.0552 -0.1053
25767W        W41384   6.430   3.058   3.765  0.0838 -0.1533 -0.3299
25768W        W41385   5.938   9.471  14.202  0.0476  0.0362  0.0231
25769W        W41386  12.054   9.281   1.304  0.0304  0.0102 -0.2455
25770W        W41387  15.982  11.430   5.345  0.2944  0.0107 -0.1269
25771W        W41388   1.468   0.689  11.739  0.2477  0.0261 -0.0910
25772W        W41389  17.476   7.853   1.405 -0.0315  0.1553  0.0648
25773W        W41390  10.114   3.765   1.102  0.4094 -0.0467  0.3112
25774W        W41391  12.380  18.291  13.112 -0.0358 -0.0308  0.0382
25775W        W41392   8.343   9.419   2.658 -0.3127  0.4527  0.1966
25776W        W41393  10.191   5.197  15.401 -0.0310  0.0206  0.2052
25777W        W41394  11.285  13.057   4.264  0.1635  0.3128 -0.1780
25778W        W41395  18.504  12.859  14.491 -0.1978 -0.1163  0.0313
25779W        W41396   0.175   3.331   4.981 -0.0990 -0.3700  0.2294
25780W        W41397   0.484   4.988  11.156 -0.0304  0.3327  0.1234
25781W        W41398   3.975  15.456   1.779 -0.0164  0.1476 -0.1593
25782W        W41399  12.202  12.410   4.473  0.2780 -0.3055  0.3419
25783W        W41400  13.837  15.338  14.631 -0.0900 -0.0541  0.1873
25784W        W41401   8.973  11.234  12.397 -0.2035  0.0758 -0.2646
25785W        W41402   4.684   3.204   4.550  0.0408  0.4095  0.1293
25786W        W41403  13.138   8.212   0.262 -0.0777  0.0669 -0.1635
25787W        W41404   6.745   6.818   2.502  0.1312 -0.0472 -0.1673
25788W        W41405   1.700  13.645   1.566 -0.1606 -0.1634 -0.2046
25789W        W41406   3.909  14.431  11.084  0.0155  0.0659  0.0746
25790W        W41407  13.682  13.345  11.995  0.1993 -0.0643  0.2788
25791W        W41408   9.604  11.185   2.284  0.1778 -0.2389 -0.0434
25792W        W41409   7.194  12.253   0.949 -0.1856 -0.0492  0.0297
25793W        W41410  15.452   5.340  12.199  0.0973 -0.2145  0.3611
25794W        W41411  10.590   5.867  14.804  0.1965 -0.1653 -0.0246
25795W        W41412   2.119  12.611  13.021 -0.0285  0.2489 -0.3052
25796W        W41413  13.876  13.153   3.234  0.2987  0.2814 -0.0449
25797W        W41414  17.889  13.528   2.478  0.0592 -0.0219  0.1029
25798W        W41415   1.640   3.954   1.725 -0.0167  0.3046  0.0734
25799W        W41416   7.565  14.123  12.861  0.1034  0.1665 -0.0856
25800W        W41417   8.571   0.856  13.688 -0.1359  0.1191  0.0276
25801W        W41418   2.344   9.337   5.092 -0.2078  0.1108 -0.0345
25802W        W41419   2.270  15.096  10.490 -0.1208 -0.1415  0.0268
25803W        W41420   5.055  16.138  10.602  0.3256  0.0703  0.1997
25804W        W41421  18.526  14.325  15.083 -0.2465 -0.1210  0.1371
25805W        W41422   6.192   7.521   2.251  0.2602 -0.0646  0.0700
25806W        W41423   1.975  12.625   0.154  0.1276 -0.1776  0.2154
25807W        W41424  11.372   1.685   1.720  0.2345  0.3180  0.0504
25808W        W41425   3.065  12.452  10.732 -0.3206 -0.0226 -0.1141
25809W        W41426  14.703   1.569   3.008 -0.1019 -0.0926  0.3964
25810W        W41427  10.520   0.668   5.542  0.3213 -0.3484  0.1509
25811W        W41428   7.118  15.362  12.746 -0.0251 -0.0408 -0.2534
25812W        W41429   8.350  14.136  11.725 -0.1625  0.2620 -0.0531
25813W        W41430  14.952   6.065   4.973  0.0792  0.2651  0.0417
25814W        W41431   9.552   7.204  13.120  0.0346  0.0981 -0.1825
25815W        W41432  15.538   7.440  12.303  0.2349 -0.0076 -0.0964
25816W        W41433  12.456   0.609   4.615  0.5801  0.1635 -0.2794
25817W        W41434   5.662  11.339   3.217  0.0638 -0.0366 -0.1751
25818W        W41435  18.313   7.146  13.673  0.2078 -0.0242  0.0076
25819W        W41436  12.358  18.028   0.114 -0.2059  0.3144 -0.0112
25820W        W41437  16.079  10.551   9.205 -0.1324 -0.2848 -0.3099
25821W        W41438   2.472   1.527  11.743 -0.3426  0.2765  0.0942
25822W        W41439   3.566  16.602  12.618 -0.1567 -0.1222  0.0022
25823W        W41440  11.877   9.852  14.898 -0.2115  0.2650 -0.2014
25824W        W41441   5.549   2.783  12.393  0.1068 -0.0234  0.0688
25825W        W41442   4.855   4.676   0.486 -0.1000 -0.3757  0.0010
25826W        W41443  16.324   1.218   5.012  0.1534  0.4306  0.0286
25827W        W41444   8.464   2.644   3.782 -0.1594  0.3010  0.1909
25828W        W41445  16.844  11.697  10.791  0.1194 -0.1539 -0.0726
25829W        W41446   2.463   1.973   0.788  0.0638  0.1517  0.0006
25830W        W41447  13.829  15.978   4.748 -0.0457 -0.0923  0.2103
25831W        W41448  17.554   4.430  13.242 -0.1427  0.0033 -0.1933
25832W        W41449   8.916   4.625   2.280  0.3076 -0.0067 -0.0205
25833W        W41450  18.036   2.768   1.059  0.2216  0.1041  0.1872
25834W        W41451  15.740   7.670  11.913  0.1565  0.1524  0.0362
25835W        W41452   0.214  16.163   0.632 -0.1460  0.1297  0.6031
25836W        W41453  14.816   0.714   5.749 -0.0535 -0.0109 -0.0178
25837W        W41454   0.767  10.297   9.968 -0.0531 -0.0698 -0.0263
25838W        W41455  13.714   4.774  12.998 -0.2155  0.3139  0.2139
25839W        W41456   0.718  15.575  14.242  0.2332  0.2859 -0.0600
25840W        W41457  10.089  14.834  14.727  0.1698 -0.1840  0.0815
25841W        W41458  12.906  11.800   4.633 -0.2069  0.0747  0.0232
25842W        W41459  10.227   7.795   3.652  0.1509 -0.1130 -0.0228
25843W        W41460   5.968   4.960  11.780  0.1242 -0.2373  0.0023
25844W        W41461   1.215  10.073   2.620  0.3119 -0.1020 -0.2203
25845W        W41462   9.517   5.196   4.070  0.3484 -0.0640 -0.1186
25846W        W41463  15.465  10.023  11.837  0.0924 -0.1856  0.1046
25847W        W41464  11.646   9.093   1.987 -0.0651 -0.1929 -0.3865
25848W        W41465   7.467   2.389  11.521 -0.0252 -0.1886  0.0686
25849W        W41466  11.581   6.921  11.340  0.1132 -0.0747 -0.2251
25850W        W41467  16.786  14.497   0.263  0.0324 -0.0578 -0.1487
25851W        W41468  15.783  10.651   3.947 -0.1248  0.0903  0.1249
25852W        W41469  15.073  13.477   2.519 -0.0909 -0.0799  0.0080
25853W        W41470  15.593  12.295  14.082  0.0930 -0.1923  0.1348
25854W        W41471  11.142  14.530   2.182 -0.0404  0.4657  0.0317
25855W        W41472   8.074   8.458   0.108  0.0161 -0.1087 -0.1748
25856W        W41473   1.214  14.482   1.401  0.0220  0.1533  0.0766
25857W        W41474   6.450  12.800   2.572  0.0996 -0.3402 -0.1280
25858W        W41475   9.419   4.166   1.682  0.0411 -0.4140  0.1675
25859W        W41476   5.875   7.187  12.826  0.1846  0.1390 -0.3312
25860W        W41477   4.226  13.264  13.262  0.0571  0.0606 -0.0811
25861W        W41478  15.667   7.289   2.361 -0.3310  0.1980 -0.1221
25862W        W41479   7.628  15.222   3.760  0.3290  0.2090  0.0821
25863W        W41480  18.129  11.952   3.978  0.1939  0.1957 -0.0234
25864W        W41481  10.979   6.417   4.317 -0.1008  0.1043 -0.0845
25865W        W41482   2.539   3.470  11.115  0.1154  0.0203  0.0792
25866W        W41483   3.617  14.926   4.059 -0.0586  0.0710 -0.1860
25867W        W41484   7.935  18.379  10.849  0.2218 -0.0399 -0.0924
25868W        W41485   6.489  17.378  11.358 -0.0140  0.1580 -0.1126
25869W        W41486   5.478   9.418   6.097 -0.0018  0.2210  0.3079
25870W        W41487   1.206   4.744   4.959  0.0825  0.0771 -0.1884
25871W        W41488  13.707  14.671   3.928 -0.3162 -0.1517 -0.1485
25872W        W41489   8.257   3.083  10.157 -0.0368 -0.1775 -0.0928
25873W        W41490  15.546   5.857  15.334 -0.0577  0.1107  0.1341
25874W        W41491  17.959   0.896  12.776  0.0347 -0.2792  0.1762
25875W        W41492   3.482  12.151  15.256 -0.1300  0.0658 -0.2850
25876W        W41493  13.130  17.633  12.707 -0.1449  0.2417  0.0300
25877W        W41494  14.000  13.004  12.270  0.0339  0.2639  0.0177
25878W        W41495   9.575   8.799   0.075  0.1010  0.1217 -0.2566
25879W        W41496  10.675  10.899  13.159  0.2387 -0.2517  0.2380
25880W        W41497   0.761  13.972  11.023  0.1593 -0.1314  0.2629
25881W        W41498  10.127   6.099  13.497 -0.0448 -0.1661 -0.2931
25882W        W41499   0.716   1.040   0.582 -0.0636  0.1896 -0.0333
25883W        W41500   9.524   2.126  14.078  0.1488 -0.2337  0.0329
25884W        W41501   8.089   7.956   2.519  0.2114 -0.0958 -0.4194
25885W        W41502   2.504   4.752  12.888  0.1496  0.0962 -0.0515
25886W        W41503  15.935  12.743   0.413 -0.0271  0.0228 -0.0673
25887W        W41504   5.010   7.123   1.550 -0.0357 -0.0181  0.0523
25888W        W41505  16.593  10.555  11.689  0.0582  0.1006 -0.0092
25889W        W41506   9.325  11.011   3.389  0.0397 -0.0231  0.0101
25890W        W41507   8.205   8.897  15.779  0.1624 -0.0149  0.1937
25891W        W41508  10.412   0.048  11.744 -0.0115 -0.1215  0.1782
25892W        W41509  13.354  11.419   2.087  0.1366 -0.1065  0.3602
25893W        W41510   9.909  14.243   2.387 -0.2175  0.0282  0.0281
25894W        W41511   8.566   6.208   0.382 -0.0982 -0.1279 -0.0948
25895W        W41512   0.523  17.956  12.345  0.3397  0.3330 -0.0841
25896W        W41513  13.003  17.513  14.406 -0.2374  0.2335 -0.1554
25897W        W41514  12.420   1.999   0.360 -0.4536 -0.1056 -0.2909
25898W        W41515   1.948   8.981   9.460 -0.1135 -0.2748 -0.0662
25899W        W41516  10.684   6.966  12.363 -0.1394  0.0432  0.0756
25900W        W41517   5.452  18.567  15.779  0.1394  0.2421 -0.1795
25901W        W41518  12.773  15.685  14.392  0.0566 -0.0679 -0.3167
25902W        W41519   0.287   0.003  13.731 -0.0605 -0.0204  0.1010
25903W        W41520   9.730  18.644  12.273  0.1492  0.3387  0.2738
25904W        W41521  11.751  13.041   2.515  0.4141 -0.1018  0.0599
25905W        W41522   7.975   0.812  11.432 -0.1150 -0.4390  0.2841
25906W        W41523  14.551  13.917   3.078 -0.1044  0.1678  0.0279
25907W        W41524   3.050  18.510  13.569  0.3961  0.3526 -0.0259
25908W        W41525   8.934   8.789  15.117  0.1084 -0.0562  0.3156
25909W        W41526   9.601  16.026  12.522  0.0984  0.0311  0.0112
25910W        W41527   8.359   4.532  11.513  0.0211  0.0477  0.0067
25911W        W41528   5.211   8.540  13.331 -0.0742 -0.0293  0.0676
25912W        W41529   5.111   7.092   0.050  0.3399  0.0999 -0.0947
25913W        W41530   7.974   1.496  15.260 -0.2528  0.0588 -0.2547
25914W        W41531  14.988   3.850  12.200  0.2475 -0.1782 -0.2551
25915W        W41532   6.945   3.855  14.887  0.3019  0.0278 -0.1725
25916W        W41533  17.747   0.612  12.137 -0.0297 -0.1582 -0.0561
25917W        W41534  15.889  13.810   2.665 -0.0738  0.1129 -0.0410
25918W        W41535  13.447   1.739   6.115 -0.3521  0.1119 -0.2798
25919W        W41536   8.388   2.397  13.452 -0.2219 -0.3434 -0.3444
25920W        W41537   1.100  15.528  12.964  0.1008 -0.1583  0.2291
25921W        W41538  11.468  13.323  12.699  0.0986  0.2234  0.0120
25922W        W41539   8.186   9.688   1.312  0.0179 -0.0107 -0.2813
25923W        W41540   9.113   3.167   2.792  0.1641 -0.2559  0.2118
25924W        W41541   7.546  17.068   0.223 -0.2312 -0.2073  0.2087
25925W        W41542   9.463  11.639   1.241  0.0168 -0.1297 -0.0024
25926W        W41543  13.538  12.976   2.540 -0.0491  0.2667  0.1697
25927W        W41544  13.927  10.340   4.726  0.1506 -0.2396 -0.1186
25928W        W41545   5.866   8.579   5.943 -0.1695  0.2479 -0.1142
25929W        W41546  13.378   9.230   0.191  0.1765  0.0065  0.0985
25930W        W41547   7.030   2.025  13.498 -0.0999 -0.1924 -0.1192
25931W        W41548   5.099  16.305   3.888 -0.1436  0.1651  0.1337
25932W        W41549  11.319   7.856  13.389 -0.0647  0.1469 -0.3734
25933W        W41550   8.040   4.037   4.115 -0.2552 -0.1598  0.0500
25934W        W41551  17.562   8.419  14.313  0.2858  0.0435  0.1775
25935W        W41552   0.223  12.728  13.352 -0.2023  0.1359 -0.1143
25936W        W41553   1.224  17.184   1.739  0.1170 -0.1724  0.1089
25937W        W41554  13.676   0.412  15.034 -0.0270 -0.1209 -0.0835
25938W        W41555  10.571  15.105  12.702  0.0793  0.0034  0.0583
25939W        W41556  15.611   9.417  13.410 -0.0725  0.1168 -0.0696
25940W        W41557   4.916   1.707   2.781 -0.2466  0.1567  0.0710
25941W        W41558  17.002   3.276  13.798 -0.1693 -0.2979 -0.2322
25942W        W41559  16.410  13.288   2.178  0.0871  0.0646  0.2011
25943W        W41560   5.875   7.882   3.444  0.0038 -0.0502 -0.1685
25944W        W41561  10.161   8.212  13.988 -0.1131  0.0189 -0.0628
25945W        W41562  11.156  15.700   3.508  0.2066  0.4199 -0.0040
25946W        W41563   0.404   0.944   0.134 -0.1190  0.1677 -0.0499
25947W        W41564  11.458  13.657  13.081  0.3473  0.2287 -0.3110
25948W        W41565   5.868  14.840   2.031 -0.0150 -0.1853 -0.3477
25949W        W41566  12.317   0.890   3.323 -0.3324  0.3860 -0.1435
25950W        W41567   7.137  17.777  14.431 -0.1458 -0.0411  0.0547
25951W        W41568   3.113   1.148   1.826 -0.1940  0.0883 -0.1703
25952W        W41569  10.476   7.659  10.967  0.0520 -0.0301  0.0526
25953W        W41570  10.508   8.809  14.530 -0.0806 -0.1608 -0.1443
25954W        W41571   6.739   1.069   4.743  0.0639  0.2677 -0.2175
25955W        W41572  10.128  11.494   1.316  0.1820  0.1376  0.1636
25956W        W41573   1.257  14.129   4.091  0.0444  0.0538  0.1034
25957W        W41574   6.685   7.294  14.628  0.0502 -0.0218 -0.1045
25958W        W41575  18.141   3.741   4.521 -0.2473 -0.0051  0.0344
25959W        W41576  14.551   0.219   2.618 -0.2782 -0.4545 -0.0834
25960W        W41577  10.142  17.662  14.683  0.2312  0.1013  0.1202
25961W        W41578   0.862   7.116  11.691  0.2519 -0.1494  0.2954
25962W        W41579   4.436  14.192  13.695 -0.2386 -0.0138  0.2147
25963W        W41580   0.456   8.389  10.711 -0.2209 -0.3621  0.2691
25964W        W41581   2.582   6.764  12.019  0.2492  0.0582  0.0207
25965W        W41582   0.532  14.208  15.664  0.0742 -0.1123  0.1525
25966W        W41583  14.769  11.662   4.716  0.0012  0.1632 -0.0808
25967W        W41584  16.185   4.710   9.966  0.0052  0.4138  0.1202
25968W        W41585  14.001   2.269   2.614  0.2565 -0.0463 -0.2864
25969W        W41586  18.177  11.663  12.814 -0.2621  0.1905 -0.0545
25970W        W41587  17.128   0.489  12.341  0.1083 -0.3741  0.1605
25971W        W41588  17.936   9.756   4.374 -0.1258  0.0934  0.2264
25972W        W41589   1.811   8.508   3.610  0.1256  0.2622 -0.2585
25973W        W41590   9.801  10.450   0.613 -0.0946  0.0449  0.0248
25974W        W41591   7.628  14.027   5.356 -0.0124  0.0277 -0.0828
25975W        W41592   0.181   6.791   1.042  0.0070  0.3074 -0.0445
25976W        W41593   7.873   9.249   2.649 -0.2356 -0.1273  0.0471
25977W        W41594  12.250   5.194   2.949 -0.0157  0.1687 -0.0254
25978W        W41595   8.244   4.453   5.362 -0.2532 -0.0640  0.1105
25979W        W41596  12.344   2.049  10.909 -0.0751  0.0335  0.1381
25980W        W41597   0.886   4.382  13.178  0.2056 -0.3772  0.2869
25981W        W41598  15.719  12.395   1.188 -0.1595  0.0688 -0.1034
25982W        W41599  14.835   8.010  13.404 -0.4409  0.2166 -0.0473
25983W        W41600  12.840  18.031  12.421 -0.2103 -0.2792 -0.0719
25984W        W41601  13.957  11.079   3.238  0.0209  0.2621  0.2083
25985W        W41602   6.946  10.787   9.411  0.0277 -0.4171  0.2384
25986W        W41603   7.543   7.238   5.317  0.3890 -0.1244  0.1023
25987W        W41604   2.546  14.040   3.126  0.3766  0.3218 -0.1297
25988W        W41605   2.094  14.254   3.445 -0.1532 -0.1935  0.0863
25989W        W41606   3.307   4.930  11.001  0.3688 -0.0350  0.0588
25990W        W41607   2.977   0.715   0.432  0.1113 -0.0394 -0.0453
25991W        W41608   6.345  16.143  15.104  0.1084  0.1903  0.0664
25992W        W41609   0.678  10.909   4.327 -0.1498  0.0937 -0.1588
25993W        W41610  12.805   6.098  14.819  0.1583  0.2043 -0.0724
25994W        W41611   0.439   3.441  12.693  0.0912 -0.0582  0.2568
25995W        W41612   8.909  11.271  12.926 -0.4359  0.1204 -0.4386
25996W        W41613   3.983  14.746   0.297  0.2311 -0.0601  0.0701
25997W        W41614   8.410  11.901   2.360  0.0675  0.0603  0.2985
25998W        W41615   2.022   7.233   4.532 -0.0750 -0.1159  0.2908
25999W        W41616   2.123  11.384   2.815  0.2519 -0.3667 -0.4546
26000W        W41617   1.496   0.376   0.563  0.1346  0.2346 -0.0599
26001W        W41618  13.751  15.292  12.633  0.1431 -0.3564  0.0646
26002W        W41619  14.564   6.139  14.472  0.0056 -0.0235  0.2316
26003W        W41620   9.545  16.234  14.567 -0.1157  0.0692 -0.3305
26004W        W41621   9.956  12.587  12.216  0.0030 -0.3090 -0.3846
26005W        W41622  13.907  15.139   4.077  0.1477  0.1175  0.2784
26006W        W41623   2.709  18.029   1.113 -0.0027  0.2753 -0.4259
26007W        W41624  16.290  12.382   2.621  0.0209 -0.0106  0.1450
26008W        W41625   1.647  10.368   3.978 -0.0299  0.1405 -0.0423
26009W        W41626  14.118   5.405   5.539  0.0787 -0.0481  0.2553
26010W        W41627  10.889   7.039  11.930 -0.6838  0.3490  0.2158
26011W        W41628  16.546  14.061   3.462  0.2157 -0.2629  0.0883
26012W        W41629  13.798   6.495  15.482 -0.0083 -0.0964 -0.0795
26013W        W41630   1.015  16.114   5.527 -0.0164  0.4480 -0.0973
26014W        W41631   6.701  10.511  10.736  0.1083 -0.2087  0.0384
26015W        W41632   5.636  15.065  13.711 -0.0215  0.2804  0.2356
26016W        W41633   2.947   2.734   4.204  0.1426 -0.0789 -0.1305
26017W        W41634   1.376  10.698   1.399 -0.3109  0.0235 -0.3527
26018W        W41635   8.363  18.509   0.905  0.0994 -0.1549  0.2295
26019W        W41636  13.886  10.909   1.670  0.2911  0.1579  0.1073
26020W        W41637   4.871  11.593  12.964 -0.0070 -0.1997 -0.0556
26021W        W41638  15.551   0.209   1.185 -0.1270  0.2145  0.0007
26022W        W41639   1.259  11.911   2.790 -0.3284 -0.0250  0.1172
26023W        W41640  18.177   0.198  11.023 -0.2405  0.1570  0.3241
26024W        W41641  18.548  16.303  12.211  0.2723 -0.1561 -0.2045
26025W        W41642   2.640  11.725  11.789  0.3532  0.3922 -0.2405
26026W        W41643  14.040  11.675  13.089 -0.0558 -0.0870 -0.4570
26027W        W41644   7.453   4.319  11.514  0.2020  0.2529  0.2689
26028W        W41645  14.862   9.784  12.769  0.0085  0.1063  0.1322
26029W        W41646  15.432  13.394  10.983 -0.2239  0.0474  0.2521
26030W        W41647  11.347   2.515  14.503 -0.4450  0.0629 -0.0639
26031W        W41648   1.361   1.130  11.718 -0.2249 -0.2990  0.1961
26032W        W41649   0.696   7.953   0.379 -0.2046 -0.1436 -0.0620
26033W        W41650  17.049   5.951   3.685  0.2441 -0.1785 -0.1766
26034W        W41651   8.562  13.847  11.310  0.3006 -0.2345 -0.1392
26035W        W41652  10.006  10.204  12.063 -0.0426  0.1028 -0.1012
26036W        W41653   5.931  18.069  15.704 -0.1863 -0.3153  0.0140
26037W        W41654  12.513   8.710  10.932 -0.1815  0.2973 -0.1628
26038W        W41655   2.542  14.006  12.296  0.0246 -0.0233 -0.0401
26039W        W41656  11.491   1.759   4.039 -0.0050 -0.0893 -0.0211
26040W        W41657  16.735   5.158  15.058  0.0394 -0.1740 -0.0230
26041W        W41658   8.311   8.581  13.694 -0.1007  0.1669 -0.1070
26042W        W41659  15.657  11.932   3.320  0.0059 -0.1908  0.0556
26043W        W41660   3.585  16.423   3.263 -0.3210  0.4130  0.0009
26044W        W41661  11.542  15.709  14.322 -0.0011  0.0123  0.1585
26045W        W41662  15.171  17.106   3.870  0.3147 -0.1442 -0.2533
26046W        W41663  12.870  17.140   3.076  0.0146 -0.0395  0.0256
26047W        W41664  10.061   2.442   1.413 -0.2165  0.1367  0.0906
26048W        W41665   1.706  12.662   1.137  0.0738 -0.0276 -0.1025
26049W        W41666  17.631   1.019   0.949 -0.1113  0.2159  0.0369
26050W        W41667   3.963   2.222   0.699  0.2084 -0.0043  0.0262
26051W        W41668   6.203   2.351  13.763 -0.0688  0.1411  0.0021
26052W        W41669   3.437  15.898   4.992 -0.3466 -0.0013 -0.1864
26053W        W41670   2.494   7.258   3.113 -0.0358  0.0890  0.1165
26054W        W41671   4.419  17.731   0.294 -0.2216 -0.1376 -0.0787
26055W        W41672  15.850   2.521  13.152 -0.1224 -0.0775 -0.1077
26056W        W41673  11.727  12.620   2.225  0.0598 -0.1457  0.0305
26057W        W41674  17.878  16.357  12.705  0.1929 -0.0935 -0.0023
26058W        W41675  17.046   7.850   2.064  0.0221 -0.3556 -0.1188
26059W        W41676  16.164  16.247  13.290 -0.2583 -0.4702  0.1210
26060W        W41677   0.821   0.036   1.193  0.1541 -0.1494  0.3496
26061W        W41678   0.162   6.021  12.225  0.0279 -0.1500  0.0130
26062W        W41679  12.064   5.125   1.832 -0.0947 -0.0978  0.1099
26063W        W41680  10.758   3.382   0.529  0.0164  0.0180  0.0538
26064W        W41681  16.661   3.311   4.274  0.3032  0.0178 -0.1330
26065W        W41682   6.948   6.357  13.026  0.0010  0.1301 -0.0984
26066W        W41683   8.518   3.731  11.796  0.1666 -0.1788  0.4201
26067W        W41684   7.617   5.860   4.119 -0.2239 -0.1687  0.0172
26068W        W41685  17.910  12.274  13.904 -0.0280 -0.0139 -0.0937
26069W        W41686  14.483  17.314   0.487  0.0746 -0.3927 -0.1808
26070W        W41687  13.932   1.712   2.484 -0.1018  0.1846 -0.1505
26071W        W41688   5.237  10.053  15.411  0.2599 -0.2871 -0.0421
26072W        W41689   7.107   6.201  11.383 -0.0698  0.5474 -0.2221
26073W        W41690  11.812   7.879  11.453  0.1304 -0.0233 -0.0318
26074W        W41691   7.986   3.685  13.664  0.1132  0.0460 -0.6495
26075W        W41692  16.491   3.322   1.813 -0.0451 -0.4227 -0.0565
26076W        W41693  16.301   4.232  11.603  0.2439 -0.0357 -0.0230
26077W        W41694  10.702   4.018   4.206  0.0906 -0.1300 -0.0595
26078W        W41695   9.266   9.166  14.283  0.1836 -0.0072 -0.3744
26079W        W41696   8.242  12.401   0.009 -0.0283  0.0812 -0.2504
26080W        W41697   2.873   3.067  11.086 -0.1458 -0.1607 -0.2588
26081W        W41698   0.402  11.651   0.835 -0.1832  0.0268  0.0158
26082W        W41699   5.678  14.716   5.490  0.3926 -0.0329  0.1184
26083W        W41700  18.183   6.775  12.472  0.4250 -0.2644  0.1945
26084W        W41701   5.187   3.782   1.678  0.0625  0.1790 -0.2834
26085W        W41702  10.556  16.440   2.595  0.3916  0.1838 -0.1398
26086W        W41703   8.782   2.394  15.427 -0.0842  0.1118  0.0265
26087W        W41704   5.205   4.493   4.990 -0.1088 -0.0576  0.1586
26088W        W41705   9.987   4.217  12.237 -0.0093 -0.0215 -0.0484
26089W        W41706   6.522   0.008   5.060 -0.2364 -0.0640  0.2764
26090W        W41707   2.206   7.997   5.496  0.0484  0.0911  0.0239
26091W        W41708   4.496   4.218  12.761  0.3240 -0.0528  0.2687
26092W        W41709  10.922  14.332   1.637 -0.1073 -0.2477  0.0691
26093W        W41710   4.633   0.412   3.780 -0.1158 -0.0710  0.0262
26094W        W41711   5.459  15.512  11.867 -0.1620 -0.1477 -0.2831
26095W        W41712  10.594   7.388  12.693 -0.0812 -0.3667  0.2743
26096W        W41713  14.858  16.651  15.605 -0.1280  0.0736  0.1593
26097W        W41714   2.795   9.801  15.169 -0.1387  0.3106  0.0197
26098W        W41715   2.534   0.391   4.159 -0.0087  0.0335  0.0650
26099W        W41716  12.147  12.850   1.009  0.2106  0.1355  0.2813
26100W        W41717   1.054   7.139   1.299  0.2437  0.1751  0.1166
26101W        W41718  14.097  10.140   3.830 -0.0342  0.0804 -0.2729
26102W        W41719   9.693   3.125  15.147 -0.0101  0.2501 -0.2916
26103W        W41720  15.984   5.286   2.214  0.2909 -0.2326  0.4246
26104W        W41721   2.244   9.339  13.913  0.2462  0.1531 -0.0738
26105W        W41722   0.635  16.899   2.262 -0.1649  0.0705  0.2425
26106W        W41723   8.889  18.392   3.063  0.0459  0.0766  0.2074
26107W        W41724  16.487   0.430   3.850  0.0846 -0.1218 -0.0903
26108W        W41725   6.105   8.622   4.614 -0.0409  0.0150  0.1635
26109W        W41726  16.210   9.014   3.813 -0.2599 -0.1109 -0.2012
26110W        W41727   2.241  16.327   1.149 -0.3442 -0.1819  0.3342
26111W        W41728  16.154  13.604   1.817 -0.1195  0.1365  0.1563
26112W        W41729   3.279  18.154  14.495  0.1408 -0.1295  0.3935
26113W        W41730   4.439   8.327  13.166 -0.0723  0.1057 -0.2595
26114W        W41731  12.345  10.085   4.991  0.0196  0.0122  0.5009
26115W        W41732   8.835  11.535   4.015  0.0412  0.1092  0.1206
26116W        W41733   3.478  16.932   1.339  0.2578  0.3188  0.0037
26117W        W41734  12.750   2.567  14.526  0.1963  0.4114  0.0326
26118W        W41735  11.973  17.312  11.332  0.0380 -0.1728 -0.0950
26119W        W41736  14.236   7.979  11.655  0.0731  0.3704 -0.1758
26120W        W41737   0.006   4.960  11.011  0.0877  0.0152  0.1867
26121W        W41738   7.951  11.432  15.451  0.0367 -0.1348 -0.2783
26122W        W41739  17.185  11.290  11.148 -0.0870 -0.2758  0.2774
26123W        W41740   8.248  18.278  12.425  0.0525  0.2082 -0.0011
26124W        W41741  11.396   1.849  15.170  0.0155  0.2321  0.0096
26125W        W41742  16.314   9.763  10.679 -0.0522  0.0653 -0.1195
26126W        W41743  18.459  10.447   0.771  0.0664  0.0564 -0.1810
26127W        W41744   4.927  16.351  13.528 -0.2843 -0.3437 -0.0503
26128W        W41745  11.691  16.040  14.797 -0.2570 -0.0483 -0.0628
26129W        W41746  10.256  10.187  14.723 -0.1488  0.1652  0.0315
26130W        W41747   3.202  14.583   4.262  0.1648  0.2292  0.2374
26131W        W41748  10.459   4.241  13.277 -0.1839 -0.0652  0.2075
26132W        W41749   6.094   1.099   1.783 -0.0826 -0.3086 -0.0244
26133W        W41750   7.562   5.529   3.388 -0.3553  0.0132  0.0587
26134W        W41751   0.350  18.482   1.259 -0.0656 -0.5632  0.0517
26135W        W41752   6.333  11.923   0.419  0.1248 -0.0910 -0.0551
26136W        W41753  11.290   8.902  14.926  0.0456 -0.2524 -0.1374
26137W        W41754   0.591   0.005  13.246 -0.2894  0.1537 -0.1424
26138W        W41755  12.594  15.310  14.938 -0.3824  0.2299  0.1278
26139W        W41756  10.675  13.492   0.122  0.0536  0.3528 -0.2255
26140W        W41757  14.799   3.955  13.131  0.0380 -0.0528 -0.0078
26141W        W41758   2.358   6.428  12.997  0.1606 -0.0322 -0.1168
26142W        W41759   0.198   1.888   3.571  0.0519 -0.1601 -0.0551
26143W        W41760   4.412  10.850  13.173 -0.2244  0.2931 -0.1189
26144W        W41761   2.151  16.487   0.579  0.2226  0.0199  0.0085
26145W        W41762  13.485   0.175  13.527 -0.0830  0.1582  0.2022
26146W        W41763  10.070   3.411  12.813  0.0048  0.0981  0.1722
26147W        W41764   7.800  17.457  11.217  0.1279  0.0094 -0.0255
26148W        W41765  12.159   9.393  11.999  0.0182  0.4220 -0.1624
26149W        W41766   5.923   2.136   1.138 -0.1151  0.3416 -0.2482
26150W        W41767   8.338   1.337  13.564 -0.3082  0.2046 -0.1276
26151W        W41768   9.177  18.137   3.437  0.1609 -0.2142 -0.2151
26152W        W41769   4.488  16.009   5.394  0.1864 -0.3208 -0.2666
26153W        W41770   1.666   9.005   3.535  0.0442  0.2127  0.1344
26154W        W41771   6.669   6.167  11.665  0.0953 -0.2356 -0.0273
26155W        W41772   5.232   0.512  14.186 -0.0850 -0.3363 -0.0907
26156W        W41773   1.926   1.992  13.105  0.0500  0.1004 -0.1196
26157W        W41774   6.648   0.455  11.926  0.0381  0.5960  0.0247
26158W        W41775  14.360   3.450   3.238  0.3110 -0.4236 -0.1486
26159W        W41776  13.112  15.600  14.755 -0.0228  0.0535 -0.3396
26160W        W41777  12.942  16.756   4.724 -0.1337  0.2581 -0.2451
26161W        W41778   8.572   4.465  12.422  0.2665 -0.1383  0.1155
26162W        W41779   8.473  18.230  14.412 -0.3115  0.2919 -0.3729
26163W        W41780   1.839   1.738   1.268 -0.2505 -0.1306 -0.0567
26164W        W41781   2.116   1.112  12.908 -0.0980  0.0723  0.0770
26165W        W41782   2.505   4.782   3.815 -0.0656 -0.1030  0.1002
26166W        W41783  10.725   2.696   2.196 -0.1973 -0.0012 -0.0484
26167W        W41784  10.993   7.580   3.154  0.4491 -0.4747  0.0440
26168W        W41785   8.831  11.345   0.799  0.2702 -0.0616 -0.0503
26169W        W41786  10.943   7.811   4.411 -0.2005  0.2045  0.0556
26170W        W41787   0.945  15.535   0.991 -0.2794  0.0362  0.0052
26171W        W41788   5.390   4.803   0.471 -0.1989 -0.1182 -0.0443
26172W        W41789   9.143  15.240   5.460  0.2284  0.2006 -0.0364
26173W        W41790   6.455   7.104  12.840 -0.1956  0.3237  0.0487
26174W        W41791   6.403  14.850   2.072  0.0497  0.2850 -0.0844
26175W        W41792   6.967  14.527   1.537  0.0918 -0.0250 -0.3239
26176W        W41793  10.964   3.752   3.548  0.1892  0.0125 -0.1880
26177W        W41794  16.819   3.391  12.465  0.2893  0.1267  0.3855
26178W        W41795  16.323   8.143  12.408 -0.0388  0.0647 -0.2284
26179W        W41796   0.730  11.367   2.772 -0.0778  0.1845 -0.0299
26180W        W41797   3.736  12.657   0.137 -0.1329 -0.1170 -0.0112
26181W        W41798  15.209   8.668  13.456 -0.1352 -0.0144  0.0091
26182W        W41799  15.458  10.885  10.209 -0.0050  0.1399  0.0106
26183W        W41800   5.548  12.033   0.731  0.0307  0.2079 -0.0050
26184W        W41801  10.174  14.478  11.772 -0.0169  0.2295 -0.0807
26185W        W41802  15.725  11.723  12.973 -0.0313  0.2231 -0.0712
26186W        W41803  16.853   6.597   5.057  0.2980  0.0605  0.0147
26187W        W41804  13.295   3.265   6.255 -0.3805 -0.2398  0.1073
26188W        W41805   7.316   1.601  13.397 -0.0379  0.1341 -0.2022
26189W        W41806   2.728   9.502   0.214 -0.3884 -0.1117  0.1589
26190W        W41807   2.003   3.396   0.253 -0.0255 -0.2166  0.1870
26191W        W41808  17.142   2.762   3.071 -0.2094  0.3252 -0.1962
26192W        W41809   2.097  18.520  13.658 -0.0109  0.0488  0.1355
26193W        W41810  15.866   9.719  14.235 -0.2313 -0.0065 -0.3543
26194W        W41811   7.356  10.213   1.714  0.0289  0.0903  0.2509
26195W        W41812  16.058  10.791  12.423 -0.0493 -0.0562 -0.1870
26196W        W41813   9.220  17.319  14.903  0.2072 -0.0140 -0.2677
26197W        W41814  12.686  17.350  12.932  0.3176 -0.0869  0.0819
26198W        W41815   6.568   0.003  14.934 -0.0770 -0.0563 -0.3716
26199W        W41816  17.120   1.408   4.647  0.0714 -0.0710 -0.1288
26200W        W41817  11.541  10.147   3.462  0.2673  0.3132  0.0276
26201W        W41818   6.007  12.170  12.346  0.1733  0.0103  0.1449
26202W        W41819  11.589  10.053   0.244 -0.1091 -0.4207 -0.2638
26203W        W41820  12.227   8.595   3.544 -0.2284 -0.0419 -0.1524
26204W        W41821   1.741  14.457  14.273  0.0538 -0.0520 -0.1670
26205W        W41822  12.871  15.676  11.164  0.6550 -0.2997 -0.3446
26206W        W41823   8.044  11.257   0.554  0.0838 -0.3440 -0.0495
26207W        W41824  10.406  10.287   4.557 -0.1355  0.2876 -0.0999
26208W        W41825   5.794  13.866  13.557  0.2074 -0.1515  0.1020
26209W        W41826  11.478  18.463  11.033 -0.0556  0.1172 -0.1052
26210W        W41827   6.688  16.491  11.112  0.0057 -0.3351 -0.2795
26211W        W41828   0.698  13.650  14.823  0.1182  0.1992 -0.1123
26212W        W41829  14.764  18.506   5.269  0.1772  0.0415  0.0958
26213W        W41830   2.618  15.298  15.284  0.1876  0.0535 -0.2773
26214W        W41831   9.952  15.012   1.605  0.2095  0.1142  0.0459
26215W        W41832  13.966   1.138   1.808  0.0026  0.0915 -0.0431
26216W        W41833  16.524  12.681   3.431  0.0836 -0.2259 -0.4076
26217W        W41834   5.047   3.231   4.028  0.1114  0.0311 -0.1276
26218W        W41835  10.622   4.110  12.147  0.0289  0.4902  0.1280
26219W        W41836   6.056   1.451  10.831 -0.1058  0.1581 -0.1671
26220W        W41837  12.336  10.865  12.711  0.1384 -0.3422 -0.1489
26221W        W41838   6.653  16.966   0.116 -0.0441 -0.2593  0.5800
26222W        W41839   4.970  10.145   3.240  0.0107  0.0405 -0.1184
26223W        W41840   9.247   4.376   5.299 -0.1333 -0.0597  0.1448
26224W        W41841   1.134  13.536  15.419 -0.0274  0.0865  0.2235
26225W        W41842   5.198  15.831  11.589 -0.2010  0.1261  0.0907
26226W        W41843  12.551   1.422   0.694 -0.3024 -0.0448  0.0732
26227W        W41844  15.592  10.194  13.465  0.0637 -0.1998 -0.0402
26228W        W41845  13.113  12.175  15.003 -0.3396  0.0829  0.1285
26229W        W41846   4.487  10.271   4.474 -0.0980 -0.1936 -0.0651
26230W        W41847  15.215   1.228   3.031  0.1024 -0.1018 -0.0600
26231W        W41848  13.607  14.787   0.871  0.0448 -0.2647 -0.0819
26232W        W41849  12.940  17.852   3.905 -0.0645  0.0435 -0.0248
26233W        W41850  16.984  17.672  13.755 -0.0611 -0.0652 -0.0224
26234W        W41851   2.726  10.962   0.027  0.0252 -0.1233 -0.0972
26235W        W41852   8.438   5.782  13.129  0.0025  0.1030 -0.0976
26236W        W41853  11.549  15.202  11.586 -0.0983 -0.0918  0.1396
26237W        W41854  15.979  12.945  11.708 -0.2709 -0.1633 -0.1941
26238W        W41855  12.292   7.006   3.211  0.1700 -0.1592 -0.0977
26239W        W41856  18.178  14.753   4.181 -0.1414 -0.0133 -0.0769
26240W        W41857   6.134  16.199  15.581  0.3789  0.0343 -0.0796
26241W        W41858  16.518  14.539  12.841 -0.0034  0.2220  0.0145
26242W        W41859   6.280  13.802   0.133 -0.1634 -0.2836  0.2868
26243W        W41860   2.658  14.413   2.754  0.0096 -0.0186  0.1644
26244W        W41861   9.449   3.357   3.138  0.0802  0.1635 -0.0234
26245W        W41862   5.907  17.951   1.953 -0.2611  0.2720  0.3476
26246W        W41863   2.049   5.556   3.007  0.1769 -0.0645  0.1516
26247W        W41864  17.357   0.403   0.620  0.1154  0.0686 -0.0129
26248W        W41865  11.130  16.634   3.371  0.1962 -0.1100  0.0468
26249W        W41866  10.735   3.012  14.621 -0.0241 -0.1710 -0.0313
26250W        W41867  17.505   6.183  11.807 -0.2447  0.2244 -0.3627
26251W        W41868   9.317   1.628  15.195 -0.1912  0.1440 -0.0664
26252W        W41869   8.875   7.905   1.026  0.0034 -0.2626 -0.0965
26253W        W41870   9.563  18.366  15.097  0.0495 -0.1270 -0.2418
26254W        W41871   1.228   6.278  11.182  0.2532 -0.1447  0.2440
26255W        W41872  12.105  15.405  12.673 -0.0165  0.0509 -0.0880
26256W        W41873  14.898  12.473  11.762  0.2457 -0.0090 -0.1583
26257W        W41874   2.442   9.241  14.722  0.3509 -0.0224 -0.4655
26258W        W41875   8.874   0.356  15.594  0.1253 -0.1185  0.0135
26259W        W41876   4.396   5.602   2.969 -0.0081 -0.4092  0.1711
26260W        W41877  12.659   9.889  15.639 -0.0114  0.1484  0.1480
26261W        W41878  11.136   5.323  13.711 -0.3056  0.1869 -0.0166
26262W        W41879  13.163  17.529   1.176  0.1253 -0.3358 -0.2441
26263W        W41880   1.074   5.718  12.454 -0.0335 -0.1602 -0.2647
26264W        W41881   9.505  12.139  10.918  0.0178  0.0819 -0.3492
26265W        W41882   9.703  16.134  11.309  0.1140  0.1782  0.0801
26266W        W41883   4.984  17.797  14.106  0.1528 -0.0650  0.0709
26267W        W41884   3.670  18.619  12.422 -0.1778 -0.4270 -0.2091
26268W        W41885   8.207   8.365   4.608  0.0980 -0.1022  0.0578
26269W        W41886  18.494   5.341   0.568 -0.0824  0.0594  0.2532
26270W        W41887   3.141   2.231   4.094  0.0864 -0.1813  0.0945
26271W        W41888   8.368  12.010  15.053  0.1642 -0.1817  0.2070
26272W        W41889   6.790   7.741   5.531 -0.1287 -0.0825  0.1079
26273W        W41890  11.735  13.589   0.701  0.2096  0.2003 -0.0131
26274W        W41891   0.001   8.950  11.916  0.0158 -0.1918  0.0181
26275W        W41892  11.187   6.200   5.066  0.2484 -0.2233 -0.0130
26276W        W41893  10.344   7.957   0.411 -0.1605 -0.0594 -0.0521
26277W        W41894   3.546  14.751   4.539  0.1117  0.1600 -0.0420
26278W        W41895   4.973  14.666   0.450 -0.0065 -0.0330  0.3059
26279W        W41896   3.144   6.871  14.274  0.1920 -0.0282 -0.3429
26280W        W41897   4.519   4.938  11.219 -0.0630  0.0285  0.0638
26281W        W41898   3.657   3.819   5.658  0.1730 -0.1585 -0.2991
26282W        W41899  14.573  13.297   0.380 -0.0644 -0.0692 -0.1239
26283W        W41900   8.413  11.825   2.844  0.0669 -0.1368  0.2322
26284W        W41901   9.604  14.332  14.763  0.0213 -0.1737 -0.0517
26285W        W41902   5.359   8.707  11.781  0.4509 -0.2269 -0.5297
26286W        W41903  16.335  11.290  14.711  0.0238 -0.1372  0.0389
26287W        W41904   3.020  16.189   0.341  0.1829  0.1759 -0.0139
26288W        W41905   8.306  12.619   4.369 -0.3898  0.2364 -0.0886
26289W        W41906  15.317  15.831  15.017  0.1854  0.0755  0.2002
26290W        W41907   7.440  11.972  14.895  0.1630  0.1703  0.1020
26291W        W41908  18.656   3.823   3.180  0.1083  0.0155  0.1039
26292W        W41909   1.907   4.436  13.917  0.0901  0.0269 -0.0539
26293W        W41910   2.418   4.183  14.093 -0.2909  0.0953  0.1962
26294W        W41911   2.129   4.042  13.458 -0.0414 -0.1856  0.2719
26295W        W41912  17.446  10.536  12.468 -0.4034 -0.1527  0.0444
26296W        W41913   1.665   2.347   4.492 -0.4202  0.0694  0.0489
26297W        W41914  11.234  18.214  11.454  0.0569  0.2368 -0.3347
26298W        W41915   7.377  12.090   4.217 -0.2246  0.1913  0.0745
26299W        W41916  11.389   3.942  15.482 -0.0707  0.0424  0.0061
26300W        W41917  13.914  13.407   4.992  0.1216  0.1718  0.0432
26301W        W41918  15.860   8.785  15.774  0.2418  0.0825 -0.0716
26302W        W41919   9.664   8.456  11.240  0.0287  0.0809 -0.0348
26303W        W41920  14.899  15.023   1.070  0.1712 -0.0399  0.0631
26304W        W41921   2.002  17.871   3.060 -0.0633 -0.1520  0.2378
26305W        W41922  11.112  17.906  15.278 -0.0771  0.2715 -0.0306
26306W        W41923  18.553  13.947  11.466  0.1042 -0.1668  0.2002
26307W        W41924   0.217  15.572   1.935  0.2127 -0.0406  0.1815
26308W        W41925   4.406  17.641   4.438  0.1255 -0.2422  0.1747
26309W        W41926   0.968   3.873  12.432  0.1376 -0.1555  0.3676
26310W        W41927   4.604  12.464  13.650  0.2053 -0.2385 -0.2411
26311W        W41928   7.598   4.553  10.064  0.1646 -0.2121  0.0444
26312W        W41929   7.843   1.183  15.763  0.2415 -0.3726 -0.3212
26313W        W41930   0.474   7.295  14.016 -0.0116  0.1100 -0.0203
26314W        W41931   9.141  15.818  11.518 -0.1524  0.1150 -0.1422
26315W        W41932   8.081  13.059   4.142  0.0849  0.0270 -0.1266
26316W        W41933  11.410  11.374  12.416 -0.1365  0.1227  0.0120
26317W        W41934   4.941   3.739   2.160  0.1696 -0.0122 -0.1856
26318W        W41935  14.982  15.853   5.276 -0.0900  0.0864 -0.0387
26319W        W41936   6.790   9.440  11.007 -0.2575 -0.0471 -0.0397
26320W        W41937   9.677  18.204   0.231  0.2667  0.1420  0.0925
26321W        W41938  15.468  11.479   1.492  0.3103 -0.4104  0.1447
26322W        W41939  12.945  17.973  11.899  0.2487  0.0822  0.0672
26323W        W41940   5.302  16.786   3.682 -0.0240  0.1792 -0.1019
26324W        W41941   3.611   9.278  12.989  0.1077  0.1758  0.0171
26325W        W41942   5.583   5.912   4.162  0.2728  0.2564 -0.2088
26326W        W41943   5.578   3.647   2.009 -0.0900  0.1409 -0.0708
26327W        W41944   4.151   6.474   2.595 -0.0661  0.0425  0.1318
26328W        W41945  16.790   0.947  13.356 -0.3080 -0.0295 -0.0178
26329W        W41946  17.192  12.984  12.563  0.3230  0.0569 -0.0294
26330W        W41947   3.738   3.581  13.198  0.0880 -0.1963  0.0692
26331W        W41948  10.609  10.437   1.221 -0.2282  0.0750 -0.4485
26332W        W41949   4.598   8.995  11.518 -0.0627  0.3748 -0.1115
26333W        W41950  10.437   4.464  11.751 -0.2175  0.1921 -0.1743
26334W        W41951   4.384  13.820   1.132 -0.2366 -0.0197  0.2402
26335W        W41952   6.826   8.255   4.164  0.2432  0.2279 -0.1361
26336W        W41953  12.150  12.123   1.155 -0.2596  0.1707  0.0647
26337W        W41954   9.613  10.920  11.958  0.0888 -0.0574 -0.0856
26338W        W41955  12.147  11.260  11.868  0.3260 -0.1346  0.3123
26339W        W41956  14.005  14.672  15.443 -0.1899 -0.0996 -0.1594
26340W        W41957   1.314   6.126  14.753  0.0884  0.1456  0.0769
26341W        W41958  17.714   6.204  10.861 -0.0642  0.3688  0.2187
26342W        W41959   3.952  15.127   4.937  0.1964  0.1306  0.2974
26343W        W41960  12.462  18.373  14.923  0.1749 -0.0624  0.0375
26344W        W41961   4.609  17.735   1.745 -0.0586  0.1325 -0.0957
26345W        W41962   4.104  18.202  11.269 -0.0638  0.0384  0.2971
26346W        W41963   0.510  13.681   1.404  0.3058 -0.0847  0.0997
26347W        W41964   3.235  11.914   4.448  0.0744 -0.1336 -0.0007
26348W        W41965  14.091   3.144   0.199  0.3513 -0.0273 -0.1484
26349W        W41966  15.669   2.030  14.708  0.1809  0.0736  0.0230
26350W        W41967  13.020   4.155  11.106 -0.0828 -0.1325 -0.1257
26351W        W41968   7.939   5.932   1.790 -0.1983  0.1071 -0.1511
26352W        W41969   7.658   8.975   1.128  0.1834 -0.0593 -0.3831
26353W        W41970  16.557   7.238   1.412 -0.0943  0.0548 -0.1842
26354W        W41971   2.995  14.142  13.791 -0.0329 -0.4872  0.0718
26355W        W41972   0.663  17.779  11.819 -0.0970 -0.0259 -0.0151
26356W        W41973   6.428  12.948  15.275 -0.1776  0.0797 -0.0229
26357W        W41974  10.132  13.296   2.541  0.2339 -0.1834  0.0471
26358W        W41975   9.356   2.228   1.085  0.0708  0.1686  0.0707
26359W        W41976   1.096  11.152   3.726 -0.1000  0.2425  0.0669
26360W        W41977  12.529   4.972   2.227  0.0856 -0.5226 -0.1979
26361W        W41978  14.480   2.531  13.332  0.0272 -0.2926 -0.0303
26362W        W41979   3.095  17.539  11.548 -0.0448 -0.0685  0.0436
26363W        W41980  12.789  14.217   5.004  0.2249  0.0061 -0.3470
26364W        W41981  10.583  17.400  12.586  0.1556  0.0237  0.0264
26365W        W41982  13.794   0.846  12.119 -0.1532 -0.0198  0.2051
26366W        W41983  14.790  12.977   2.746 -0.0132  0.1165  0.0109
26367W        W41984  10.963  10.969   2.639  0.0071 -0.0532  0.2483
26368W        W41985  11.798   6.894   3.072 -0.1187  0.0782  0.0799
26369W        W41986  17.744  11.837  11.015  0.0078 -0.0023  0.0630
26370W        W41987   4.262  17.257  11.803  0.3231  0.0566 -0.3802
26371W        W41988   6.190   5.215  12.184 -0.1354  0.2459  0.5447
26372W        W41989   0.433  16.217  10.896 -0.0214 -0.1480 -0.0785
26373W        W41990   3.958   4.840   5.240  0.3503  0.5150  0.0924
26374W        W41991   1.455   3.894  12.615  0.4161  0.1248 -0.1301
26375W        W41992   2.732  15.629   0.845 -0.1408  0.1993  0.1575
26376W        W41993  10.581  18.064  12.064 -0.0728  0.0565 -0.2319
26377W        W41994   0.870   1.668   1.761  0.3231 -0.0093  0.1543
26378W        W41995   2.965  15.501  15.655  0.4435 -0.0474  0.0441
26379W        W41996   4.106  10.662   5.319  0.1758  0.0723 -0.1138
26380W        W41997  14.993  13.005  11.817 -0.0812  0.1687  0.1607
26381W        W41998   5.673   1.135   4.724  0.1351  0.1633 -0.0186
26382W        W41999  15.374  15.496   5.461 -0.1023 -0.3927 -0.5171
26383W        W42000  18.422  13.343  12.721 -0.3383 -0.0196 -0.1407
26384W        W42001  17.546   3.431  12.926  0.1381  0.0547  0.1343
26385W        W42002   8.336  15.749  13.355  0.3411 -0.1014 -0.0448
26386W        W42003  18.561   6.661   2.370  0.0463  0.1104  0.5444
26387W        W42004  17.877   6.184  15.507  0.1960  0.2182 -0.0431
26388W        W42005  15.311   8.743  10.711  0.4386  0.1645 -0.1250
26389W        W42006  16.801   5.111   1.054 -0.1566 -0.2049  0.3503
26390W        W42007   4.834   1.567  13.929 -0.0305  0.0774  0.1750
26391W        W42008  10.656   0.691   1.731 -0.0513  0.1964  0.0699
26392W        W42009  10.056   4.998   1.375  0.0063 -0.0761 -0.0231
26393W        W42010  10.149   4.592   5.003  0.1648  0.1922 -0.0862
26394W        W42011   3.982  15.686   4.243  0.2488 -0.0359 -0.0199
26395W        W42012   9.014  16.670   0.992 -0.0811 -0.0916 -0.0752
26396W        W42013   7.169  17.322   1.435 -0.0389  0.1088  0.1454
26397W        W42014   0.589   0.030   0.243  0.1716 -0.2717  0.0582
26398W        W42015   8.826  17.265  12.433 -0.0996 -0.0243  0.0078
26399W        W42016   5.049   6.497   4.642  0.0630  0.0379  0.2153
26400W        W42017   6.206   9.513  12.687 -0.1657 -0.1326 -0.0606
26401W        W42018   2.875   5.586   0.962 -0.0970 -0.2646  0.3397
26402W        W42019  14.965  17.498   0.398 -0.0532 -0.0075 -0.1056
26403W        W42020   5.172  11.300   3.412 -0.1364  0.1910  0.0641
26404W        W42021   5.697  13.681   1.856  0.0826 -0.4958  0.0342
26405W        W42022   7.695   3.383  12.147 -0.0052  0.1282 -0.1171
26406W        W42023   6.351  18.131   5.793 -0.0923 -0.1525 -0.0540
26407W        W42024  11.096   2.257  11.342  0.0183  0.2244  0.0324
26408W        W42025   7.008   3.469  11.581 -0.0392  0.0901  0.1324
26409W        W42026  10.743  11.867  12.849  0.2811  0.3375 -0.1117
26410W        W42027  13.399  14.449   1.738  0.0189 -0.0395  0.2527
26411W        W42028   6.795  11.786   3.531  0.3034  0.1704 -0.0436
26412W        W42029   5.447   8.705   2.181 -0.0119  0.0078  0.2972
26413W        W42030   2.135   4.385   1.538 -0.0984  0.0206 -0.1223
26414W        W42031   3.765   1.710   0.813 -0.0080  0.0803 -0.5862
26415W        W42032   8.344  16.126   4.039 -0.1550  0.0250  0.0465
26416W        W42033   9.203   2.526  13.051  0.1725  0.0398 -0.2673
26417W        W42034   7.174  15.229   0.480  0.1813 -0.3278 -0.2277
26418W        W42035   0.403  10.608   0.422 -0.5637  0.1281  0.1363
26419W        W42036   4.633  13.322  14.999  0.2146 -0.2817 -0.2648
26420W        W42037  12.881  13.102   3.507  0.2007  0.1677  0.1835
26421W        W42038   5.499  12.939  15.516 -0.1168 -0.1139  0.0574
26422W        W42039  12.573  14.205   4.050 -0.0761 -0.0258  0.0343
26423W        W42040  11.446   8.384  15.591  0.3233 -0.1165 -0.1374
26424W        W42041   7.608   1.167  12.631 -0.0289 -0.1198 -0.1409
26425W        W42042   9.253  15.654   4.102  0.0498 -0.0786 -0.4086
26426W        W42043   7.891   2.044  14.692  0.0735  0.1984 -0.1731
26427W        W42044  16.299   1.857  13.600  0.0179  0.2450  0.0580
26428W        W42045   1.788   0.106   3.890 -0.3629  0.0599  0.2201
26429W        W42046  17.747   4.378   0.477  0.3364 -0.3295  0.0057
26430W        W42047  16.535  17.813  13.715  0.1341  0.3057  0.4341
26431W        W42048  14.316  15.876   0.024  0.4175  0.1679  0.2730
26432W        W42049  10.383  12.066  15.305 -0.2154  0.0485 -0.1376
26433W        W42050  17.298  10.891  14.244 -0.1642 -0.1596 -0.0533
26434W        W42051  16.787  15.447   4.567  0.1855 -0.3135  0.1607
26435W        W42052   8.867   1.434  14.900 -0.0734  0.2104 -0.1036
26436W        W42053  10.086  11.267  13.725  0.0757  0.0433 -0.1807
26437W        W42054  15.248   1.633   1.232 -0.2016 -0.1479  0.0916
26438W        W42055   6.516   1.799  14.377  0.1616  0.0104 -0.2195
26439W        W42056  13.870   5.216  15.107  0.2579  0.0241 -0.1478
26440W        W42057  18.137  16.704   0.388 -0.1013 -0.1602  0.1747
26441W        W42058   2.375   0.107   1.953 -0.0340  0.2034 -0.1172
26442W        W42059  16.019  14.388   5.585 -0.1010  0.1484  0.1435
26443W        W42060   0.470  12.239  11.962  0.0207 -0.0993 -0.1210
26444W        W42061   7.240   3.746  14.000  0.0930 -0.1464  0.1199
26445W        W42062   6.257   3.085   4.720  0.2068  0.0695 -0.0731
26446W        W42063  17.848   9.525   1.145  0.1395  0.2086  0.3305
26447W        W42064  15.465  15.099   2.536 -0.1355 -0.0928  0.0811
26448W        W42065  12.702   5.280   3.194 -0.1049 -0.5372  0.2783
26449W        W42066  15.603   3.043   5.620 -0.0062  0.0661  0.0231
26450W        W42067  13.375   7.989  15.715 -0.1139  0.0937 -0.2339
26451W        W42068   7.909  11.028   2.155  0.0521  0.2490  0.1344
26452W        W42069   4.430   8.875  14.682  0.0907  0.3109  0.3675
26453W        W42070   4.972  11.892  12.479 -0.1125 -0.0538  0.2273
26454W        W42071  10.196  16.262  11.836  0.0135 -0.0879 -0.0240
26455W        W42072   4.917  13.267   3.502  0.2414 -0.2016 -0.1037
26456W        W42073  13.810  12.125  12.592 -0.2167  0.0544  0.0518
26457W        W42074   6.667  11.267   2.936  0.1087  0.1858 -0.1080
26458W        W42075   1.448  12.712   0.309 -0.0097  0.1926 -0.4753
26459W        W42076  14.737   3.890  14.124 -0.2831 -0.0893 -0.0938
26460W        W42077   2.930  15.637   5.058  0.0815  0.1730 -0.0074
26461W        W42078  15.035   2.648  14.874  0.0870 -0.0409  0.0458
26462W        W42079  17.179  10.745  12.824 -0.0783 -0.1728  0.0680
26463W        W42080   2.641   0.467  12.668  0.0818  0.1387  0.2165
26464W        W42081  16.099  17.630  14.510  0.4977  0.1321  0.1713
26465W        W42082   0.898  12.199   1.897 -0.0640 -0.1093 -0.1826
26466W        W42083   3.588   2.224  10.797  0.0953  0.1584  0.2738
26467W        W42084  17.224  12.068  12.027  0.0654 -0.0890 -0.2144
26468W        W42085  13.639  16.539  15.157 -0.0739 -0.1398  0.0634
26469W        W42086   7.406   8.263   5.107 -0.2942 -0.0120 -0.1197
26470W        W42087  10.876   7.423   0.692  0.1402  0.0338 -0.1954
26471W        W42088   3.712   8.783  15.159  0.0684  0.3003  0.2861
26472W        W42089   5.329   0.072   4.409  0.2777  0.2331 -0.2925
26473W        W42090  13.425   9.581   2.174  0.0793  0.0077  0.3904
26474W        W42091   7.023   7.091   1.145 -0.1436 -0.1062 -0.1435
26475W        W42092  12.644  15.165   1.519  0.3199  0.3369  0.0472
26476W        W42093   6.507   2.380  15.520 -0.0675  0.0011 -0.2366
26477W        W42094   5.071  16.928   4.249 -0.2998  0.2253  0.1005
26478W        W42095   9.229  10.906  15.015  0.0072 -0.2414  0.1814
26479W        W42096   4.319  15.042   1.904  0.2228  0.1510  0.3415
26480W        W42097   6.959   8.260  13.039 -0.2706  0.2317  0.0128
26481W        W42098  18.549   4.870  13.174 -0.0479  0.3152  0.0114
26482W        W42099  17.759   0.801   3.866  0.1489 -0.1839 -0.1586
26483W        W42100   0.764  13.834  12.376  0.1291 -0.0731 -0.0716
26484W        W42101   6.859   7.949   4.959  0.3726 -0.0022  0.2213
26485W        W42102   7.036  11.132  10.385 -0.0245  0.3191  0.1626
26486W        W42103   0.032   5.434  13.565  0.3217 -0.0449 -0.0879
26487W        W42104   5.379   2.789   4.875  0.2027  0.2117 -0.1369
26488W        W42105   2.046  10.618  11.911  0.0712 -0.2476 -0.0561
26489W        W42106   2.603  17.031   1.407 -0.1268  0.1969  0.1847
26490W        W42107  13.777  15.357  11.575 -0.0428  0.0672 -0.1655
26491W        W42108  16.953  13.109   0.935  0.0990  0.3041  0.0393
26492W        W42109  15.220   8.616  13.974 -0.0159 -0.0873  0.2804
26493W        W42110   7.099   9.079  11.720 -0.0696 -0.3029  0.2205
26494W        W42111  10.555  17.177  11.134 -0.0489  0.0013  0.2109
26495W        W42112   3.707   5.765  10.362  0.1047  0.1006  0.1738
26496W        W42113   0.106   8.203  13.751 -0.0673 -0.0392  0.0876
26497W        W42114   0.088   4.188   0.755 -0.1576 -0.0716 -0.0908
26498W        W42115   4.235  16.021  12.362 -0.3044 -0.1317  0.2518
26499W        W42116  17.708   6.627   4.135  0.0645 -0.1046 -0.0770
26500W        W42117   0.415  18.302   0.008 -0.0533  0.1412 -0.0577
26501W        W42118  16.383  15.460   4.921  0.1630  0.3417 -0.0162
26502W        W42119  11.489   7.125  11.783 -0.3001 -0.1671 -0.4951
26503W        W42120   3.656   7.760  15.028 -0.2600 -0.0892  0.0149
26504W        W42121  15.447   5.466   2.051 -0.3894  0.3683 -0.0420
26505W        W42122  17.848   5.009   2.975 -0.3545  0.1888  0.0438
26506W        W42123  11.202   3.684   2.482 -0.2547  0.0845  0.2171
26507W        W42124   3.488  12.548   4.959  0.0751 -0.0644  0.1838
26508W        W42125   1.083   4.518   0.500 -0.1522  0.1715 -0.2550
26509W        W42126   5.409   8.110   3.504  0.0962  0.3141 -0.1489
26510W        W42127  12.526   5.669  12.113  0.1355 -0.2438  0.2858
26511W        W42128  15.802  18.163  12.933  0.3645  0.2275 -0.1075
26512W        W42129  17.503   2.983   3.881 -0.0075  0.2325 -0.0237
26513W        W42130   9.204   1.270   4.450  0.1121 -0.0637  0.1533
26514W        W42131   2.512  10.315   0.281 -0.0867 -0.2221 -0.4550
26515W        W42132  17.182   1.331   0.814 -0.4277  0.1005  0.4754
26516W        W42133  14.290   9.660   4.372 -0.0669 -0.2233 -0.3662
26517W        W42134   6.904  13.027  15.483  0.0690  0.0043 -0.1295
26518W        W42135   3.165   5.836   3.743  0.0998 -0.3455  0.3834
26519W        W42136   2.290   0.174   3.774 -0.0394 -0.0265  0.0558
26520W        W42137   0.875  14.065   4.843 -0.5123 -0.0003 -0.1183
26521W        W42138   2.778  17.695  13.136 -0.1232  0.0550  0.1195
26522W        W42139  17.506   5.848  13.940 -0.1287 -0.1094 -0.1710
26523W        W42140  12.211   4.015   2.532  0.2934 -0.1490  0.2925
26524W        W42141  13.345   3.039  12.475 -0.0077  0.0798  0.0131
26525W        W42142  11.635   5.365  13.970 -0.2736 -0.4089  0.1941
26526W        W42143   6.879  17.837   2.994  0.1342 -0.0246 -0.2007
26527W        W42144  18.433  15.282   0.317 -0.1929 -0.2691 -0.2591
26528W        W42145   9.914   5.381  11.806 -0.2262  0.1233  0.4656
26529W        W42146  15.262  11.926  11.096  0.2949  0.0299 -0.1096
26530W        W42147  16.749  17.840  14.152 -0.0451  0.2025  0.0747
26531W        W42148   8.030   5.568  11.962 -0.2267 -0.2572 -0.1947
26532W        W42149   7.394  16.095  11.885 -0.0141 -0.2157 -0.2845
26533W        W42150  12.873   0.961  11.947  0.2512 -0.0634 -0.2309
26534W        W42151  14.059   4.805  12.476 -0.0823 -0.2455  0.0859
26535W        W42152  14.111   1.031  11.817  0.1406 -0.1020 -0.0332
26536W        W42153   6.915  15.668   4.445  0.0504 -0.1242 -0.1817
26537W        W42154   4.944   1.615  12.203  0.1760  0.1110  0.0536
26538W        W42155   1.723  11.814   1.496 -0.1317 -0.0418  0.0628
26539W        W42156  11.162   1.433  12.780 -0.2965 -0.3759 -0.0962
26540W        W42157  15.508   2.233   1.465  0.2253 -0.0402  0.0927
26541W        W42158   9.759  16.973  11.492 -0.2964 -0.3160 -0.2000
26542W        W42159   7.886   8.764   3.531 -0.1777  0.1735 -0.3469
26543W        W42160   4.785   2.944   3.218  0.0757 -0.0550  0.1307
26544W        W42161  16.186   3.910   2.989  0.0774  0.0192  0.0302
26545W        W42162  10.270  11.053  11.201  0.0288  0.0236 -0.2761
26546W        W42163   1.226   4.873   2.953  0.1514 -0.3674 -0.2175
26547W        W42164   4.877   6.676  14.255 -0.1039  0.2476  0.0591
26548W        W42165  13.894  16.949   4.893 -0.1984 -0.3126 -0.1352
26549W        W42166   4.461  17.105   4.622 -0.2479  0.1704  0.4396
26550W        W42167   2.340  13.744  13.563  0.1662  0.1709  0.2618
26551W        W42168  11.558   7.673   1.603  0.0196  0.0916  0.0975
26552W        W42169  18.538   9.521  14.792  0.2538  0.0408  0.0765
26553W        W42170   3.858  12.826   4.481  0.0284 -0.3537  0.0286
26554W        W42171   6.018  18.254  11.175 -0.2334 -0.1714 -0.1398
26555W        W42172   4.887  15.168   1.286  0.1709 -0.3690  0.1172
26556W        W42173  13.182   9.466   2.933 -0.2728 -0.2773 -0.0353
26557W        W42174   2.526   2.079  10.976  0.3458 -0.0330 -0.2902
26558W        W42175   9.669  18.034   3.260 -0.0980 -0.2676  0.0408
26559W        W42176   6.686  11.413  14.230  0.2646  0.2785 -0.0956
26560W        W42177  17.562   5.609  14.411 -0.2131  0.1398  0.0283
26561W        W42178   6.990  11.755  15.712  0.2823  0.1892 -0.0812
26562W        W42179   7.448   4.556   4.613 -0.0688  0.1121  0.3079
26563W        W42180   3.115   0.765  12.634  0.1110  0.2207  0.0021
26564W        W42181   3.240  10.187  11.185 -0.1103 -0.2380  0.2644
26565W        W42182   7.361   7.019  14.893  0.0060 -0.0059 -0.2017
26566W        W42183  10.600   7.679  10.468 -0.0969  0.0079  0.0210
26567W        W42184  13.971  10.783   2.163  0.1583  0.2843  0.1919
26568W        W42185   7.885   9.667  11.947 -0.1538 -0.0898 -0.0410
26569W        W42186   5.126  15.383   1.762 -0.2153 -0.1757 -0.0003
26570W        W42187  11.289   6.028   0.861  0.2025  0.0034  0.0018
26571W        W42188  16.000   0.536   3.685  0.0050 -0.1472 -0.1370
26572W        W42189   0.581  16.003   0.941  0.0844  0.1559 -0.2883
26573W        W42190   1.361   7.261  12.571  0.3778  0.2120  0.2673
26574W        W42191   7.280   2.354   2.621  0.0243 -0.0671  0.3745
26575W        W42192  11.021   0.950  12.441  0.2510 -0.2889  0.1391
26576W        W42193   8.746  17.206   2.940 -0.0390  0.0945  0.2063
26577W        W42194   7.443  11.272  11.453  0.0195 -0.0957  0.2351
26578W        W42195   9.840   2.398   4.051  0.1379 -0.0419  0.3838
26579W        W42196  16.421   1.616  12.127 -0.0904  0.4369  0.1251
26580W        W42197   7.898  18.120   4.391 -0.2529 -0.1495  0.0071
26581W        W42198  17.097   7.978  10.987  0.2239 -0.3237  0.2051
26582W        W42199   8.233   2.135   6.134 -0.1117  0.0049  0.0565
26583W        W42200  10.150   0.700  14.487  0.1726  0.0431 -0.0171
26584W        W42201   2.048   9.286   3.828 -0.0079 -0.3454 -0.1550
26585W        W42202  16.662   2.113  15.679 -0.0883 -0.2877 -0.0170
26586W        W42203  10.763  17.137   0.351 -0.0155  0.0122  0.0712
26587W        W42204  10.475   6.053  14.353 -0.0524 -0.0521 -0.3554
26588W        W42205   4.697  17.774   3.074 -0.2210  0.2263 -0.0217
26589W        W42206   7.242   0.641  12.602 -0.2972 -0.0446  0.3788
26590W        W42207   9.311   2.036  14.739  0.0238  0.3341 -0.1881
26591W        W42208  17.588  11.279   3.394 -0.2193  0.0004  0.1013
26592W        W42209   6.801   6.583   3.640  0.0978 -0.0427 -0.1525
26593W        W42210  15.464   6.962   0.951  0.0068  0.1237 -0.0044
26594W        W42211   2.132   7.405  12.207 -0.2507 -0.1159  0.0330
26595W        W42212  11.461   0.175  14.867  0.0131  0.0480  0.3506
26596W        W42213   4.781  10.244   2.032  0.4847 -0.2269  0.0097
26597W        W42214   9.236  12.614   4.747 -0.1742 -0.0364  0.1997
26598W        W42215  15.898   6.100  14.246 -0.1058 -0.2179  0.0163
26599W        W42216  14.883  14.979  12.216 -0.2391 -0.2267 -0.0212
26600W        W42217  11.906  12.096   0.740 -0.3638  0.2647  0.1066
26601W        W42218  15.301  16.815   1.444 -0.1883 -0.1688  0.2220
26602W        W42219   6.310  13.900   3.243  0.1962 -0.0349 -0.2724
26603W        W42220  12.341  16.386  11.830  0.0866  0.3614 -0.1216
26604W        W42221   6.512  14.128   0.481  0.2133 -0.1497 -0.2098
26605W        W42222  18.446   9.003   3.579 -0.1393  0.0272  0.4628
26606W        W42223   3.067   4.773   4.461 -0.0275  0.3271 -0.0714
26607W        W42224   8.261  14.653  10.135  0.0951 -0.1437 -0.0777
26608W        W42225   4.757  15.782  10.767  0.1161  0.0851 -0.3467
26609W        W42226   9.719  10.390   1.599 -0.3519 -0.1424  0.0358
26610W        W42227   8.944   0.755  13.304 -0.0054  0.0339  0.2242
26611W        W42228  17.584   2.170  13.376  0.0260  0.2135  0.0635
26612W        W42229   6.176   2.989  10.070 -0.0563  0.0375 -0.3579
26613W        W42230   9.970  11.238   2.678  0.2002  0.1404  0.2106
26614W        W42231   1.922   0.678  13.153  0.1395 -0.2954  0.5491
26615W        W42232  15.641   2.231   4.330 -0.2778 -0.1141 -0.1824
26616W        W42233  15.029   9.673   4.165  0.3247  0.1090  0.0279
26617W        W42234   0.951   5.398   0.630  0.1933  0.0036 -0.1870
26618W        W42235   3.091  14.419   9.850  0.0401 -0.4173  0.2595
26619W        W42236   1.544  14.699   1.136  0.1164 -0.1111  0.1818
26620W        W42237   1.362  16.774  14.335  0.5222  0.1016 -0.0461
26621W        W42238  16.632   1.447  13.603 -0.3915 -0.4546  0.1007
26622W        W42239   9.129   6.075  13.710 -0.1802 -0.1603  0.0836
26623W        W42240   5.177  17.742   0.657 -0.0125  0.0143 -0.2462
26624W        W42241  16.355   9.888   3.936 -0.0265 -0.0190 -0.1172
26625W        W42242  16.293   0.165  15.450 -0.0722 -0.1176  0.1946
26626W        W42243  18.576  16.528   0.654  0.0406  0.1894 -0.3339
26627W        W42244  10.817  13.416   3.625  0.2553  0.0778  0.1118
26628W        W42245  12.706  13.000   3.005  0.2987 -0.0926 -0.1183
26629W        W42246  11.870  17.701  11.718  0.1397 -0.0612 -0.3287
26630W        W42247  12.306   5.952   5.459  0.0066 -0.1232  0.1356
26631W        W42248   8.939   2.951  12.788  0.2533 -0.3066  0.0299
26632W        W42249  15.139   7.715  12.501  0.1059  0.0721  0.1071
26633W        W42250  15.382   5.424  11.645 -0.3199 -0.0563  0.0949
26634W        W42251  11.216   1.244   1.653  0.0133  0.1894 -0.0343
26635W        W42252   3.869  13.663  12.165 -0.0734 -0.2171 -0.0124
26636W        W42253   9.686  17.101   3.206 -0.2337  0.1725  0.1406
26637W        W42254  12.664  10.051   3.716  0.0415  0.0872 -0.1222
26638W        W42255  17.135  14.057  11.868 -0.0794 -0.0505  0.3248
26639W        W42256  16.152  10.892   1.682 -0.1109 -0.3598 -0.4433
26640W        W42257   5.611   2.005  13.990  0.0925 -0.2122  0.1139
26641W        W42258  12.099  12.063  10.825  0.2192 -0.1563 -0.1025
26642W        W42259   5.041  10.330   1.643  0.1881 -0.0712  0.2001
26643W        W42260  16.707   6.881  10.980  0.0014  0.2426 -0.0771
26644W        W42261  16.942   1.407   3.736 -0.1913 -0.0727 -0.1674
26645W        W42262   1.576  15.182   1.978  0.0649 -0.0750  0.0750
26646W        W42263   5.829   9.175   5.763 -0.1050  0.1248  0.0389
26647W        W42264   9.920  11.871  11.629  0.2002 -0.0006 -0.3273
26648W        W42265  17.683   0.883   1.411  0.0927 -0.1840 -0.2774
26649W        W42266   1.806   7.421   4.124  0.2233  0.0350 -0.1262
26650W        W42267   9.382  14.865  14.522  0.0160  0.0918  0.2093
26651W        W42268   2.882  10.950  11.310 -0.0289  0.4145  0.1433
26652W        W42269   0.529   2.565   2.505 -0.0297 -0.0529 -0.1273
26653W        W42270  16.835   1.319  15.321 -0.0484  0.3686 -0.0557
26654W        W42271  18.187   0.305   4.490 -0.1199  0.0393  0.0449
26655W        W42272  17.237  17.592   3.531 -0.1254 -0.1049  0.0829
26656W        W42273  13.225   1.863   4.672  0.2268  0.3135  0.3807
26657W        W42274  12.147   6.926   5.076 -0.1009  0.0721  0.2274
26658W        W42275  17.157  17.949   3.084 -0.1617  0.0354 -0.0410
26659W        W42276   2.158  12.289   1.403 -0.1292  0.0497 -0.3895
26660W        W42277  11.174  16.512  11.290 -0.3464 -0.2731  0.1654
26661W        W42278   2.031   0.114  14.667 -0.0093 -0.1854  0.4242
26662W        W42279  15.026  10.439  14.479  0.0560 -0.1230 -0.1362
26663W        W42280   2.512  13.668  14.874  0.0284 -0.0085  0.0779
26664W        W42281  16.024   7.090  14.018 -0.1058 -0.0209  0.1469
26665W        W42282   7.133  14.344  12.625 -0.0808  0.0984  0.4249
26666W        W42283  15.844   5.395  12.736  0.1201  0.6335 -0.3313
26667W        W42284   6.912  16.296   0.095 -0.0569 -0.2358 -0.2551
26668W        W42285   7.446   6.797   0.733  0.0151  0.0004 -0.2381
26669W        W42286   5.429   6.723   5.412 -0.1465 -0.1028 -0.0450
26670W        W42287   9.778  14.435   5.221 -0.1603 -0.3960 -0.1378
26671W        W42288   9.419   8.415  13.714 -0.0586 -0.1677  0.0370
26672W        W42289   8.952   6.179   4.473 -0.0629  0.0619  0.0665
26673W        W42290   2.148  10.350   3.702  0.5010  0.3250 -0.0245
26674W        W42291  13.274   8.725  11.986 -0.2608  0.0340  0.4673
26675W        W42292  12.158   3.526   3.742 -0.5429  0.3561 -0.1616
26676W        W42293  16.587   1.181   5.504  0.1783  0.0005  0.0653
26677W        W42294  13.413  17.620  14.648  0.0548  0.0518 -0.0404
26678W        W42295  17.933   3.290   4.560 -0.0836 -0.2753 -0.0014
26679W        W42296   1.548  12.812  12.076 -0.1341 -0.0429 -0.0558
26680W        W42297   4.920   2.454  13.708 -0.0968 -0.0910  0.3373
26681W        W42298   2.740   2.607   4.661  0.0971 -0.0130  0.2328
26682W        W42299   2.691   5.128   0.866  0.1524  0.0008 -0.2172
26683W        W42300  13.436  11.709   1.558 -0.1370  0.0485 -0.2888
26684W        W42301  14.522   3.088   4.853  0.1954  0.0996  0.2482
26685W        W42302   7.287  13.660   1.523 -0.2538 -0.0697 -0.1184
26686W        W42303  16.451  11.870   9.839  0.1478  0.1390  0.1701
26687W        W42304  17.601  13.219  11.482  0.1426  0.0862  0.3680
26688W        W42305   3.784   9.231   4.882  0.0760  0.2462  0.0013
26689W        W42306   9.803  13.704  15.368 -0.1342  0.4686 -0.0296
26690W        W42307   2.537  12.063  15.641  0.0706  0.1252  0.3035
26691W        W42308   7.510   2.631   4.821 -0.1140 -0.4958  0.1159
26692W        W42309   0.884   3.006   3.734  0.0566  0.2785 -0.1514
26693W        W42310  13.392  17.387  13.077  0.1100 -0.0522  0.2182
26694W        W42311  10.088   6.477   1.878  0.0319 -0.1084  0.2507
26695W        W42312   5.089   4.380  14.505  0.1070  0.2645 -0.1263
26696W        W42313   3.727  15.980   3.901 -0.0582  0.0665  0.0285
26697W        W42314   1.811   2.320  12.739  0.0652 -0.2884  0.2597
26698W        W42315  15.305  18.120   4.033  0.0606  0.3489  0.2314
26699W        W42316  16.109   0.051  14.880  0.0945  0.2450 -0.6597
26700W        W42317  16.297  13.018  12.231  0.1507 -0.2684 -0.1090
26701W        W42318   0.130  10.154  14.259  0.3208  0.0128 -0.0611
26702W        W42319  14.794   5.115  12.107  0.1838  0.1012  0.0649
26703W        W42320  11.123   0.671  14.844  0.1134 -0.1083 -0.1085
26704W        W42321  17.877  10.318   1.778 -0.1906  0.2860  0.2476
26705W        W42322   9.582  18.428  14.494  0.0211  0.0114  0.2151
26706W        W42323  14.396   7.036   3.809  0.2949 -0.0143  0.1422
26707W        W42324   0.986   8.838  11.349  0.1274  0.1803  0.0795
26708W        W42325  17.225   7.482  11.538  0.0369  0.0749 -0.3323
26709W        W42326   3.644  18.250   4.006 -0.2379  0.1081 -0.1275
26710W        W42327  12.139   5.943   2.381  0.0708 -0.0683  0.1297
26711W        W42328  12.796  17.089   5.850  0.3197  0.0175 -0.1637
26712W        W42329  16.644   6.130   1.099 -0.1075  0.0953 -0.0167
26713W        W42330   7.005  11.715   1.414 -0.3661  0.2307  0.0462
26714W        W42331   7.752   3.705   2.343  0.4240  0.0175 -0.0784
26715W        W42332  12.648   5.973   1.428 -0.0591  0.1752  0.1705
26716W        W42333  16.693   4.489   1.706  0.0034  0.1583 -0.0306
26717W        W42334  16.456   6.888  14.469  0.2981  0.0177 -0.0783
26718W        W42335   0.653  12.622   3.335  0.2392 -0.0131  0.0930
26719W        W42336  15.252  14.004   2.714 -0.0950 -0.1037 -0.2788
26720W        W42337  14.941   2.626   0.037  0.1239  0.0328 -0.0574
26721W        W42338  15.630   8.924   3.942  0.0908  0.0302  0.0399
26722W        W42339   7.152  11.054   0.782  0.3786  0.1422  0.1771
26723W        W42340  18.551  14.385   0.447 -0.0303 -0.3510  0.1997
26724W        W42341   5.326  10.157  12.591  0.1882  0.1179 -0.0121
26725W        W42342   5.298   5.789   2.230 -0.3778  0.0839 -0.0253
26726W        W42343   3.188  15.796   3.965 -0.2037  0.0775  0.2164
26727W        W42344   4.897  13.272  14.526 -0.0301  0.0850 -0.1035
26728W        W42345   5.600   6.245   2.317 -0.1250 -0.0111 -0.2828
26729W        W42346   7.198   1.480   3.266  0.1472  0.1737  0.2319
26730W        W42347  14.388  11.151   0.649 -0.1269  0.0597 -0.1979
26731W        W42348  18.419   8.822  15.328  0.1682  0.1997 -0.2277
26732W        W42349   6.706   4.167   1.456  0.2139  0.0841  0.0130
26733W        W42350   0.363   7.591  15.028 -0.0804 -0.0855 -0.0688
26734W        W42351   4.394   4.247   0.506  0.3696  0.0351  0.0907
26735W        W42352  10.007   3.901   3.555 -0.0111 -0.0958  0.2597
26736W        W42353  13.494  13.506   0.373 -0.0278  0.1515  0.1186
26737W        W42354  10.191   2.023  13.449 -0.2116 -0.0354 -0.3040
26738W        W42355  12.761  13.971  13.971  0.3207 -0.0208  0.3269
26739W        W42356  18.395  11.661   2.172 -0.1311  0.0867  0.3391
26740W        W42357  16.347   6.298  15.099  0.1157 -0.0936 -0.1422
26741W        W42358  18.641   2.254  13.994  0.0615 -0.0542  0.3241
26742W        W42359   4.507   9.135   0.985 -0.0203 -0.2734 -0.0016
26743W        W42360   9.634  17.503  14.479 -0.2246  0.1312  0.6208
26744W        W42361   5.777  15.533   3.605 -0.1330 -0.1980 -0.1190
26745W        W42362  10.412   9.910   1.852 -0.2268 -0.1296  0.1751
26746W        W42363   4.822   4.306   5.254 -0.0025 -0.1159 -0.0923
26747W        W42364   6.869   7.122  15.078  0.1644  0.0013 -0.1048
26748W        W42365   9.590   9.639  12.857 -0.1286 -0.3755 -0.3262
26749W        W42366  15.878  15.154   4.476  0.0445 -0.0875  0.3358
26750W        W42367  15.822   1.122  15.625  0.1076  0.2754 -0.3612
26751W        W42368  17.961   5.336   0.636  0.0766 -0.1351  0.1876
26752W        W42369   5.933   4.211  12.387  0.0534 -0.2607  0.0873
26753W        W42370  15.306   5.878  13.667  0.0984 -0.1724  0.1920
26754W        W42371   0.900  12.703  14.300 -0.1863  0.0687 -0.0873
26755W        W42372   7.899  15.618  13.652  0.1505  0.0313  0.3635
26756W        W42373   0.501   1.259  11.514 -0.2257  0.2635  0.1894
26757W        W42374  12.395  16.607  14.628 -0.0755  0.1141  0.0925
26758W        W42375  17.172   4.043   2.142 -0.0839  0.0243  0.2889
26759W        W42376   7.176  12.423  15.300 -0.0257 -0.0245  0.0445
26760W        W42377  12.640   2.386  12.018 -0.1162 -0.1299 -0.1636
26761W        W42378  10.040  17.129  14.527 -0.1153  0.0507 -0.2229
26762W        W42379   4.653  14.063  12.720 -0.2790 -0.0236 -0.2259
26763W        W42380   1.640  18.012   0.412 -0.1198  0.1432 -0.2550
26764W        W42381  14.575   2.819  11.780 -0.0932  0.1202 -0.0854
26765W        W42382  13.338   5.116  15.046 -0.2656 -0.2427  0.2975
26766W        W42383   3.014   6.888  13.351  0.3257 -0.0716 -0.0673
26767W        W42384   8.889   9.709   4.707 -0.0589  0.0038  0.2512
26768W        W42385   4.471   0.828   4.062 -0.0856 -0.2092  0.0090
26769W        W42386  16.774   9.368   5.503  0.0410 -0.0594  0.0840
26770W        W42387  13.608   3.218   4.658  0.1066 -0.1038 -0.1163
26771W        W42388  11.132  14.757   5.468 -0.2080  0.0283 -0.2461
26772W        W42389   4.289  15.128  15.351  0.0619  0.0900  0.1581
26773W        W42390  13.147  13.094   2.236  0.0920 -0.0188 -0.1573
26774W        W42391   3.938   3.203   3.238  0.0375 -0.0965  0.0123
26775W        W42392   9.536   9.484   1.742  0.2354  0.2768  0.1641
26776W        W42393   9.445  15.292  11.087  0.2040 -0.1360 -0.1892
26777W        W42394   4.016   7.779  10.448 -0.0617  0.0072 -0.1154
26778W        W42395  13.854   1.046   6.463 -0.4254  0.2177 -0.0881
26779W        W42396  12.444  15.272   5.042 -0.1553 -0.0339  0.0567
26780W        W42397  12.973  16.112   1.509  0.0584 -0.1744 -0.0453
26781W        W42398  17.357  13.098   0.231  0.1990 -0.1141 -0.0272
26782W        W42399   9.551  12.893  13.004  0.1746 -0.2738 -0.0637
26783W        W42400  11.365  17.176   4.107 -0.0621  0.1955 -0.2130
26784W        W42401   5.221  14.601   5.646  0.0857 -0.0559  0.0852
26785W        W42402  10.071   1.278   1.326  0.1781  0.2522  0.0434
26786W        W42403  10.403  18.492  15.752  0.1086 -0.0175 -0.2744
26787W        W42404   9.178   0.536  15.189 -0.0033  0.1397 -0.1696
26788W        W42405  18.457  15.802  12.022 -0.0375 -0.0527 -0.1822
26789W        W42406  17.141   5.176   3.587 -0.2045 -0.0520 -0.1042
26790W        W42407   8.183   9.600  12.950 -0.1560  0.0556 -0.0301
26791W        W42408  12.585  14.788  10.072  0.0357  0.2346 -0.1887
26792W        W42409  16.652  14.531   4.455  0.1924  0.2055 -0.2816
26793W        W42410   9.694  16.720  14.522 -0.0848  0.0933 -0.2921
26794W        W42411  18.353   4.086   2.822  0.1082  0.1388 -0.1696
26795W        W42412   3.941   9.835   3.322  0.1102 -0.0085  0.1494
26796W        W42413  12.137  16.703   4.260  0.1878 -0.0993 -0.0944
26797W        W42414  14.240  10.938   4.061  0.0513  0.0270 -0.0890
26798W        W42415  14.867   7.132   5.773 -0.3525 -0.0652 -0.3093
26799W        W42416   9.009  10.136   4.932 -0.2015  0.0827 -0.1678
26800W        W42417   2.815   3.888   3.476 -0.2232 -0.0181  0.2445
26801W        W42418   6.469  13.380  14.679  0.2222  0.2069 -0.1486
26802W        W42419  10.807  15.707   5.187 -0.3476 -0.2047 -0.3655
26803W        W42420   7.693   7.828  12.750  0.1416 -0.0194 -0.1057
26804W        W42421   8.828   5.361  11.741 -0.2324 -0.0420  0.2057
26805W        W42422   5.071   7.549   1.848 -0.0356 -0.0830 -0.1264
26806W        W42423   1.443  15.250   2.529 -0.3295  0.1439  0.0599
26807W        W42424  18.053  10.802   1.608 -0.0451  0.1154  0.1116
26808W        W42425  13.078   1.967   3.782 -0.0799  0.1049 -0.1323
26809W        W42426   4.567   8.911  15.561  0.1919 -0.0138  0.0580
26810W        W42427   6.071  17.643   0.876 -0.1292 -0.3637  0.0942
26811W        W42428   1.549   0.982   2.633 -0.1799  0.0918  0.0432
26812W        W42429   5.723  15.393  12.912  0.0953  0.1676 -0.0458
26813W        W42430   4.356   0.847  14.195 -0.1291 -0.0760 -0.1276
26814W        W42431   8.278  10.069  11.182  0.2841 -0.0929 -0.1849
26815W        W42432  12.245   0.748   2.053 -0.3723  0.1517 -0.1586
26816W        W42433   7.129   7.470   5.780  0.2004  0.0070 -0.3360
26817W        W42434   1.878  11.261  11.186  0.1371  0.5100 -0.0358
26818W        W42435   4.354   2.645   1.339  0.2176  0.2192  0.1951
26819W        W42436  13.652   0.514   1.980  0.2452 -0.1683 -0.0544
26820W        W42437   4.204  10.520   2.547 -0.0460 -0.0701 -0.3269
26821W        W42438   0.593   6.079   3.275  0.0326 -0.2374  0.1317
26822W        W42439  10.619   4.080  15.404  0.1869 -0.1680 -0.0962
26823W        W42440  13.237   4.027   5.158 -0.3391  0.1830  0.1379
26824W        W42441  11.169  17.004  11.891  0.0007 -0.0585  0.1381
26825W        W42442   8.853   7.268  10.796  0.3491 -0.1905  0.2371
26826W        W42443   6.932   9.884   1.042 -0.1855  0.1303  0.0645
26827W        W42444   8.326  17.836  14.738 -0.2019  0.2703 -0.0419
26828W        W42445  12.464   7.672   2.017 -0.2227 -0.0464 -0.0710
26829W        W42446  13.588   9.645  15.055  0.0266 -0.0107 -0.2169
26830W        W42447   4.606  16.371   3.774  0.3075 -0.2035  0.0203
26831W        W42448   2.377   0.565  13.084  0.2385  0.2230  0.0762
26832W        W42449   2.227   6.228   0.098  0.0968  0.0521 -0.0615
26833W        W42450   3.550   3.297  12.425 -0.2333 -0.0637 -0.1408
26834W        W42451  12.088   4.701   2.152 -0.1246  0.1382  0.0732
26835W        W42452   6.557  10.765  11.520 -0.2693 -0.2921  0.3393
26836W        W42453  17.966  10.220  11.990 -0.0975 -0.1685  0.0472
26837W        W42454   5.801   5.450   4.123 -0.3373  0.0751 -0.0000
26838W        W42455  13.490   7.809   0.403 -0.1244 -0.0467  0.0597
26839W        W42456  11.624   8.161  14.257 -0.0142 -0.3022  0.2291
26840W        W42457   8.174   4.966  15.107  0.0985  0.1642 -0.2110
26841W        W42458  18.246  12.306  15.238 -0.1469 -0.1563  0.0040
26842W        W42459   4.926  12.709   1.283  0.1549 -0.4179 -0.1708
26843W        W42460   9.312  13.536   1.298 -0.5255  0.3253  0.2137
26844W        W42461   1.033   6.821  13.457 -0.1607 -0.0070  0.1991
26845W        W42462   7.301   7.829  14.440 -0.2853 -0.1775  0.1202
26846W        W42463  13.165   5.532   4.983  0.1055 -0.0156 -0.0258
26847W        W42464   1.516   4.975   4.582  0.0683  0.3903  0.1267
26848W        W42465   3.403  11.986   2.717  0.1929  0.0499 -0.2123
26849W        W42466   0.537  17.407  15.678 -0.1122 -0.3280  0.4145
26850W        W42467  18.555  15.902  15.309  0.0728 -0.0336 -0.1447
26851W        W42468  18.130   5.478   3.802  0.1091  0.2637 -0.2883
26852W        W42469  17.570  10.742  15.727 -0.4738  0.3400  0.3146
26853W        W42470   0.872  16.264  13.290  0.0344 -0.0098  0.0096
26854W        W42471   6.517  17.800  14.052 -0.1956  0.2092 -0.1761
26855W        W42472  16.655   2.230   1.112 -0.0518  0.0626  0.1686
26856W        W42473  16.411  16.500  15.117  0.0985  0.1025  0.2229
26857W        W42474  18.362   5.508  12.019  0.0856 -0.0192  0.0429
26858W        W42475  18.039   6.140   1.426 -0.2340  0.3395  0.0961
26859W        W42476  10.784   1.017  15.114 -0.1127 -0.0408 -0.4511
26860W        W42477   5.729   9.890   4.257 -0.0576 -0.3285 -0.1071
26861W        W42478   7.306   0.610   4.091  0.2332  0.1667 -0.0481
26862W        W42479   3.371  12.938   3.625 -0.0408 -0.0158 -0.5729
26863W        W42480   5.046   9.532  11.450  0.1246 -0.0568 -0.3131
26864W        W42481  11.095   2.669   5.238 -0.0421 -0.0578 -0.1520
26865W        W42482   3.206  15.079   4.464  0.0732  0.1297  0.1387
26866W        W42483  10.773  11.203  13.933 -0.2416  0.5183 -0.1342
26867W        W42484   7.442  15.198   2.099  0.1146  0.1153 -0.1486
26868W        W42485   6.463   4.143   4.659 -0.0897  0.0453  0.0037
26869W        W42486   9.757  13.100   2.949 -0.1596 -0.1693 -0.0852
26870W        W42487   5.675   0.369  11.647  0.1287  0.0331  0.1976
26871W        W42488   2.657   2.799   1.428  0.0492 -0.1019 -0.0210
26872W        W42489   4.400   6.514  14.022 -0.3202  0.0739  0.0232
26873W        W42490  15.417   6.456   2.915  0.0142  0.5113 -0.0447
26874W        W42491  14.416   0.799   5.436 -0.0721  0.0592  0.1156
26875W        W42492   1.150  12.079   2.318  0.0247  0.2136  0.1315
26876W        W42493  11.146  15.015   4.696 -0.2812 -0.3219  0.0990
26877W        W42494  17.278   9.451  12.569  0.1220  0.4247  0.0237
26878W        W42495   6.626  12.952  14.312 -0.0041 -0.0622  0.2023
26879W        W42496   1.102  14.965   1.623 -0.0290 -0.0046  0.0704
26880W        W42497  18.445  11.781  12.383  0.2914 -0.1821  0.2409
26881W        W42498  17.816  14.866   0.989 -0.4453  0.1990  0.0265
26882W        W42499   3.513   7.623   2.206 -0.1532  0.1832  0.4268
26883W        W42500   6.307  14.042   1.363  0.1561 -0.1201  0.0151
26884W        W42501  16.708  14.942  10.699 -0.3237 -0.2707 -0.0152
26885W        W42502   5.921   8.393   2.233  0.3993  0.2300 -0.3205
26886W        W42503   7.367  10.861  15.765  0.3165 -0.2113 -0.1497
26887W        W42504  15.158  18.427   1.235  0.0700 -0.3072 -0.0391
26888W        W42505  15.045   9.490   9.501 -0.0103  0.1622  0.0299
26889W        W42506   1.342   7.224   3.334  0.2072 -0.0844  0.1707
26890W        W42507   7.233   3.492   5.350  0.2392  0.2575  0.2732
26891W        W42508  13.060  12.934   2.681 -0.1203  0.2417  0.0494
26892W        W42509   1.334   3.691   2.671 -0.4770  0.0446 -0.1566
26893W        W42510  17.613  11.152  13.436 -0.0544  0.2790  0.0804
26894W        W42511   1.396   6.092   0.433  0.0254  0.0246 -0.0891
26895W        W42512   7.095  16.726   0.179  0.1772  0.2053  0.1181
26896W        W42513  11.123   0.061  15.188  0.0815  0.0122 -0.0498
26897W        W42514  18.478   5.581  14.221 -0.1702 -0.2513 -0.0184
26898W        W42515   4.655  15.957  14.563 -0.2504 -0.1762  0.0152
26899W        W42516  14.253   7.507   1.462  0.2709  0.0808  0.3217
26900W        W42517   8.108   7.423  13.214 -0.0570  0.0702 -0.2771
26901W        W42518   2.587   7.881   0.152  0.1109  0.2737  0.0856
26902W        W42519  15.854  15.698   3.408  0.1910 -0.3351  0.0952
26903W        W42520   4.795   0.750   3.214  0.1152 -0.0589 -0.3448
26904W        W42521  17.323   7.579   4.238  0.0998 -0.0374 -0.0145
26905W        W42522   6.451  14.678  10.208 -0.1246  0.0409  0.2667
26906W        W42523   7.237  16.138   0.402  0.4329  0.2387  0.1586
26907W        W42524  11.766  11.653  12.757  0.2731 -0.1128  0.0434
26908W        W42525  12.444  13.241  14.408 -0.5175  0.0000 -0.0701
26909W        W42526  10.378   8.815   3.678  0.0455  0.0902  0.0690
26910W        W42527  17.344   9.964  12.643 -0.2601  0.3340 -0.0126
26911W        W42528   2.458  10.690   1.376 -0.3756  0.1453  0.2116
26912W        W42529   7.713  18.439   3.906 -0.0273  0.0691 -0.0427
26913W        W42530   7.649   5.680  13.047 -0.0694 -0.1663 -0.0815
26914W        W42531   9.133  15.575  12.192  0.2747  0.4493  0.0141
26915W        W42532  14.932   0.547  14.275  0.0613 -0.1559  0.1010
26916W        W42533  15.431  16.941   6.470 -0.1535 -0.0501  0.3042
26917W        W42534   5.028   5.126   0.330  0.1147  0.0394  0.2367
26918W        W42535  13.790  13.135  10.987  0.1690 -0.2106  0.2311
26919W        W42536  16.854   5.329  12.055  0.2826  0.0122 -0.1681
26920W        W42537  14.944  17.760  12.816  0.0502 -0.2127 -0.0722
26921W        W42538  16.641  10.231   1.787 -0.0244  0.1413 -0.0247
26922W        W42539   8.612  15.161  11.113 -0.2065  0.1569  0.3719
26923W        W42540   7.585   7.004   3.055  0.3193 -0.1708 -0.2948
26924W        W42541  14.226  13.849   3.598 -0.0042 -0.2215  0.2052
26925W        W42542  14.998   0.480   3.343 -0.1014  0.1854 -0.1666
26926W        W42543  17.307  15.556   3.183 -0.0431  0.1685  0.0327
26927W        W42544   1.863  17.249   2.919 -0.0892 -0.1089  0.0317
26928W        W42545   9.531   8.545   3.361 -0.2318  0.0987 -0.0515
26929W        W42546  18.282  16.991  13.575  0.1927  0.0436 -0.2877
26930W        W42547  14.420  10.060  12.101 -0.0593 -0.0909  0.0336
26931W        W42548   8.284  13.638   3.451 -0.0824 -0.2611 -0.2010
26932W        W42549  17.421   8.605  12.018  0.2656 -0.0397 -0.0846
26933W        W42550   7.706   0.577  14.615 -0.1856  0.2019  0.0134
26934W        W42551   7.151   8.869  12.331  0.1739  0.1033  0.0715
26935W        W42552   2.868   5.883  13.988 -0.2124 -0.0640  0.0765
26936W        W42553   9.047  12.654   1.012 -0.2007  0.2501  0.1011
26937W        W42554   0.152   3.828   4.774 -0.1199 -0.1003  0.1792
26938W        W42555  16.726  17.007   3.960  0.0208 -0.0325  0.0349
26939W        W42556   5.616   5.897   1.543 -0.0063  0.1497 -0.1721
26940W        W42557   0.958  17.642   2.793 -0.1018  0.1759 -0.2101
26941W        W42558   8.200   1.498  15.772 -0.0514 -0.0349 -0.0464
26942W        W42559   5.037  12.536   0.379  0.0820  0.0397 -0.2741
26943W        W42560  14.899   3.722  12.718  0.1119 -0.0574  0.0920
26944W        W42561   9.924  11.345   4.653 -0.0923  0.2095 -0.1618
26945W        W42562   9.962   9.540  10.909 -0.2821 -0.2669  0.0060
26946W        W42563  17.860   2.826  12.354 -0.0765 -0.2366 -0.0423
26947W        W42564  15.813  17.223   3.266 -0.0228  0.0920 -0.1045
26948W        W42565  13.039  17.211  10.189 -0.1428  0.1984  0.1516
26949W        W42566   5.824   5.881   2.016 -0.1151  0.0230 -0.2483
26950W        W42567  14.154  11.162  13.990 -0.1345  0.0202 -0.0460
26951W        W42568   2.170   6.653   2.127  0.1968  0.1623 -0.0322
26952W        W42569   8.578  13.410  15.744  0.4135  0.1199  0.2435
26953W        W42570   6.372   0.068   0.009 -0.3115  0.1908  0.2556
26954W        W42571  12.221  17.098  14.770  0.0535 -0.0142  0.1311
26955W        W42572   4.802  10.764  10.643  0.0166  0.0981  0.1558
26956W        W42573   2.989   7.944  14.299  0.0516 -0.0605  0.1564
26957W        W42574   9.335   8.325   5.708 -0.1901  0.3358 -0.0074
26958W        W42575   3.717   4.946   3.519  0.2525  0.2799  0.0745
26959W        W42576  11.988   4.395  14.883  0.0856  0.2367  0.0805
26960W        W42577   4.396   1.619   0.091 -0.0712 -0.0548  0.1205
26961W        W42578   8.781  16.351  15.753  0.3601 -0.1638 -0.1682
26962W        W42579  17.845   6.833  10.642  0.2933 -0.0678  0.3398
26963W        W42580  12.277   5.042   5.041  0.0395 -0.1073 -0.3112
26964W        W42581   2.434   9.862  10.184 -0.0403  0.2550 -0.0036
26965W        W42582   9.351   4.547  13.940  0.2406 -0.4857 -0.0701
26966W        W42583  11.190  16.681  14.408 -0.0290 -0.0054  0.2320
26967W        W42584   3.485   7.269   3.784 -0.5093 -0.0256 -0.4190
26968W        W42585   2.951   4.066   1.734  0.1601 -0.0401  0.0136
26969W        W42586   9.836  17.983  14.277 -0.2805  0.0069 -0.2281
26970W        W42587   7.306   4.694  13.905  0.0017  0.1227  0.0627
26971W        W42588  16.371  13.947   0.161 -0.0239 -0.1372 -0.0039
26972W        W42589   5.844  15.643   5.120  0.5056  0.0319 -0.3748
26973W        W42590  12.996  14.501  13.061  0.0734 -0.2006  0.0520
26974W        W42591  15.129  17.629  15.544 -0.0508 -0.1961  0.0103
26975W        W42592   0.768   2.245   2.249  0.0739  0.0896  0.3329
26976W        W42593  16.638  18.161  10.492 -0.3818 -0.0888  0.0078
26977W        W42594  13.998  11.662  15.143  0.0129 -0.0139  0.1975
26978W        W42595  17.634   4.618  11.935  0.1710  0.1851 -0.4019
26979W        W42596  11.861  14.522  11.360  0.0443  0.1494  0.2106
26980W        W42597   2.336  16.033   3.522 -0.0927  0.0313  0.0467
26981W        W42598  18.514   3.173  15.295  0.0072  0.1168  0.0685
26982W        W42599   1.697   8.727  14.193  0.3924 -0.1360  0.1245
26983W        W42600  11.028  12.862   1.066  0.0983  0.2178 -0.0214
26984W        W42601   8.498   9.695   0.204  0.1425 -0.3019  0.3141
26985W        W42602  14.159  12.318   3.006 -0.0750 -0.1782 -0.0184
26986W        W42603  12.612  11.093   2.622  0.2070 -0.0298 -0.0614
26987W        W42604  14.353   6.951   3.245 -0.1972 -0.2012  0.2603
26988W        W42605  14.855   7.311   1.948  0.3693 -0.2217 -0.1283
26989W        W42606   7.451  13.647   0.349 -0.0167  0.0699 -0.0934
26990W        W42607   1.744  14.483   3.207 -0.3030 -0.0165 -0.0911
26991W        W42608  13.008  15.304   1.845 -0.1379  0.3320 -0.0678
26992W        W42609   6.605   5.433  15.682  0.4463 -0.0918 -0.1264
26993W        W42610  13.758   6.089  10.845  0.2367  0.1066 -0.2786
26994W        W42611   4.123  13.866   2.456  0.0403 -0.0937 -0.0536
26995W        W42612   7.135   0.103   2.473 -0.1378  0.1668 -0.3440
26996W        W42613   3.572   4.788   4.385  0.1262  0.1537  0.0179
26997W        W42614   6.225   2.279  13.258  0.1941 -0.1640  0.2450
26998W        W42615   0.891   8.026   3.011  0.0503 -0.2842  0.0417
26999W        W42616   1.104   9.438  14.403 -0.1375  0.0797  0.1892
27000W        W42617  14.014   5.645  13.356  0.0906 -0.1738 -0.0777
27001W        W42618   0.907  15.540  12.486  0.4406 -0.0774 -0.1853
27002W        W42619  15.350  15.746   0.805 -0.1871 -0.1191  0.1216
27003W        W42620  16.903   9.052  14.418  0.3017  0.0829 -0.0386
27004W        W42621  11.800   6.603   4.933 -0.0892  0.1888 -0.2444
27005W        W42622   2.728  14.613  14.626  0.2862  0.2750 -0.0706
27006W        W42623  18.320   9.745   4.009  0.0498  0.3579 -0.0425
27007W        W42624  10.218  17.744   1.717  0.0146  0.0163  0.2112
27008W        W42625  12.703   7.568  11.965 -0.1889 -0.2185 -0.2545
27009W        W42626  14.360  13.017  12.633  0.3191 -0.1292  0.2841
27010W        W42627  13.938  17.277   1.839  0.0188  0.2058  0.1882
27011W        W42628  17.627  11.161  15.492  0.1359  0.2277 -0.4425
27012W        W42629   6.648   1.618   4.015 -0.3376  0.0780 -0.1065
27013W        W42630   0.182  17.749   5.027 -0.2279 -0.0344  0.1655
27014W        W42631   4.062   7.612  11.535  0.0547 -0.1369 -0.1747
27015W        W42632   7.998  14.460  10.853  0.5186 -0.3627 -0.4311
27016W        W42633  14.201   6.854  15.475 -0.1674 -0.1970 -0.4624
27017W        W42634  11.230  13.305   1.229 -0.2209 -0.1292  0.1285
27018W        W42635   5.702  14.798  14.101 -0.0406  0.0101  0.0730
27019W        W42636  16.590   3.341  11.953 -0.0756  0.1577  0.2058
27020W        W42637  17.974   2.711   0.249  0.0073  0.1037 -0.2926
27021W        W42638   9.560  14.897   5.271 -0.0651  0.2810 -0.0764
27022W        W42639   8.379  17.010   3.371  0.0692  0.0953 -0.2070
27023W        W42640  14.832   0.006  13.540  0.2913  0.0756  0.2373
27024W        W42641  10.939   3.165   5.419 -0.0457  0.1663  0.1654
27025W        W42642  11.887  17.730   4.847  0.4435 -0.1664  0.1417
27026W        W42643  13.186  18.405  12.547 -0.1127 -0.0814  0.2709
27027W        W42644  13.743   5.417   5.194 -0.2237 -0.5446  0.0648
27028W        W42645   7.125  13.113  13.464 -0.3419 -0.0468 -0.0746
27029W        W42646  12.863  14.652  12.034  0.1382  0.1987  0.1414
27030W        W42647   1.556   5.394   0.770 -0.0670  0.0102  0.0737
27031W        W42648  15.441  16.448   3.227 -0.1125 -0.1678 -0.0332
27032W        W42649  16.655  13.512  10.734  0.0188 -0.1739 -0.1492
27033W        W42650   0.530  14.033   3.600 -0.1756 -0.2830 -0.0816
27034W        W42651  16.155   2.006   0.964  0.2252 -0.1182  0.4835
27035W        W42652  16.019  10.076  13.209  0.0974 -0.1251 -0.2112
27036W        W42653  13.451   8.640   2.862 -0.0155  0.1041  0.1011
27037W        W42654   9.563   2.511   3.164 -0.0447 -0.1076 -0.0360
27038W        W42655   7.902  17.580   4.468 -0.0016 -0.1397 -0.0393
27039W        W42656   0.594   0.946  13.287 -0.1740  0.0044 -0.0115
27040W        W42657  10.686   6.838   4.444 -0.1442  0.0720  0.1833
27041W        W42658  15.255   5.386   3.120 -0.0983 -0.2044 -0.3180
27042W        W42659   9.358  12.857   2.171  0.1200  0.2245  0.0085
27043W        W42660   4.871   6.453  14.724 -0.1721 -0.0150  0.0473
27044W        W42661   6.560   6.168  13.776  0.3115  0.4351 -0.0687
27045W        W42662   3.526   1.884   3.801 -0.2476 -0.2379 -0.1660
27046W        W42663  18.099  15.234   1.270  0.1333 -0.3342 -0.3129
27047W        W42664   9.805  16.121  15.700  0.1791  0.1376 -0.0014
27048W        W42665  11.597  16.844   2.557  0.1983  0.0176  0.0892
27049W        W42666   6.693   6.011  13.309  0.0084 -0.0985 -0.0249
27050W        W42667  10.087  16.508  11.345 -0.0852  0.0144 -0.1095
27051W        W42668   0.172   8.359  12.433 -0.0765 -0.3104 -0.1018
27052W        W42669   2.046   2.040  10.883  0.1688 -0.2163 -0.1686
27053W        W42670   3.384   6.580  14.592  0.0352  0.2217 -0.0651
27054W        W42671  10.261   6.322  11.816  0.0421  0.0629 -0.0508
27055W        W42672   5.462   9.257  10.828  0.3459 -0.0758 -0.0285
27056W        W42673   6.588  10.019  15.413  0.0403  0.0406  0.0561
27057W        W42674  15.034   3.306  12.887  0.1167 -0.1295 -0.0845
27058W        W42675   7.831   1.641  11.830 -0.1436 -0.0161 -0.3212
27059W        W42676  17.532   7.272   0.756 -0.1758  0.1125 -0.0177
27060W        W42677   7.166  10.364   5.225  0.1243 -0.0198 -0.2551
27061W        W42678  12.203  14.723  13.741  0.0956 -0.0539  0.4773
27062W        W42679  17.236   5.476  12.449 -0.0648 -0.2062 -0.2920
27063W        W42680  10.344   8.229  13.491 -0.0650 -0.2154  0.2878
27064W        W42681   8.467  13.699  14.077  0.0964  0.2948  0.0188
27065W        W42682  18.438   2.523   5.249 -0.0435 -0.3611 -0.3134
27066W        W42683   0.711  16.506  12.900 -0.1065  0.2285 -0.3671
27067W        W42684   8.593   6.160   0.906 -0.0384  0.0351 -0.0114
27068W        W42685   0.351   7.622   0.177 -0.1138 -0.2842  0.1766
27069W        W42686  15.845   7.390   0.176  0.1135  0.3496  0.2897
27070W        W42687  15.852  11.257  12.438  0.0185  0.0607  0.0171
27071W        W42688  13.237   0.714   3.460  0.2635  0.1288  0.0735
27072W        W42689  13.884  16.126  14.303  0.2030 -0.2188  0.2103
27073W        W42690   3.248  11.077  15.062 -0.1225 -0.2257 -0.0290
27074W        W42691  12.935  18.208   2.488  0.1189  0.0623 -0.0032
27075W        W42692  15.864  12.392  14.455  0.1147  0.0859 -0.1053
27076W        W42693  17.756   2.626  14.243 -0.2605 -0.0913  0.2382
27077W        W42694  18.215   6.647  14.303 -0.0220  0.0874 -0.0064
27078W        W42695  10.062  15.818  14.198 -0.1552  0.1889 -0.0516
27079W        W42696  13.603   9.899  14.205 -0.0358  0.0605 -0.1582
27080W        W42697  16.782  17.959   5.394  0.3078 -0.2840  0.1445
27081W        W42698   1.321   6.246   3.462  0.2068 -0.3803  0.0798
27082W        W42699  17.686  11.979  11.634 -0.0534 -0.1509  0.2076
27083W        W42700   2.093  10.828  12.717 -0.1939 -0.2354 -0.0604
27084W        W42701  18.222   1.200   1.194 -0.0232 -0.0886  0.0624
27085W        W42702   9.875   5.042   0.533  0.2972  0.1997 -0.0196
27086W        W42703  13.853   5.129  13.776 -0.1624  0.0157  0.1488
27087W        W42704  13.716  11.966   0.639 -0.2234 -0.1352 -0.0110
27088W        W42705  15.301  10.890  10.860  0.0543 -0.3962  0.0667
27089W        W42706   3.825  11.741   3.031 -0.1379  0.3222 -0.0820
27090W        W42707  13.727  14.300  10.980 -0.0335  0.5347  0.0997
27091W        W42708  17.918  16.668   5.591 -0.1225 -0.0096  0.1009
27092W        W42709   3.017  11.591  11.108  0.2436  0.3661 -0.0564
27093W        W42710  10.753   0.935  11.511 -0.0370  0.2587  0.4564
27094W        W42711  17.556  12.663  11.559  0.0023  0.2415 -0.1266
27095W        W42712   6.428   7.403   0.096  0.1978 -0.3613 -0.0361
27096W        W42713   2.382  10.786   3.850  0.1318 -0.1905  0.3060
27097W        W42714   8.724   5.777  15.225  0.1999 -0.6384  0.0960
27098W        W42715  14.669   5.060   4.771  0.1038  0.1903  0.2296
27099W        W42716  16.318  18.480   1.860  0.1349  0.0080 -0.1043
27100W        W42717  17.353  11.307   5.287 -0.1347  0.0267 -0.0105
27101W        W42718  12.716   2.074   2.329  0.0671  0.3145  0.2448
27102W        W42719   7.784   2.285   1.749 -0.3937 -0.2444  0.0424
27103W        W42720  13.775  14.268   4.398 -0.0765  0.3279 -0.0529
27104W        W42721   8.577   8.028  15.137  0.2540  0.0500  0.2530
27105W        W42722  12.683  14.731  13.415  0.2127  0.3879 -0.1714
27106W        W42723   9.165  10.255   2.241  0.1444  0.1437  0.1229
27107W        W42724  13.616  15.196  11.118 -0.3060 -0.1015 -0.0859
27108W        W42725   6.011  14.731  11.572 -0.2101 -0.0400 -0.2858
27109W        W42726   7.825   5.744   1.368 -0.3159  0.2018  0.2006
27110W        W42727   6.734  16.027   0.544 -0.0469  0.2172  0.1766
27111W        W42728   7.462  10.275  13.644  0.0430  0.0756  0.1123
27112W        W42729   7.577  12.864  12.104  0.0736 -0.3430  0.3974
27113W        W42730   8.390  17.555  12.541 -0.3201  0.3145 -0.1040
27114W        W42731   6.191  11.969   1.504  0.0767 -0.1443  0.3259
27115W        W42732   9.292   9.205  14.877 -0.2687  0.0266  0.1691
27116W        W42733  13.223   1.380  12.706  0.1733  0.1549  0.2861
27117W        W42734   8.249   1.865  11.705 -0.3033 -0.3262 -0.3516
27118W        W42735  11.162   4.371   4.102  0.2209 -0.0259 -0.3578
27119W        W42736   4.312  12.823   1.994 -0.0027  0.0712 -0.0290
27120W        W42737   5.714  13.242   1.595 -0.1014  0.0732  0.0513
27121W        W42738   7.781   7.092   2.573 -0.0541  0.5912 -0.0668
27122W        W42739  12.554  12.548  13.715 -0.0327  0.3540 -0.1422
27123W        W42740  16.001   6.076   1.690  0.2499 -0.0589  0.1168
27124W        W42741   8.279  16.282  13.242 -0.4505 -0.0604 -0.1415
27125W        W42742   7.232  13.880   4.335 -0.1652 -0.1873 -0.1489
27126W        W42743  17.065   6.427  12.706 -0.3161  0.0365  0.1645
27127W        W42744  15.613  14.404  11.735 -0.2888 -0.0001  0.1201
27128W        W42745  16.371   6.845   0.690  0.0568 -0.4576  0.2053
27129W        W42746  13.168   7.671   0.888  0.1048 -0.2275  0.2724
27130W        W42747  10.017  16.885  15.092 -0.1043 -0.0232 -0.2501
27131W        W42748  10.649   1.546  15.163 -0.1086 -0.0220  0.0290
27132W        W42749  14.795   0.441   1.720 -0.1307 -0.0808 -0.2305
27133W        W42750  11.526   3.818  11.086  0.0450  0.0305 -0.2238
27134W        W42751  10.683  15.133   4.362 -0.0389 -0.1182 -0.1293
27135W        W42752   7.124  12.592   4.921  0.1548  0.2368  0.2755
27136W        W42753   9.465   7.449   5.654  0.2877  0.1348  0.1939
27137W        W42754   2.606   6.980   1.265  0.0815  0.0562 -0.0627
27138W        W42755  14.080   8.246  12.381  0.2421  0.4073  0.0057
27139W        W42756  13.568   6.764   3.431 -0.1292 -0.1269 -0.1857
27140W        W42757  15.055  12.920  14.922  0.2949 -0.0186 -0.3201
27141W        W42758   7.761  17.846   2.708  0.1494  0.1811 -0.2817
27142W        W42759  10.624  16.814   4.080  0.2297 -0.0250 -0.0771
27143W        W42760  11.739   6.840  15.014 -0.1056 -0.1280  0.1757
27144W        W42761   9.821  12.111  10.551  0.3235 -0.2407  0.1579
27145W        W42762   3.786  13.349  14.541 -0.5022 -0.3175  0.0320
27146W        W42763  14.723   2.827  12.872  0.2567  0.0784  0.1087
27147W        W42764   8.706  15.212   1.242  0.0345  0.3251  0.0698
27148W        W42765  11.777  18.643   1.688  0.0040  0.2001 -0.0559
27149W        W42766   0.786   3.352  12.327 -0.2174 -0.1572  0.0402
27150W        W42767   2.031   4.769   4.541  0.1669  0.1320 -0.1882
27151W        W42768  12.443  16.508   2.850 -0.1501 -0.0836  0.0342
27152W        W42769  10.387   1.077  11.896  0.0854  0.1696 -0.1824
27153W        W42770   1.790   6.822  12.770 -0.0633 -0.4015  0.1087
27154W        W42771  17.720   4.880   4.151 -0.0653  0.0954  0.1320
27155W        W42772  18.413   9.346   3.179  0.3744  0.0665  0.3199
27156W        W42773  15.598  16.167  14.634  0.1052  0.2285 -0.2748
27157W        W42774  16.817   5.080  14.101 -0.1187  0.2034  0.0134
27158W        W42775   7.325   2.909   2.608 -0.1064  0.1401 -0.1986
27159W        W42776   8.325  12.880  15.541  0.0967  0.1994  0.0914
27160W        W42777  16.974  14.490  10.465 -0.2296  0.0318  0.1814
27161W        W42778   9.208  17.308   3.196  0.0266 -0.0545 -0.2879
27162W        W42779   5.651  15.322   1.773 -0.2178  0.2975 -0.2379
27163W        W42780  10.119  12.833  12.785 -0.2615  0.2468  0.3731
27164W        W42781  17.143   5.347   5.033 -0.2847 -0.0587  0.0565
27165W        W42782   4.327  12.501  14.565  0.0010  0.0295 -0.2480
27166W        W42783   7.994   7.474  11.526 -0.0725 -0.1798  0.1705
27167W        W42784  17.286   3.826   3.892  0.0440  0.0053 -0.0490
27168W        W42785  17.155   3.378   5.385  0.0702 -0.0965 -0.0562
27169W        W42786  18.542   8.649  12.747 -0.1163  0.1934  0.2017
27170W        W42787   0.228   3.409   0.410 -0.1316 -0.0496 -0.0700
27171W        W42788  17.944  10.063  10.918  0.0097  0.0681 -0.1856
27172W        W42789   0.219   9.364   3.454  0.1066 -0.0871 -0.0980
27173W        W42790   3.523  13.926   2.667 -0.4001 -0.0459 -0.3053
27174W        W42791  13.395   9.017  14.279  0.2445  0.2390 -0.1737
27175W        W42792  11.413  10.401  12.579 -0.2120  0.2374  0.0530
27176W        W42793  15.805  12.428   3.421 -0.0510 -0.0486 -0.1642
27177W        W42794   3.768   6.352  14.836 -0.0003  0.2644 -0.0088
27178W        W42795  16.796  16.692  14.454  0.1241 -0.0307  0.0840
27179W        W42796   1.314   1.321   0.593 -0.2385  0.3410 -0.5539
27180W        W42797  17.728  18.172  15.161  0.0235  0.0590  0.0727
27181W        W42798  12.693   2.187   1.249 -0.0597  0.5964 -0.2425
27182W        W42799   4.505   5.096   5.756  0.1632  0.0567 -0.0273
27183W        W42800  13.414   0.459   1.522 -0.0008 -0.2377  0.1475
27184W        W42801   0.593   7.155  12.589 -0.2316  0.0003  0.0616
27185W        W42802  10.039   8.089  15.586 -0.1379  0.2716 -0.2431
27186W        W42803   4.877   8.642   1.997  0.0656  0.0388  0.2228
27187W        W42804   5.512   4.038   4.662 -0.3812 -0.3306 -0.3308
27188W        W42805   9.662  11.652  13.460  0.0428 -0.1901 -0.2206
27189W        W42806   3.795  16.908   3.958 -0.4491  0.2594  0.1843
27190W        W42807  15.991   6.534  13.340  0.1993 -0.0145  0.4178
27191W        W42808  15.624  14.820   1.062 -0.1151  0.0351 -0.1268
27192W        W42809  11.297   0.090   0.347 -0.0077  0.2617 -0.1647
27193W        W42810   0.522  13.254  11.679 -0.2962  0.1546  0.1540
27194W        W42811  10.259  10.200   3.010 -0.0585  0.2089 -0.1872
27195W        W42812   6.035   6.253  12.509 -0.2722 -0.1745 -0.3626
27196W        W42813  10.955  16.947   1.145 -0.1927  0.5131  0.0667
27197W        W42814   0.957   6.942  14.382  0.0478 -0.2274 -0.0348
27198W        W42815   3.393   2.112  12.578  0.4898  0.0997 -0.1370
27199W        W42816   7.489  11.741   2.826  0.1940  0.0211 -0.1432
27200W        W42817  17.665   5.238  12.574 -0.0658  0.3456  0.1572
27201W        W42818   8.849  14.162  10.505 -0.1606  0.1325 -0.0317
27202W        W42819  13.187  14.484   1.034  0.2528 -0.4724  0.2121
27203W        W42820   3.155   0.986  12.149  0.5175 -0.0920 -0.0633
27204W        W42821  11.687  15.180   1.899  0.3787 -0.1202  0.2627
27205W        W42822  10.922   8.108  14.879  0.1549 -0.1198  0.1142
27206W        W42823   5.243   5.402  14.669  0.1429 -0.1909 -0.3421
27207W        W42824  12.518   0.735   2.910 -0.1788 -0.0705  0.2760
27208W        W42825  13.501  17.498   3.847 -0.0325  0.2778  0.0558
27209W        W42826   6.051  13.971  10.342  0.2641 -0.1098  0.1335
27210W        W42827  15.596   5.662   0.474  0.1861 -0.0040  0.2779
27211W        W42828   0.487   5.337   4.761  0.1987 -0.2032  0.0343
27212W        W42829   9.532   2.766   0.326 -0.1642  0.1332 -0.2724
27213W        W42830   4.646  18.421   3.206 -0.0999 -0.0057  0.1233
27214W        W42831  18.122  15.640   0.489  0.0513  0.0039  0.0265
27215W        W42832   5.333   5.433   6.321 -0.0949 -0.0345  0.1057
27216W        W42833   3.761   1.982   1.231  0.0494  0.1437  0.0676
27217W        W42834  13.792  11.715   4.427  0.0425 -0.0082 -0.0955
27218W        W42835  14.578  15.625   1.865 -0.0649 -0.0766  0.1299
27219W        W42836   6.096   6.290  13.750  0.1070 -0.2419 -0.0521
27220W        W42837   4.149  13.432  14.910 -0.1215 -0.0998  0.1097
27221W        W42838   4.774  15.930   3.519  0.2601  0.0760 -0.0944
27222W        W42839   6.760  10.626   3.344  0.2352  0.0262 -0.0470
27223W        W42840   0.475  17.929   1.884  0.0748  0.1909  0.0162
27224W        W42841   0.653  10.155   0.290 -0.1853  0.0324  0.2978
27225W        W42842   2.918   1.384   0.014 -0.0160  0.0700  0.1168
27226W        W42843  12.501  13.949   1.706  0.0196 -0.5043 -0.4416
27227W        W42844   0.930  17.281   1.283  0.1897 -0.1682 -0.0006
27228W        W42845  14.271  16.066   4.989 -0.1160  0.0828  0.1161
27229W        W42846   8.588   4.139  14.653 -0.2460  0.1339 -0.1031
27230W        W42847  14.230  10.689   0.123 -0.1469  0.2632  0.1359
27231W        W42848  12.976   0.492   4.777  0.1158  0.1344 -0.2924
27232W        W42849  11.063   9.927  14.212  0.1898 -0.0125  0.1600
27233W        W42850   3.405   9.462   2.751  0.0421 -0.1160  0.1075
27234W        W42851   0.740   6.200   4.834 -0.0714  0.1359  0.0121
27235W        W42852   4.900  15.383  10.212 -0.0072  0.0981  0.0412
27236W        W42853   7.027  15.844  11.630 -0.1853 -0.1250 -0.1845
27237W        W42854  14.767  16.977   3.559 -0.1090  0.2500  0.1152
27238W        W42855  18.537  10.319   2.204 -0.1692  0.0425  0.5317
27239W        W42856  18.159  15.372   2.705  0.3265  0.0278 -0.0729
27240W        W42857   1.330   4.205   3.699  0.2284 -0.0725 -0.0580
27241W        W42858   4.356   2.698   4.896  0.0130  0.1621  0.2507
27242W        W42859   8.553   5.322   1.200 -0.3258 -0.0466  0.5016
27243W        W42860   9.049   9.514  11.220 -0.0697 -0.0393  0.1514
27244W        W42861  13.423  12.415   3.204  0.0047  0.0712  0.2347
27245W        W42862   0.881   4.382  12.661 -0.1759  0.1353  0.2667
27246W        W42863  11.960  14.030   4.870  0.1220  0.2012  0.4089
27247W        W42864  12.284   8.087   4.579 -0.0730  0.1859 -0.2441
27248W        W42865  14.328   5.408  12.939  0.2591  0.2104  0.0222
27249W        W42866   9.922   5.363  12.697  0.4568 -0.1814 -0.0386
27250W        W42867  14.675   6.515  13.750  0.1127 -0.1543  0.0905
27251W        W42868   9.824  16.250  10.370  0.0036 -0.0587 -0.3115
27252W        W42869   9.987   2.851   0.127  0.0694 -0.0474  0.1527
27253W        W42870  11.036  17.568  13.713 -0.0370 -0.1171 -0.1570
27254W        W42871   7.055   3.485  14.533  0.0844  0.0518 -0.2124
27255W        W42872  17.948  17.674   4.021 -0.2144  0.0774  0.0842
27256W        W42873   2.598  16.341   0.169 -0.0940  0.0721  0.2268
27257W        W42874   4.962   4.836  11.575  0.2124  0.2513  0.0571
27258W        W42875   2.741  15.206   4.640  0.2237  0.0186  0.1603
27259W        W42876  15.952   7.988  11.032  0.0267 -0.0274  0.1194
27260W        W42877  18.303  12.102  14.324  0.4789  0.0096  0.4204
27261W        W42878  11.914  10.226  12.705  0.0816  0.0400  0.0480
27262W        W42879  12.407  10.585   2.502 -0.0052  0.5076 -0.3385
27263W        W42880  12.453  13.695   4.129  0.0067 -0.2241  0.2150
27264W        W42881   2.448  18.363   2.327  0.0467 -0.1006  0.0975
27265W        W42882  12.977  11.380   2.386 -0.1545  0.1394 -0.0607
27266W        W42883   9.102   8.114   1.697  0.2885 -0.1005 -0.0823
27267W        W42884  15.349  11.865  15.150 -0.1800 -0.1143  0.3414
27268W        W42885  12.149   9.100   3.639 -0.1078  0.0306 -0.0083
27269W        W42886   6.577  14.105  14.904  0.1869  0.0813  0.0872
27270W        W42887   3.304  17.112  15.107 -0.0977 -0.1886  0.0371
27271W        W42888  16.229   2.897  13.946  0.2867  0.2970 -0.2357
27272W        W42889  14.579   7.342   4.450 -0.0865 -0.1425  0.1004
27273W        W42890   3.221   7.237  11.464  0.2218 -0.1835 -0.1307
27274W        W42891   0.422  12.463  14.929 -0.2261  0.1025 -0.1689
27275W        W42892   7.260  14.135   1.719 -0.2055 -0.0857  0.0557
27276W        W42893   2.149  18.340   3.876  0.1974  0.0655  0.1027
27277W        W42894   2.296   5.099   2.806 -0.0375 -0.0297  0.4270
27278W        W42895  12.052   8.979  14.859 -0.0175  0.1026  0.1312
27279W        W42896  11.579   3.392   2.977  0.0807 -0.0522 -0.0499
27280W        W42897  13.178   7.238  13.688  0.0432  0.1745  0.1205
27281W        W42898   1.699  16.424   3.356 -0.3539  0.1324  0.1159
27282W        W42899  13.396  10.057  13.756  0.1121  0.0874  0.3534
27283W        W42900  14.069   2.716   3.040  0.4386  0.2225  0.1219
27284W        W42901   2.968   7.792  12.937 -0.0628  0.3276  0.0705
27285W        W42902  17.807   8.758  13.414  0.0297 -0.4396  0.2901
27286W        W42903   9.977   3.403   3.159  0.1875  0.0995  0.0157
27287W        W42904  12.221  16.973   1.091  0.1570  0.3598  0.0100
27288W        W42905   7.199   1.325   4.484 -0.2879  0.0993  0.1060
27289W        W42906  14.901  13.682   0.590 -0.0196 -0.1358 -0.0181
27290W        W42907   8.325   2.242   4.760 -0.2095  0.2627  0.3265
27291W        W42908  12.283   3.460  14.243 -0.0847  0.0216 -0.2804
27292W        W42909  13.287   8.046   2.721  0.0855  0.0249  0.1527
27293W        W42910  14.458  17.103  12.916 -0.0539 -0.4835 -0.0821
27294W        W42911  17.995   5.846  13.641 -0.1096  0.1545 -0.2367
27295W        W42912   5.268   4.929   2.826  0.0981 -0.0756  0.1834
27296W        W42913   9.039  10.009  15.129  0.2041 -0.0834  0.0489
27297W        W42914  14.045   9.319  11.657  0.5085 -0.1369  0.0301
27298W        W42915   4.363   7.407  13.665  0.2996 -0.0942  0.3430
27299W        W42916   3.278   9.664  15.427 -0.0131  0.0036  0.1978
27300W        W42917  17.303   4.037  15.371  0.1168 -0.0377  0.0434
27301W        W42918   4.568  15.187  12.932  0.2744 -0.1580  0.0004
27302W        W42919   3.191   9.948   3.879 -0.6054  0.1099  0.0623
27303W        W42920   0.565  12.191   3.824  0.0616 -0.0292 -0.3153
27304W        W42921   4.654  15.466   1.927 -0.3641  0.0511 -0.0001
27305W        W42922  18.157  15.364   4.694  0.2280  0.1982  0.0594
27306W        W42923   9.937   0.338   4.784 -0.1231  0.0721 -0.2122
27307W        W42924  16.480   1.386   2.781  0.0279 -0.0492 -0.5801
27308W        W42925   3.472  17.397  14.693 -0.0065  0.2589 -0.5109
27309W        W42926   1.733  17.634  12.243 -0.1482  0.0925  0.0416
27310W        W42927   4.096  17.803  15.149  0.4020  0.1932  0.1054
27311W        W42928  17.091   8.279  15.700  0.2049  0.0914  0.0853
27312W        W42929   1.658   6.688  11.969  0.1027 -0.1899 -0.3339
27313W        W42930  13.022   1.477  12.083 -0.0978  0.0138 -0.0644
27314W        W42931   5.038  14.227  15.475 -0.0118 -0.3964  0.0235
27315W        W42932   0.655   0.497  13.082  0.0495 -0.0769 -0.2353
27316W        W42933   8.822  11.375   5.287  0.2719 -0.0160  0.3324
27317W        W42934  11.240   0.999  11.606  0.0628  0.0112 -0.4026
27318W        W42935  16.761  10.234  15.118  0.4513 -0.1177  0.1064
27319W        W42936  18.189   2.974  14.422  0.1978  0.1747  0.2951
27320W        W42937   0.716  17.707  13.454  0.0032 -0.2141 -0.0816
27321W        W42938   8.460  14.594   0.458 -0.0154 -0.0454 -0.0508
27322W        W42939  12.099   3.095  12.503 -0.0223  0.1013  0.1704
27323W        W42940   6.121  17.254   5.108  0.2246 -0.1237  0.0153
27324W        W42941  13.948  14.662   3.383  0.3013 -0.0263 -0.4253
27325W        W42942  13.430   1.969   3.429  0.1926  0.2834 -0.1816
27326W        W42943   9.050   0.318  13.069 -0.0515 -0.0715 -0.0311
27327W        W42944  13.663   9.163   4.967  0.1539 -0.1671 -0.2145
27328W        W42945  13.994   8.570  13.784  0.1137 -0.0840  0.2790
27329W        W42946   7.855  10.031   5.865  0.1566 -0.0569 -0.1221
27330W        W42947   1.567  10.119  14.284  0.2438 -0.1782 -0.1310
27331W        W42948  17.036  12.868  14.134 -0.3673  0.0130 -0.0109
27332W        W42949   8.098  15.394   4.256 -0.1065 -0.0597 -0.4849
27333W        W42950  11.682   8.340   5.137  0.2992  0.1096 -0.0059
27334W        W42951  12.321  16.460  13.683  0.1099 -0.0223  0.2757
27335W        W42952  15.113  10.812   2.227 -0.2174  0.0289  0.0892
27336W        W42953   8.739  16.347   4.636  0.1287 -0.1113  0.0589
27337W        W42954   3.338  16.300   4.667 -0.1749  0.1135 -0.0072
27338W        W42955  13.035   6.247   1.523  0.1987 -0.2608 -0.3029
27339W        W42956   5.410   5.609  12.167 -0.0442 -0.0650 -0.2373
27340W        W42957  12.050  15.874   0.197  0.0145 -0.0037 -0.1421
27341W        W42958  17.697  13.113   4.245 -0.4005 -0.0934 -0.0126
27342W        W42959   8.460   2.972   5.596  0.4705  0.1016 -0.3117
27343W        W42960   3.673   6.126  12.314  0.0126 -0.0722 -0.1232
27344W        W42961   2.176   0.709  12.642 -0.1867  0.1101 -0.1606
27345W        W42962  12.901   3.857   0.491 -0.2848 -0.0071 -0.0279
27346W        W42963  11.087  14.192   1.154  0.1512 -0.1207  0.0382
27347W        W42964   8.089  16.546  11.062  0.1537  0.0477 -0.2432
27348W        W42965   5.879   4.892   1.419 -0.0131 -0.0512  0.3266
27349W        W42966   3.018  11.554   4.665 -0.0971 -0.0127 -0.2214
27350W        W42967   2.432  13.625  11.703  0.3478  0.1153  0.0412
27351W        W42968   3.299   0.716   5.100  0.0221  0.1174  0.0197
27352W        W42969  15.459   9.574  15.216  0.0728  0.0012  0.2600
27353W        W42970   0.725  14.678   0.989  0.0144 -0.4369 -0.3029
27354W        W42971   5.630  10.984  11.576 -0.1469  0.0993 -0.0677
27355W        W42972  16.045  12.941  13.640 -0.0941  0.0778 -0.2726
27356W        W42973  14.518  10.432   1.120 -0.0823 -0.1793  0.0440
27357W        W42974   2.888   3.417   0.119  0.1440 -0.0452  0.1642
27358W        W42975  11.856  12.264  10.311 -0.0316  0.0160 -0.2556
27359W        W42976  18.180   7.973  15.042  0.1170  0.1456 -0.0065
27360W        W42977  17.789   4.249   4.295 -0.1519 -0.1151  0.2622
27361W        W42978  12.481   6.582   4.784  0.0639  0.2065 -0.0235
27362W        W42979   5.377   1.980  14.864  0.1765 -0.1436 -0.4570
27363W        W42980   4.904   8.169  13.352  0.3751  0.0760  0.1743
27364W        W42981  16.649  13.935   1.058  0.2186  0.1201 -0.2659
27365W        W42982  14.927   8.993   9.775 -0.1266 -0.2083  0.0723
27366W        W42983   2.147  17.212  14.014 -0.4650  0.0701 -0.1935
27367W        W42984  13.851   0.821   5.503  0.0668 -0.0584  0.0221
27368W        W42985  17.979  16.628   3.809  0.3628 -0.0039 -0.1289
27369W        W42986  10.703   3.548   2.455  0.1238  0.0965 -0.0586
27370W        W42987  18.011  17.999  11.369 -0.0588 -0.0872 -0.4358
27371W        W42988   3.286   8.427   4.110 -0.1135 -0.1766 -0.0591
27372W        W42989  17.522   6.063  14.941 -0.1864  0.2099 -0.2229
27373W        W42990   5.341  10.949  15.318  0.4559 -0.1661  0.1761
27374W        W42991  10.182   0.926   0.113  0.0729 -0.0724 -0.0496
27375W        W42992  14.120  15.744  10.063  0.1501  0.1932  0.1066
27376W        W42993   5.821   1.561   4.597  0.0666 -0.3205 -0.2575
27377W        W42994   3.091   0.632  14.873  0.0476 -0.0454  0.2235
27378W        W42995   2.750   9.035   1.090 -0.1125  0.0832  0.0526
27379W        W42996   1.399  13.057   1.290  0.2434 -0.0223  0.0257
27380W        W42997  16.666   8.274  12.091 -0.1830  0.0241  0.2129
27381W        W42998  13.725  16.158   1.639  0.1159  0.2300  0.0563
27382W        W42999   9.548   2.624   4.935 -0.0269 -0.0267  0.1778
27383W        W43000  17.282  11.562  10.704 -0.3195  0.2493 -0.2325
27384W        W43001  17.406   6.825   5.034  0.2195  0.3187 -0.0391
27385W        W43002   2.628  18.106  13.874 -0.2137 -0.0978  0.0782
27386W        W43003  11.797   9.358  11.591  0.0816 -0.0752  0.2953
27387W        W43004   4.050  15.182   5.417 -0.0371 -0.1140 -0.0525
27388W        W43005   9.831  10.455  14.641 -0.5648  0.0139 -0.1858
27389W        W43006  16.325  14.679   2.805  0.1075 -0.2309 -0.3722
27390W        W43007  10.425  15.037   1.924  0.2243 -0.0874 -0.2763
27391W        W43008   3.271  18.363  11.598 -0.1613 -0.1860  0.1457
27392W        W43009   0.360  12.096   2.763 -0.2333 -0.0499  0.0067
27393W        W43010   6.240   2.853   0.897 -0.0492  0.1894 -0.1096
27394W        W43011   2.542   5.437   3.097 -0.0157 -0.0217  0.1553
27395W        W43012  17.325   6.970   2.134 -0.4651  0.0666 -0.0834
27396W        W43013   5.660   2.126   2.243  0.1448 -0.0810 -0.1764
27397W        W43014  18.020  15.723  15.768  0.1044  0.0535  0.0978
27398W        W43015  11.191  12.275   1.151  0.1623 -0.0281 -0.0351
27399W        W43016   7.850   1.561   5.570 -0.2532  0.2277  0.1452
27400W        W43017   7.532   2.066  13.458  0.0236 -0.3264  0.0101
27401W        W43018   1.606  17.489   0.396  0.0911  0.1229 -0.2920
27402W        W43019  11.797   0.257   1.276  0.0923  0.0545 -0.1526
27403W        W43020   6.949  14.712   2.353 -0.4871  0.0031  0.0040
27404W        W43021   2.316  13.198   4.759 -0.3594 -0.0283 -0.3229
27405W        W43022   0.858  13.831   4.124  0.0661  0.1883 -0.1147
27406W        W43023  11.045   6.469  15.243 -0.0722  0.3787  0.3099
27407W        W43024   9.270   0.622   0.122  0.0042  0.1984  0.0773
27408W        W43025  10.039  12.768   4.182  0.1358 -0.0558  0.1777
27409W        W43026   4.957   8.712   2.825 -0.0521  0.3588 -0.0220
27410W        W43027   4.132   6.524   3.676 -0.1087  0.2509 -0.1485
27411W        W43028  18.137   3.753  15.515  0.3499 -0.1862  0.3275
27412W        W43029   2.274  11.098   1.555 -0.1644  0.0221  0.6607
27413W        W43030   1.100   8.531   1.596 -0.2941  0.4856  0.0829
27414W        W43031   6.508  13.515   2.714 -0.2562 -0.1847  0.1871
27415W        W43032  11.701   7.455  15.667  0.1044 -0.1026  0.0737
27416W        W43033  13.323  15.865   3.042  0.1935  0.0967  0.0719
27417W        W43034   5.657   9.458  15.736 -0.0409  0.3624 -0.0677
27418W        W43035  12.826   5.703   2.857  0.2520 -0.1422  0.2008
27419W        W43036  11.832   6.357  14.710 -0.0699 -0.0896  0.2998
27420W        W43037   8.743   5.463  13.531  0.0313 -0.0231  0.3673
27421W        W43038  13.457  10.439  13.097 -0.3773  0.0318 -0.0380
27422W        W43039   4.318   5.207  12.125 -0.0309  0.2869  0.2310
27423W        W43040  12.277  15.626   2.254 -0.0157 -0.1900  0.2671
27424W        W43041   8.381   5.335   1.867  0.0926 -0.0003 -0.0264
27425W        W43042   0.116   8.942   3.189 -0.1537  0.2675  0.3030
27426W        W43043  16.267   0.286  11.216  0.0527 -0.3195  0.3184
27427W        W43044   5.977   4.917   5.702 -0.1774 -0.1579 -0.0557
27428W        W43045   7.887   8.803   2.339  0.3741 -0.0438 -0.0581
27429W        W43046  18.418  16.683   4.375 -0.0177  0.4040  0.0593
27430W        W43047   3.324   1.824   4.440 -0.1517 -0.1120  0.1734
27431W        W43048   9.264   0.734   2.937  0.1054  0.3634  0.1939
27432W        W43049   5.540   3.203   4.144 -0.0251 -0.0083 -0.0036
27433W        W43050   4.449   1.133  12.035 -0.0126 -0.0172 -0.0263
27434W        W43051   9.233  14.487  10.823 -0.1825  0.3102  0.0351
27435W        W43052  15.293   4.880  12.899  0.1824 -0.2733 -0.1945
27436W        W43053   1.391   7.027  14.717 -0.1703 -0.0126  0.0950
27437W        W43054   8.829   9.260   0.244  0.1979  0.1500  0.1704
27438W        W43055  14.343  14.640   2.500 -0.0833  0.1058  0.0606
27439W        W43056   2.376   4.769   0.626  0.1451 -0.1839 -0.0986
27440W        W43057  13.518  14.744  15.028 -0.1142  0.0279 -0.2776
27441W        W43058   6.472   0.670  15.265  0.1085  0.0681 -0.0803
27442W        W43059  16.513   9.112  14.693  0.6121  0.2069 -0.1560
27443W        W43060  13.009   7.566   2.220  0.0391  0.0611 -0.0649
27444W        W43061   9.680  12.629   4.502  0.1761  0.2242 -0.2381
27445W        W43062   3.963  18.297   3.206  0.0252  0.0676  0.0199
27446W        W43063   8.265  14.128   4.112  0.0697 -0.1378 -0.1021
27447W        W43064   9.961  13.706  11.366 -0.1144 -0.1872  0.0662
27448W        W43065  18.616  17.063   4.629  0.0877 -0.0465  0.0057
27449W        W43066   5.169   8.189   4.929 -0.0339  0.1297  0.0672
27450W        W43067  10.110  13.995   1.086  0.0295  0.1022 -0.1639
27451W        W43068  18.152  14.597   0.378  0.0122 -0.0074  0.0533
27452W        W43069  10.261   5.975   3.101 -0.1563 -0.3588  0.0172
27453W        W43070   1.320   1.727   1.988 -0.0325 -0.0356 -0.4128
27454W        W43071   0.028   6.033   3.560  0.1247 -0.3757 -0.1465
27455W        W43072  10.863   4.178   0.942  0.2827  0.2377 -0.0968
27456W        W43073  14.955  14.795   0.613 -0.3395 -0.0878 -0.0086
27457W        W43074  11.636   4.445   2.018 -0.1096  0.0596  0.1279
27458W        W43075  10.001  13.240  11.606  0.1444  0.1201 -0.1031
27459W        W43076  14.090   6.324  11.271 -0.2989  0.3659  0.1557
27460W        W43077  16.210  17.639  11.550 -0.2197 -0.0123 -0.3185
27461W        W43078   7.876   3.427  15.422 -0.1284  0.0178  0.0226
27462W        W43079  11.242  10.658   0.887  0.1590  0.2512 -0.4132
27463W        W43080   1.703   5.953   3.659 -0.0558 -0.0326 -0.1539
27464W        W43081  15.921  16.844  14.164 -0.2512  0.0329 -0.0038
27465W        W43082   3.239   6.053   0.310 -0.0205  0.1897  0.1638
27466W        W43083  17.737  17.947  15.638  0.1764 -0.0024  0.0732
27467W        W43084   7.035  17.357   5.076 -0.0417 -0.1402 -0.0224
27468W        W43085   3.316   7.103  10.933 -0.0380 -0.1200 -0.0129
27469W        W43086   8.050   7.473   0.406 -0.0810  0.0989  0.2476
27470W        W43087  18.591  11.327   4.781  0.2103  0.4305  0.2626
27471W        W43088  17.290  13.998  10.467  0.0141  0.1214 -0.2234
27472W        W43089  10.575  15.760  11.532  0.1769 -0.0295 -0.1913
27473W        W43090  11.574   0.516   5.577  0.2115  0.0705  0.1825
27474W        W43091   1.430   7.284   2.443 -0.0152 -0.0842 -0.0424
27475W        W43092  13.438   6.367  14.528 -0.0759 -0.2010  0.2773
27476W        W43093  16.373   9.153   1.815  0.0107 -0.3090 -0.1093
27477W        W43094  12.641   2.435   1.808 -0.0964 -0.0080  0.2907
27478W        W43095  15.482   1.679   3.858 -0.0971 -0.0989  0.0212
27479W        W43096   9.297   8.674  12.175  0.1313  0.0375 -0.1213
27480W        W43097  11.080   3.252   4.076  0.1795 -0.2459 -0.0498
27481W        W43098   0.216   6.474  12.017  0.1145  0.3795  0.4640
27482W        W43099   5.772   1.331   4.138 -0.2514 -0.3738 -0.2390
27483W        W43100  16.866  10.840   2.262 -0.0162  0.1096  0.1019
27484W        W43101   0.079  11.102  14.703 -0.2677 -0.0293  0.0525
27485W        W43102  16.114   8.540   2.909  0.0087  0.1373  0.2977
27486W        W43103  10.312   4.672  12.870 -0.2165  0.0015 -0.1908
27487W        W43104   4.662   5.088   2.950  0.3162 -0.1201 -0.1071
27488W        W43105  11.028   4.823   1.235  0.1537 -0.1426 -0.0531
27489W        W43106   0.096   6.943   1.887 -0.1439  0.0037  0.0048
27490W        W43107  12.522   7.470  11.454 -0.0427 -0.1952  0.1209
27491W        W43108   4.505  14.616   0.342  0.0175 -0.1231 -0.0103
27492W        W43109   1.059  12.047  13.029  0.2154  0.1444  0.2723
27493W        W43110   0.112   3.590  14.063  0.1833  0.0080  0.0661
27494W        W43111   3.577  15.727   9.886 -0.0966 -0.2873  0.4889
27495W        W43112  10.367   1.281  14.098 -0.0741 -0.0880 -0.0959
27496W        W43113  10.823  13.220   2.093  0.1433 -0.2282 -0.0563
27497W        W43114  10.601   8.289  12.952 -0.3198  0.3406  0.0699
27498W        W43115   8.973   9.706  10.729 -0.1578 -0.0320 -0.0241
27499W        W43116   5.731   7.214   1.270 -0.0323 -0.2868 -0.0574
27500W        W43117   8.162   3.272  13.504 -0.0065 -0.1399  0.0736
27501W        W43118   2.508   6.285   2.158 -0.0694  0.1669 -0.3169
27502W        W43119   7.953   2.473   4.557 -0.1044 -0.0533 -0.2008
27503W        W43120  12.608  15.554  15.452  0.0692 -0.3641 -0.0454
27504W        W43121  17.410  11.684  14.302 -0.1606  0.0952  0.1351
27505W        W43122  12.264   1.369  11.661 -0.2596  0.1065 -0.0458
27506W        W43123   7.902  11.541   0.970 -0.4375 -0.2640  0.0302
27507W        W43124  13.639  14.616  10.147  0.1207 -0.1166  0.0655
27508W        W43125   0.593   8.423   1.561 -0.0511  0.2491 -0.1155
27509W        W43126   1.539  14.495  15.506 -0.1842 -0.3102 -0.0258
27510W        W43127   5.199   6.220  13.282  0.0235  0.1146 -0.3397
27511W        W43128  16.414   5.030  12.122 -0.0458  0.3138  0.0667
27512W        W43129  15.800   8.317  14.727  0.0025  0.0214 -0.0303
27513W        W43130   1.432   9.052   1.836  0.3244 -0.0145  0.0377
27514W        W43131  13.535   8.409   4.419  0.2315 -0.0916 -0.0328
27515W        W43132  16.599  17.157   4.922 -0.2204  0.1546 -0.1410
27516W        W43133   9.605   6.839   1.865 -0.0610  0.1346 -0.2574
27517W        W43134   9.298  16.602   4.550 -0.0651 -0.0114  0.2220
27518W        W43135  14.317  18.516   2.983 -0.1513 -0.1299 -0.3000
27519W        W43136   0.074   2.459   3.667 -0.0488  0.2889 -0.4240
27520W        W43137   8.461   2.766  11.558 -0.3979 -0.3264 -0.0632
27521W        W43138   9.967  13.825  13.802  0.0621 -0.2610 -0.2150
27522W        W43139  14.690  11.936  11.055 -0.0968 -0.1527 -0.1976
27523W        W43140   7.477   8.140   0.210 -0.1195  0.0388 -0.1391
27524W        W43141  15.735  18.257  11.554 -0.1356  0.2204  0.1865
27525W        W43142   2.370  12.941  13.798 -0.1304 -0.0088 -0.2619
27526W        W43143  10.751   7.972  12.601 -0.0892  0.3072  0.0898
27527W        W43144  17.948   2.664  11.463 -0.3217  0.0377 -0.0355
27528W        W43145  12.005  15.620   2.868  0.2251 -0.2359  0.0728
27529W        W43146   7.480  16.196  12.879  0.0348  0.0055 -0.0733
27530W        W43147  10.546  10.604   3.273 -0.2231 -0.2454 -0.1410
27531W        W43148   5.213   0.234  10.945 -0.3825 -0.1545  0.1327
27532W        W43149  11.008  12.715   2.949 -0.2955  0.0859 -0.2103
27533W        W43150   2.593  16.747  13.145  0.0571  0.3006 -0.1002
27534W        W43151  10.023  13.458  15.017  0.3737 -0.0878  0.1034
27535W        W43152   8.456   7.504  12.778 -0.0569 -0.0530  0.2555
27536W        W43153   9.463   8.978  12.568 -0.0058 -0.1459  0.0789
27537W        W43154  12.738   1.617   3.891 -0.2178  0.0061  0.0204
27538W        W43155   2.837  10.751  10.123 -0.2699 -0.2592 -0.0499
27539W        W43156  14.465  10.244   3.016  0.3067 -0.1655  0.1828
27540W        W43157   5.798  12.755   4.426 -0.1427  0.1446 -0.0251
27541W        W43158  13.763   1.319  11.985  0.2543  0.1353  0.0782
27542W        W43159  14.814  13.498  15.776 -0.2317  0.0092  0.1077
27543W        W43160  16.084   6.330  13.843 -0.1587 -0.0600 -0.0649
27544W        W43161  14.564   6.061  15.649  0.0352  0.0733  0.2032
27545W        W43162   3.443   4.860   1.352 -0.2824 -0.3876 -0.0463
27546W        W43163   8.201  14.167   0.394 -0.0288  0.0635  0.1111
27547W        W43164   0.361   3.192  15.170 -0.1142 -0.2726 -0.0165
27548W        W43165  15.808   8.805   3.500 -0.0560 -0.1089 -0.3387
27549W        W43166  14.478   9.783  11.474  0.0681  0.1787  0.1122
27550W        W43167  13.912  18.019  14.727 -0.1901  0.2903  0.2683
27551W        W43168   2.248   9.994  10.992  0.0786  0.1541  0.0287
27552W        W43169  12.676  15.430   4.544  0.0232 -0.0243 -0.1366
27553W        W43170   1.384  11.303  14.865  0.3483 -0.1166  0.1190
27554W        W43171  11.215  14.702   1.327  0.2636  0.0413  0.2588
27555W        W43172  17.048   8.739  10.420  0.1362  0.1566 -0.2371
27556W        W43173  17.097   6.129   0.685 -0.0444 -0.1598 -0.2219
27557W        W43174   4.998  15.680   3.861 -0.2152  0.0395  0.0286
27558W        W43175   0.817   4.876  13.350 -0.0302  0.1745 -0.2846
27559W        W43176   4.186   5.181   2.743 -0.3197 -0.0979 -0.0577
27560W        W43177  16.734   8.055  10.568 -0.1069  0.1618 -0.1828
27561W        W43178   3.072  17.281  12.547 -0.0954  0.1078 -0.0216
27562W        W43179   3.532   9.532   1.435  0.0299 -0.0506 -0.3040
27563W        W43180   6.722  18.003  14.928 -0.0461  0.1216 -0.4413
27564W        W43181   3.778  17.869   3.672  0.1746 -0.0092 -0.1296
27565W        W43182   7.877   3.236   0.108  0.3396 -0.0162  0.0453
27566W        W43183   0.233  16.237   4.029 -0.2181 -0.0929  0.3270
27567W        W43184  13.364  14.647   4.404  0.0148  0.3002  0.1671
27568W        W43185  12.576  11.424   1.302  0.1338 -0.1746 -0.0176
27569W        W43186   2.760  14.951   4.240 -0.1248  0.1638  0.0161
27570W        W43187  15.225   7.997  15.559 -0.0540 -0.2064  0.3206
27571W        W43188   5.511  16.750   0.807 -0.1062 -0.0971 -0.2990
27572W        W43189   7.530  17.089  11.570 -0.0431  0.3895 -0.1602
27573W        W43190   7.500  11.394  15.718  0.1379 -0.3122 -0.2727
27574W        W43191   9.926  17.489   1.978  0.0783  0.1313  0.0254
27575W        W43192  10.537   9.764   3.128  0.1123  0.0448 -0.1378
27576W        W43193  17.953  18.229  14.739 -0.0209 -0.0242 -0.0291
27577W        W43194   8.131   3.089   1.563 -0.0713  0.0380 -0.2038
27578W        W43195  12.770   6.597  15.723 -0.0356 -0.1567  0.1758
27579W        W43196   5.375  17.796   2.845 -0.1879  0.5543  0.1702
27580W        W43197   6.481   1.409   5.471 -0.2971  0.3745 -0.0317
27581W        W43198   3.939   7.756  13.632  0.2568  0.1396 -0.0741
27582W        W43199   6.663  11.445  10.996  0.4291 -0.1555  0.4690
27583W        W43200  16.253  17.057  13.706 -0.0218  0.0181 -0.0862
27584W        W43201   1.196   9.529   0.804 -0.2386  0.1717 -0.0224
27585W        W43202  10.369   9.860  15.370 -0.0251  0.0531  0.0026
27586W        W43203   7.083   1.898   5.264 -0.1385 -0.1420  0.1113
27587W        W43204  13.342  18.180   2.037 -0.0751 -0.1827  0.1783
27588W        W43205   8.264   7.178   0.756 -0.0519  0.2557 -0.1610
27589W        W43206   9.188   6.274  13.165 -0.0129  0.0765 -0.0218
27590W        W43207  10.883  14.652  11.047  0.1329  0.0370 -0.4359
27591W        W43208  15.114   1.099  11.667  0.0824  0.2910 -0.2565
27592W        W43209   9.995  16.755  14.079  0.0910  0.3859 -0.1103
27593W        W43210   7.633   6.990   3.571 -0.1176  0.3019  0.1319
27594W        W43211   3.604  17.380  11.494 -0.2674  0.0217 -0.1492
27595W        W43212  17.736   2.955  14.632 -0.2945  0.1379 -0.1038
27596W        W43213   3.732   9.590  12.133  0.0282  0.0838  0.1927
27597W        W43214   7.243   5.995  14.517 -0.0117  0.1472  0.1039
27598W        W43215   1.417   8.454   4.219 -0.0170  0.3681  0.0947
27599W        W43216  11.404  18.499   4.530  0.2245  0.1860 -0.1549
27600W        W43217   6.261  13.839   4.414 -0.1568  0.1147  0.3839
27601W        W43218  10.482  12.437   5.503  0.1368 -0.0942 -0.1380
27602W        W43219  16.075   9.588  10.302  0.3088 -0.0964 -0.0600
27603W        W43220  17.448  10.852  15.160 -0.0996 -0.1575  0.0904
27604W        W43221  14.185  15.772   3.325 -0.0271 -0.0488  0.2721
27605W        W43222   1.538   8.203  14.151 -0.1095  0.0578  0.2022
27606W        W43223   5.950  11.284  11.333 -0.1535  0.0523 -0.3353
27607W        W43224   4.994   8.608   5.224 -0.0977 -0.2204  0.0890
27608W        W43225   0.649  12.968   0.795 -0.0665  0.1277  0.3411
27609W        W43226   6.770   9.168  12.100 -0.0398  0.0606 -0.2994
27610W        W43227   4.373  14.132  11.056 -0.0643  0.0235 -0.2479
27611W        W43228  15.424  10.129   0.278  0.1513  0.0546  0.4250
27612W        W43229  12.746  14.765  14.673 -0.0312 -0.2156 -0.2210
27613W        W43230   8.646  12.314  15.569  0.0167 -0.0304 -0.2850
27614W        W43231   6.867  13.781  10.983 -0.0145  0.0143 -0.0445
27615W        W43232  11.311   9.884  13.247  0.2043  0.2562  0.0280
27616W        W43233   2.737   2.373  11.758 -0.3304 -0.2848 -0.1938
27617W        W43234   4.020  14.232  12.227 -0.2258 -0.1901 -0.1380
27618W        W43235   2.859  10.991   4.003  0.0870 -0.1969  0.3202
27619W        W43236  14.235   5.422  10.250  0.0754 -0.1233 -0.1114
27620W        W43237  11.500  16.376   5.550  0.0748 -0.0969  0.3285
27621W        W43238  17.196  16.904  14.260 -0.1497 -0.0459 -0.0217
27622W        W43239  16.822   5.157  13.006  0.0403  0.0908  0.0115
27623W        W43240   2.598  14.650   5.228 -0.0896  0.0180 -0.0729
27624W        W43241  12.241  16.859   3.291  0.1779  0.0744  0.2220
27625W        W43242  11.635   5.989   4.922 -0.0534  0.1645  0.1456
27626W        W43243   9.764  15.853  12.946  0.1536  0.1043 -0.0958
27627W        W43244  12.375   3.813   3.367  0.1154 -0.0311 -0.0891
27628W        W43245  16.132  14.414  15.022  0.1183 -0.0433  0.0343
27629W        W43246  17.169  14.962  10.337 -0.1737 -0.2480 -0.1082
27630W        W43247   8.838  10.356   5.610 -0.2476  0.1518 -0.0787
27631W        W43248  14.244   7.482  11.777  0.1459 -0.1232 -0.0564
27632W        W43249  15.486  18.012  12.557  0.0055  0.2333 -0.2498
27633W        W43250  12.368   5.991   0.575 -0.0629  0.0021  0.0055
27634W        W43251  15.263   0.090   3.351 -0.0539  0.0155  0.0768
27635W        W43252   9.401   1.298  12.052  0.1193  0.1098 -0.0184
27636W        W43253   9.334   0.680   1.915 -0.4456  0.3489  0.1351
27637W        W43254  17.461  14.727  12.333  0.1329 -0.3455 -0.1640
27638W        W43255  13.868  13.745   1.991  0.0056  0.0351  0.0798
27639W        W43256   4.836  15.072  14.557 -0.1774 -0.2541 -0.0360
27640W        W43257  17.360   4.244  14.011  0.1333 -0.1483  0.0729
27641W        W43258  11.678   0.013   2.501  0.0382  0.0347  0.3072
27642W        W43259  14.638   1.552   2.466 -0.1890 -0.0210 -0.1918
27643W        W43260   5.211   2.775  15.381 -0.0002  0.1415 -0.0806
27644W        W43261  17.214  14.463   5.744  0.1682 -0.0119  0.2096
27645W        W43262  16.380   5.554  11.915  0.0361  0.3589 -0.0048
27646W        W43263   7.353   3.476  14.912 -0.0877  0.0982 -0.4019
27647W        W43264  10.188  12.901  10.796  0.1870  0.2244  0.2354
27648W        W43265  13.205   0.449   0.730  0.0085  0.0147 -0.1161
27649W        W43266   5.820   7.021   2.777 -0.1309  0.1524  0.2156
27650W        W43267  18.298   3.453   1.835 -0.4593 -0.0353 -0.1979
27651W        W43268  17.738   8.224  11.856  0.0711 -0.2333 -0.2156
27652W        W43269   2.971   5.123   1.796 -0.1449 -0.0544 -0.0099
27653W        W43270   9.463  14.480   1.805 -0.0925 -0.0479 -0.0101
27654W        W43271   1.986  17.639  15.069 -0.3717 -0.2103 -0.2074
27655W        W43272   5.635  14.163  13.194  0.2264 -0.0647 -0.1856
27656W        W43273   8.291  10.908   3.887 -0.0077  0.2997  0.1123
27657W        W43274   7.681  11.177  12.442  0.3266  0.1024 -0.6132
27658W        W43275   2.831   2.586   3.353  0.2443 -0.2562 -0.2585
27659W        W43276  10.607   4.618  12.249 -0.1965 -0.2404  0.0846
27660W        W43277   1.105  18.297   3.729 -0.3844 -0.2881 -0.3792
27661W        W43278   1.538  14.962  11.979  0.3505  0.0455 -0.2811
27662W        W43279   4.473   6.640  14.497 -0.0288 -0.0274  0.0011
27663W        W43280  14.755  18.435   3.189 -0.2408 -0.1568  0.0000
27664W        W43281   6.481  15.696   0.781  0.1160  0.1698  0.1172
27665W        W43282   2.888   8.707  13.311 -0.0317 -0.1796 -0.0350
27666W        W43283  12.516  14.671   5.089 -0.2160 -0.4211  0.0470
27667W        W43284  17.296   2.558   0.999  0.0390  0.0357 -0.3537
27668W        W43285   7.952   0.825   2.305 -0.0852  0.2965 -0.0456
27669W        W43286   8.683   2.892   2.747  0.1493  0.1251 -0.0683
27670W        W43287  14.755  15.511  13.011  0.2068  0.2031  0.0735
27671W        W43288  12.007  17.917   1.133  0.0359  0.1873  0.1715
27672W        W43289  11.083   7.950  12.108 -0.0464  0.2143 -0.0832
27673W        W43290   7.052  16.204  14.030 -0.1705  0.1611  0.1181
27674W        W43291   3.355  10.463   0.416 -0.1235 -0.0307 -0.1153
27675W        W43292  16.161   1.275  14.572  0.3799 -0.0677  0.1371
27676W        W43293   6.899   9.852  15.786 -0.2990  0.0900  0.1152
27677W        W43294   2.377  15.383   0.998 -0.1680  0.0214 -0.0709
27678W        W43295   8.130   2.484   0.528  0.2555  0.0682  0.0853
27679W        W43296  17.066  14.672   4.083  0.1632  0.0856 -0.2788
27680W        W43297  15.650   5.957  12.861 -0.0838  0.0949 -0.0692
27681W        W43298   5.131   7.181   3.802  0.0678 -0.2047  0.2064
27682W        W43299  16.115  14.259   3.033  0.0609  0.1027 -0.2847
27683W        W43300  13.826   3.596   4.868 -0.1090  0.0822 -0.1304
27684W        W43301   8.575   1.825   2.587  0.3217  0.1176 -0.0672
27685W        W43302  15.746  14.954   1.717  0.0547  0.2449  0.2738
27686W        W43303  17.318   1.345  15.291  0.0373 -0.1380 -0.0149
27687W        W43304  17.808  14.183  11.162 -0.1783 -0.0825 -0.0477
27688W        W43305  14.970   2.462  12.527  0.0759 -0.1505  0.0762
27689W        W43306   3.489  11.557   1.250  0.1767  0.0807  0.0464
27690W        W43307   6.641   1.961  15.277 -0.0538  0.2842 -0.4021
27691W        W43308   2.664  12.138   1.121  0.3285  0.1202  0.2431
27692W        W43309  17.364   4.992  15.227  0.1559 -0.0925 -0.2158
27693W        W43310  10.685  10.900  10.281 -0.2486  0.1393 -0.0253
27694W        W43311   3.202  11.960   1.295 -0.0034 -0.1152 -0.0390
27695W        W43312   9.597  15.867   4.988 -0.2434 -0.1353 -0.2937
27696W        W43313   5.654  17.568   0.620 -0.0511 -0.0298 -0.0415
27697W        W43314  11.151  17.642  14.816 -0.1596 -0.0391  0.0033
27698W        W43315   5.835  14.353  14.341  0.1269  0.1267 -0.0668
27699W        W43316  13.929   7.471  12.706 -0.2635  0.2649 -0.2249
27700W        W43317   9.699   6.635   4.060  0.1700 -0.3234 -0.1385
27701W        W43318   2.461  14.769   2.033  0.2042  0.1503  0.1774
27702W        W43319   2.529   4.495   4.844  0.0564  0.0042 -0.1190
27703W        W43320  12.003  18.208   5.147 -0.0299  0.0848  0.0641
27704W        W43321  16.681   1.990  12.166  0.2870  0.1346  0.1459
27705W        W43322   4.204  15.750   2.158 -0.0647 -0.1012  0.0813
27706W        W43323   2.394   0.549   1.021  0.1605  0.0074 -0.1283
27707W        W43324  14.073  11.933  12.157  0.1357  0.1297  0.0293
27708W        W43325   7.780   6.772  15.205  0.1929 -0.2583  0.1714
27709W        W43326  17.955   4.023   0.836  0.1585 -0.0381  0.0102
27710W        W43327   6.171   8.422  13.137 -0.5010  0.1632 -0.4422
27711W        W43328  16.887   2.334   3.168 -0.0304  0.1331 -0.0544
27712W        W43329  12.640   1.173  13.998 -0.0090  0.2926 -0.2571
27713W        W43330  16.976  13.451  11.216 -0.1264 -0.1307  0.0472
27714W        W43331   6.213   0.096  11.006  0.3797 -0.0986  0.0511
27715W        W43332  16.478   1.345   3.992  0.1532  0.1623  0.1442
27716W        W43333   8.001  15.739  11.370  0.0446 -0.3308  0.5414
27717W        W43334  15.895  14.723  12.501  0.0382 -0.0228 -0.0973
27718W        W43335   5.519  16.737   9.577 -0.0332 -0.1406  0.1290
27719W        W43336  12.452  15.951   3.549  0.0710  0.0040  0.2243
27720W        W43337  10.242  13.320  14.505 -0.0226 -0.0978  0.3851
27721W        W43338   5.902  13.576   2.538  0.0822 -0.1705  0.2020
27722W        W43339  15.100   6.864   5.455  0.1492 -0.1308 -0.0955
27723W        W43340  18.577   4.095   4.416 -0.1828 -0.1413  0.0992
27724W        W43341   2.576  13.325  13.550 -0.2592 -0.0617  0.0175
27725W        W43342   9.581  17.586   3.469  0.1846  0.0108 -0.0087
27726W        W43343   5.944   1.858   0.706 -0.0130 -0.2788  0.0589
27727W        W43344   8.148   4.420   3.718  0.0919  0.0830  0.0202
27728W        W43345   8.655   9.338  13.814 -0.0332  0.1711 -0.0043
27729W        W43346   6.698  15.084  12.810 -0.1488 -0.1425 -0.0396
27730W        W43347  15.840   4.576   5.087  0.1397 -0.1881  0.4311
27731W        W43348   2.309   3.609  13.837 -0.1249  0.1915 -0.1112
27732W        W43349   2.848  13.376  15.170 -0.1176  0.1592  0.1905
27733W        W43350  13.331  11.087   2.523 -0.5894  0.1644  0.1826
27734W        W43351  15.019   5.035  14.497  0.0984  0.1473 -0.0668
27735W        W43352   5.630   4.467  14.470  0.2201 -0.0096 -0.2631
27736W        W43353   3.011  18.629   1.952 -0.2718 -0.1109  0.1170
27737W        W43354  13.335   5.507  15.754 -0.0808  0.2192  0.4719
27738W        W43355  18.471   8.573   2.331  0.0274 -0.2299 -0.2494
27739W        W43356   0.083  11.695   3.163  0.1010 -0.1754  0.2124
27740W        W43357  13.412   7.894   3.687  0.0307  0.2822  0.0452
27741W        W43358  10.013   5.143  14.850  0.1187 -0.2020  0.1466
27742W        W43359   9.727  11.535  12.967 -0.1119  0.1439 -0.3657
27743W        W43360   7.880  17.484  14.037 -0.0245 -0.0774  0.0643
27744W        W43361   6.738   9.707   4.469  0.1906 -0.1083 -0.0290
27745W        W43362   2.321   2.897   3.549  0.1901  0.0903 -0.0635
27746W        W43363   9.128  15.221   2.792 -0.1009  0.1416 -0.0986
27747W        W43364   8.264  10.792   4.481  0.2554 -0.3582 -0.2607
27748W        W43365   8.524  13.158   4.168 -0.0966  0.0162  0.2167
27749W        W43366   0.330  11.068  13.882 -0.0414 -0.0358  0.1437
27750W        W43367   6.393   3.104   1.325 -0.1953  0.3908  0.4101
27751W        W43368   3.673  10.800  10.603 -0.0785 -0.2182 -0.0256
27752W        W43369   4.740   7.064   2.136 -0.1586  0.2947 -0.1463
27753W        W43370  10.077  10.730   3.528 -0.1259 -0.2016 -0.0238
27754W        W43371  11.590   7.467  12.905 -0.4074 -0.0285 -0.1075
27755W        W43372  10.219  13.818  14.549 -0.0749  0.2077  0.0314
27756W        W43373   7.941   4.494  14.310  0.1131 -0.3129  0.0870
27757W        W43374  18.630   6.269  14.896 -0.1369  0.2629 -0.1835
27758W        W43375   4.703   9.849  12.941 -0.0922 -0.3621 -0.1005
27759W        W43376  13.101   6.327   3.887 -0.1477 -0.0070 -0.1519
27760W        W43377  10.913   0.461  12.369  0.0446 -0.0257  0.1246
27761W        W43378   8.479   6.907   2.000  0.2150 -0.1354 -0.0138
27762W        W43379   8.130   6.940  14.319 -0.2929 -0.0396 -0.0378
27763W        W43380  10.403  11.069  11.912 -0.1188 -0.4122 -0.0279
27764W        W43381   1.624  11.953   5.540  0.2076 -0.0677 -0.0829
27765W        W43382  10.736  12.228   1.881  0.0247  0.5218 -0.0899
27766W        W43383  11.455   3.225  14.006 -0.0597 -0.2464 -0.0222
27767W        W43384  17.530  15.952   2.985  0.0784  0.0328 -0.1073
27768W        W43385  16.117  18.569   1.401 -0.0228 -0.0931  0.1836
27769W        W43386  15.224   3.600  15.190 -0.0067 -0.1105  0.1521
27770W        W43387  10.014   5.940   3.547  0.0160 -0.0449  0.0974
27771W        W43388   9.160   2.899  13.918 -0.0008 -0.0439 -0.0734
27772W        W43389   6.758   6.788   0.824  0.0486  0.0905  0.0960
27773W        W43390  13.824   2.711   0.174  0.2690 -0.4176  0.2189
27774W        W43391   2.523  14.858  14.249  0.0955 -0.2875 -0.0352
27775W        W43392  12.749  15.913   0.977 -0.2528 -0.3353 -0.0054
27776W        W43393  18.162   8.179   1.920 -0.0742  0.0162 -0.4021
27777W        W43394   9.427   4.204   0.586  0.3240 -0.0666  0.1283
27778W        W43395  10.150  16.341  14.449  0.2401  0.2245  0.0923
27779W        W43396  10.091  17.431  13.722 -0.0922  0.0827 -0.0512
27780W        W43397  13.497  16.046  15.146  0.4443 -0.1608  0.0878
27781W        W43398  13.813  11.149  12.451 -0.0990 -0.1824  0.2375
27782W        W43399  12.157  14.992  10.949 -0.1165  0.2588 -0.1112
27783W        W43400  16.384  17.446  13.104 -0.3055  0.1810  0.3683
27784W        W43401  15.164   3.394   5.569  0.1931 -0.0890 -0.3963
27785W        W43402   4.497   9.326  14.684  0.0116  0.2391  0.1689
27786W        W43403   6.402  14.368   2.986  0.2534  0.0818  0.0950
27787W        W43404   6.849   1.450  13.543 -0.2222  0.0366  0.0427
27788W        W43405  15.081  17.997   2.400  0.1898 -0.1579  0.2211
27789W        W43406  13.458   6.072   2.254  0.0322  0.1526  0.1455
27790W        W43407   6.033   9.488   0.308 -0.0019  0.0100  0.0352
27791W        W43408  18.254   1.773  15.224 -0.2893  0.4749  0.1288
27792W        W43409  11.649   5.426   4.060 -0.2857 -0.2681  0.0397
27793W        W43410   3.250  12.473  14.457 -0.0801 -0.1155 -0.0165
27794W        W43411   3.620   2.104   2.917  0.1192  0.1734  0.2599
27795W        W43412  17.542  12.559  14.703 -0.3243  0.3849  0.0503
27796W        W43413   7.522   8.250  14.255 -0.0728  0.0863  0.1535
27797W        W43414   7.171   5.824   3.422  0.1906 -0.3510 -0.3052
27798W        W43415   5.875   4.166  10.550  0.0748  0.0327  0.1341
27799W        W43416   7.161   4.603  12.491  0.0902 -0.2479 -0.1623
27800W        W43417   6.828  12.027  13.432 -0.0700  0.2091  0.0600
27801W        W43418   6.529   7.516   3.179  0.1825 -0.0344  0.2694
27802W        W43419   7.806  14.858   0.002  0.1320 -0.1915 -0.0620
27803W        W43420  11.208   6.203  10.738  0.1016 -0.2034 -0.2205
27804W        W43421  12.893  13.005   1.528  0.1073 -0.0873 -0.1861
27805W        W43422   6.786  10.802   1.015  0.2880 -0.0704 -0.3420
27806W        W43423   0.739   3.489   3.619 -0.2609  0.0156 -0.0291
27807W        W43424   0.829   2.480   5.337  0.0261  0.3234 -0.0304
27808W        W43425   7.074   0.635  12.030 -0.2386  0.4964 -0.1410
27809W        W43426   8.144   9.589  13.640  0.0801 -0.1262  0.0456
27810W        W43427   5.669  12.848  10.435 -0.1624  0.1343 -0.4324
27811W        W43428   7.073  15.965  12.509 -0.1288 -0.1792 -0.1839
27812W        W43429   5.966  10.242   2.640 -0.3256  0.1394 -0.0570
27813W        W43430  15.576   1.520  12.817 -0.2303 -0.0128  0.1786
27814W        W43431   5.004  11.602  11.352 -0.1468  0.4598  0.0016
27815W        W43432  15.700  12.086   2.360 -0.0782  0.2472  0.1077
27816W        W43433   2.572   4.262   3.254 -0.0988 -0.0444  0.0199
27817W        W43434  18.284  15.605  12.433  0.0869  0.4562  0.1022
27818W        W43435   1.982   2.269  11.775 -0.2232 -0.0573  0.1987
27819W        W43436   6.803   1.096   4.221 -0.1135 -0.0411 -0.0194
27820W        W43437  14.621  11.047  13.713 -0.0670 -0.1168 -0.2073
27821W        W43438   2.026  10.686  10.395 -0.1283 -0.1684  0.0255
27822W        W43439  15.991   4.868   1.420 -0.0694  0.1225 -0.1068
27823W        W43440   5.727   2.226  13.508  0.2917  0.3661 -0.0206
27824W        W43441  13.915  15.625   1.783  0.0866  0.1458  0.3652
27825W        W43442   5.959  10.904  14.631 -0.0159 -0.1147 -0.1305
27826W        W43443  16.581  12.763   1.192  0.1733 -0.1237  0.1309
27827W        W43444   6.909   4.652   1.277  0.3799  0.0096 -0.0436
27828W        W43445  10.972  17.975   0.641  0.2070 -0.1890 -0.4509
27829W        W43446   7.446   5.927   0.955  0.1854 -0.0678  0.4251
27830W        W43447   3.415   2.249   3.450 -0.0992  0.4866 -0.2300
27831W        W43448  16.386   4.073  12.065  0.1669 -0.2484  0.0418
27832W        W43449   6.178  12.587  14.378  0.1282 -0.0532 -0.3259
27833W        W43450   6.374  17.889  13.509 -0.0996 -0.2473  0.0732
27834W        W43451  13.905   4.536   5.019 -0.1736 -0.0391 -0.2220
27835W        W43452  17.393  13.587   3.866  0.0669 -0.1436 -0.0473
27836W        W43453  12.155   7.487   3.802 -0.0295  0.0877 -0.0567
27837W        W43454  15.858  15.106  10.563  0.1130 -0.2088 -0.2510
27838W        W43455   7.962  16.476   9.712 -0.0164  0.3157 -0.4168
27839W        W43456   0.919  14.539  13.766  0.3907 -0.2873  0.3491
27840W        W43457   8.085  12.751   2.296 -0.2862  0.2628  0.5991
27841W        W43458   4.264   3.514   4.383 -0.1357  0.2692 -0.0180
27842W        W43459  17.178   0.228   2.586 -0.2399  0.2723  0.0606
27843W        W43460   3.506  16.700   2.390  0.0368 -0.1926 -0.0823
27844W        W43461   9.886  15.037  13.481  0.0546  0.0978 -0.1552
27845W        W43462  16.215  13.811  10.727  0.0513  0.0307 -0.0094
27846W        W43463  14.392  13.958  14.495  0.1040 -0.0355 -0.1647
27847W        W43464  14.483  11.007  10.949  0.2454  0.0369 -0.1411
27848W        W43465  14.941  17.739   4.894 -0.2633 -0.0733 -0.0790
27849W        W43466   6.953  15.811   2.565 -0.0285  0.0663  0.0035
27850W        W43467  10.975   6.051   3.621  0.1940 -0.1971 -0.2557
27851W        W43468  10.442  18.250   1.903 -0.0775  0.2795  0.2353
27852W        W43469  17.070  14.886   1.013 -0.2257  0.0582  0.0689
27853W        W43470  12.585  11.242  11.219  0.3303  0.0806 -0.1171
27854W        W43471  11.497  13.058  14.458  0.0647 -0.0867  0.0062
27855W        W43472  11.666   1.456   0.823 -0.2008 -0.2952 -0.1403
27856W        W43473  17.925  18.498   3.754 -0.0303 -0.1046  0.3900
27857W        W43474   6.884   9.978  15.028  0.0249 -0.5367  0.0748
27858W        W43475  16.767   3.454   2.790 -0.1796  0.1025 -0.0389
27859W        W43476  10.396  12.744   3.311  0.0084  0.3165 -0.0685
27860W        W43477   4.510  14.256  15.502  0.1629  0.2064  0.0241
27861W        W43478  12.088   5.178  11.440 -0.1108  0.1342 -0.1036
27862W        W43479   5.715  17.814  10.975 -0.0578  0.0691  0.0417
27863W        W43480  18.405   0.942  13.628  0.0941  0.2842  0.0337
27864W        W43481  14.736  12.329   1.426 -0.3818  0.1100 -0.0048
27865W        W43482   8.203   4.812   3.403  0.0380  0.1142  0.0513
27866W        W43483   1.459  12.373  10.629 -0.0503  0.0102 -0.3336
27867W        W43484   6.992  17.619  11.435 -0.2550 -0.1530  0.2764
27868W        W43485  14.332   6.465  12.472  0.5158  0.0187  0.2148
27869W        W43486  11.732   0.569  12.543  0.1124 -0.0198  0.1371
27870W        W43487   9.512  12.511  14.359  0.4184  0.2280  0.0838
27871W        W43488   7.102  10.848  11.554 -0.0332 -0.1228 -0.1652
27872W        W43489  11.347   5.113  11.286  0.2407 -0.2035 -0.0243
27873W        W43490  17.612   8.439   1.734 -0.0373 -0.0989  0.0232
27874W        W43491   0.474   6.284   3.688  0.0773  0.3032  0.1512
27875W        W43492   4.102   8.735   2.636  0.0012 -0.3801 -0.2345
27876W        W43493  18.415  13.373  10.435 -0.0144 -0.5727  0.1181
27877W        W43494  14.438   7.602   1.969  0.0107  0.3207 -0.0751
27878W        W43495   1.847  11.850   4.303  0.0873 -0.0462 -0.0643
27879W        W43496  15.761   7.991   0.386 -0.0076 -0.2344 -0.0945
27880W        W43497   1.767   3.750   2.953  0.2022  0.0114 -0.3352
27881W        W43498  15.754  10.157   3.838  0.0169 -0.1984 -0.2161
27882W        W43499  10.720   9.099  11.970  0.0489  0.1681  0.0679
27883W        W43500   2.611  16.378  15.410 -0.0699  0.2127  0.1211
27884W        W43501  13.140   7.353  12.175  0.2112  0.0984  0.4651
27885W        W43502  18.140   6.833   2.493  0.0528 -0.0843  0.0502
27886W        W43503  13.785  14.417   4.936 -0.1984 -0.5192  0.0747
27887W        W43504   1.123   8.438   2.673 -0.2794 -0.0533  0.0743
27888W        W43505   1.257   4.765   2.368  0.1660 -0.0055  0.0453
27889W        W43506   1.863   4.775   6.080 -0.1101  0.0557  0.2091
27890W        W43507  13.193   1.983  12.047  0.0144 -0.1254  0.1170
27891W        W43508  13.412   3.730   3.596  0.1261 -0.0337  0.2542
27892W        W43509  13.143   2.719   1.674  0.3495  0.1340 -0.2760
27893W        W43510   1.184  13.605  14.273  0.0208 -0.0554  0.1151
27894W        W43511  18.549   9.127  10.568  0.2589  0.3296  0.0795
27895W        W43512  10.208   5.180   5.821 -0.2102 -0.2038  0.0822
27896W        W43513  13.941   3.826   4.406  0.3174  0.4282 -0.2223
27897W        W43514   7.903   0.369   1.583 -0.1211 -0.0025 -0.2579
27898W        W43515  14.835   1.298  12.032  0.0768  0.2732 -0.4573
27899W        W43516   3.358  13.510   0.499 -0.0150 -0.1705 -0.0915
27900W        W43517   2.777   3.899   4.973  0.3724 -0.1280 -0.0117
27901W        W43518   6.199   4.878   1.787  0.0929  0.2813 -0.1367
27902W        W43519   7.153  14.742   5.696  0.2204 -0.1339  0.0306
27903W        W43520  14.725  10.901   4.081  0.1690  0.3387  0.1690
27904W        W43521   8.403  10.012   5.154  0.2816  0.0733 -0.2810
27905W        W43522  10.593   9.148  14.193 -0.0255 -0.1423 -0.2091
27906W        W43523  18.044   5.388   4.846  0.0197  0.1192  0.1158
27907W        W43524   7.680  15.612   5.154 -0.2331 -0.1546  0.4857
27908W        W43525   7.471  13.014   3.007 -0.0643  0.1354  0.1946
27909W        W43526  10.456   8.613  11.532  0.0501  0.2774 -0.0875
27910W        W43527  18.027  16.129   3.136 -0.0930  0.1442  0.1887
27911W        W43528   9.878   0.389  10.918  0.0064 -0.1604 -0.0699
27912W        W43529  14.218   8.774  11.512 -0.0548  0.3787 -0.0983
27913W        W43530   2.647   8.711  14.819  0.2594 -0.0677  0.0495
27914W        W43531  16.737   4.942   5.480 -0.1074  0.2645 -0.0903
27915W        W43532  14.462  14.571   0.373  0.0810  0.0616  0.0686
27916W        W43533  12.096   4.648   4.784  0.2425  0.0808 -0.1436
27917W        W43534  13.981   6.371  14.652 -0.1825 -0.0738  0.0142
27918W        W43535   1.537   2.243  13.215 -0.2257  0.1089  0.2272
27919W        W43536  10.782  12.418  12.859  0.0232 -0.3962 -0.1824
27920W        W43537  14.655  10.229  10.579  0.1037 -0.0751 -0.4190
27921W        W43538   4.242   0.509   2.969  0.0992  0.0716 -0.0820
27922W        W43539  14.675   0.016   5.847  0.0962  0.0074  0.0027
27923W        W43540   7.328  14.954   0.897  0.0073  0.0802 -0.1738
27924W        W43541   1.698   9.608   0.585  0.1118  0.1115 -0.0103
27925W        W43542   6.951   4.752  11.641  0.0146  0.0642 -0.2745
27926W        W43543   1.365   3.599   4.509  0.2433  0.0445  0.0343
27927W        W43544   3.064  16.292   3.160 -0.0492  0.3229  0.0040
27928W        W43545   3.447   2.243   5.560  0.0030  0.0030 -0.2000
27929W        W43546   8.074  16.298  15.010  0.4737 -0.2576 -0.0629
27930W        W43547  11.107  17.965   1.894 -0.0446  0.2108  0.4026
27931W        W43548   8.120  10.820  14.075 -0.2064 -0.0826  0.1822
27932W        W43549  11.736   8.486  12.121  0.1068  0.4002 -0.1658
27933W        W43550  13.987   2.313  12.450  0.1268  0.0081 -0.4455
27934W        W43551  18.173  15.100   0.729  0.0999  0.0856 -0.0717
27935W        W43552   6.201   7.744  14.036  0.1363  0.1856 -0.1376
27936W        W43553   0.168   3.499   3.623 -0.0218 -0.0255 -0.0443
27937W        W43554   2.320  12.722  15.537  0.1784  0.0248  0.2381
27938W        W43555   3.090  18.059  15.419  0.0302 -0.2457 -0.0392
27939W        W43556   0.002   5.801  10.762  0.1956 -0.0564  0.2259
27940W        W43557   6.872   4.916  13.853  0.1543  0.0568  0.3101
27941W        W43558  13.803   9.147  12.621  0.2135 -0.0862  0.1800
27942W        W43559   8.998   4.037  15.672 -0.1150  0.0236  0.0910
27943W        W43560  10.689   3.483   6.133 -0.0870 -0.1169  0.0374
27944W        W43561  12.163   1.313  14.384  0.1555  0.2840 -0.3112
27945W        W43562   4.465   1.129   4.447 -0.1792 -0.0600  0.0801
27946W        W43563   0.115  13.302  13.220 -0.2832 -0.1087 -0.0990
27947W        W43564   9.554   1.192   4.761  0.1177 -0.1311  0.0197
27948W        W43565  12.034   2.281  14.795  0.1226  0.2883 -0.0883
27949W        W43566  10.201   9.161   0.706 -0.2325 -0.0101  0.2041
27950W        W43567  10.281   7.277  12.183 -0.1685  0.4476  0.4967
27951W        W43568   8.681  12.871  12.478  0.1222 -0.0479 -0.2007
27952W        W43569   8.871   0.438   3.266  0.0550 -0.0756 -0.1087
27953W        W43570  13.515  13.811  11.775  0.0690 -0.2126 -0.0005
27954W        W43571   4.921  11.471   2.616 -0.3645 -0.2097  0.0823
27955W        W43572  13.530   5.881   5.011  0.1321  0.0743 -0.1551
27956W        W43573  17.443  10.771   3.530  0.0729  0.4291 -0.1256
27957W        W43574   3.107   1.606  14.625 -0.1071 -0.4608  0.1895
27958W        W43575   9.082   6.151   0.559 -0.1786  0.0001  0.0722
27959W        W43576   1.922   1.675   3.935 -0.1006  0.2819 -0.2373
27960W        W43577   9.341  13.792   9.639  0.3640 -0.2698  0.0167
27961W        W43578  15.119   6.430   0.086  0.0462  0.2043  0.0482
27962W        W43579   1.277  16.040   3.620 -0.2807  0.2892  0.1478
27963W        W43580  15.156   7.348   3.116 -0.0004  0.0152 -0.0338
27964W        W43581  17.719  16.618  13.606 -0.2626 -0.1903  0.4216
27965W        W43582  16.218  17.453   4.589 -0.1142  0.2136  0.2304
27966W        W43583   2.693   6.404  14.203  0.3713  0.0928 -0.2387
27967W        W43584  16.346   6.297   4.203  0.0739 -0.2991  0.2143
27968W        W43585   2.341  13.028   2.025 -0.0216  0.1085 -0.0216
27969W        W43586  11.983   5.598  12.957 -0.0789 -0.1819 -0.1453
27970W        W43587  14.250   3.087  14.472 -0.3732 -0.3166 -0.0972
27971W        W43588   6.147  18.296  13.697 -0.2412  0.2460  0.3965
27972W        W43589   6.443   4.271  10.791 -0.0445  0.0019 -0.2680
27973W        W43590  17.259   5.134   4.066 -0.0483  0.0714  0.0194
27974W        W43591  15.792  14.189  12.660  0.1164 -0.2489 -0.1423
27975W        W43592  12.225  10.539   3.230  0.1687 -0.2519 -0.1370
27976W        W43593   2.344  10.578   2.609  0.0613 -0.1859 -0.1730
27977W        W43594  10.292   7.854   2.530 -0.1784  0.1093 -0.1993
27978W        W43595   7.083  12.861   1.891 -0.0060 -0.1740 -0.1310
27979W        W43596  17.065   8.239  13.877 -0.2370 -0.0584  0.2882
27980W        W43597  15.017  17.615  11.833 -0.3713  0.2422  0.1872
27981W        W43598  15.672   7.983  14.291 -0.0927 -0.2557 -0.0843
27982W        W43599  16.308  15.572   3.212 -0.2219 -0.2209 -0.0431
27983W        W43600   3.556   1.365  14.402 -0.3698  0.2938 -0.2219
27984W        W43601  17.602  16.128  15.633  0.6498  0.0677 -0.2332
27985W        W43602  10.176  17.598   3.817 -0.0050  0.0387  0.0719
27986W        W43603   8.257  15.872  14.823 -0.1148 -0.0665 -0.0558
27987W        W43604   7.502   6.376  15.400  0.3988 -0.0985 -0.0771
27988W        W43605  12.446   8.912  15.632  0.1209  0.3454 -0.1945
27989W        W43606   8.254  18.390   3.738 -0.1178  0.2239 -0.0902
27990W        W43607  15.854  13.421   3.584  0.1403 -0.1483 -0.1064
27991W        W43608  11.134  17.169  13.442  0.3457  0.3169  0.3995
27992W        W43609   3.779  14.207  14.323  0.3376 -0.2332  0.1651
27993W        W43610   3.382  13.387   0.987  0.2614  0.1660 -0.1842
27994W        W43611   5.904   4.032   6.269 -0.2057  0.0256  0.2328
27995W        W43612  11.460   9.668   0.633 -0.0324 -0.2949 -0.1734
27996W        W43613  11.117   4.300  15.294 -0.0048 -0.0454 -0.0476
27997W        W43614  10.600   4.691   0.971  0.0880  0.1033 -0.1500
27998W        W43615   9.438   3.432   4.668 -0.1310 -0.0010  0.0602
27999W        W43616  17.059   2.755  13.629  0.2691  0.2573  0.3924
28000W        W43617   9.820   9.891  11.748 -0.0895 -0.1299 -0.0024
28001W        W43618  12.339  18.155  13.864  0.1708  0.0630  0.3809
28002W        W43619   1.593   8.567  10.159 -0.1000 -0.1200  0.0667
28003W        W43620   9.858  12.408   0.541  0.1519  0.2956 -0.0718
28004W        W43621  11.884   8.404  11.592  0.2058  0.4309  0.2962
28005W        W43622   8.685  10.024  10.900 -0.3176  0.0181  0.1747
28006W        W43623  11.075   5.435   5.568 -0.5351 -0.0205  0.0732
28007W        W43624   8.131  15.945   9.600 -0.0710  0.2164 -0.1163
28008W        W43625   6.313  11.056  11.130  0.0115 -0.1076 -0.3919
28009W        W43626   6.589  12.959   5.059  0.5652 -0.2040 -0.0495
28010W        W43627   8.323  10.183   0.029  0.0616  0.3661  0.2137
28011W        W43628  14.885   9.723   2.306  0.5141  0.3456 -0.1557
28012W        W43629   3.887   5.368   5.328 -0.3674 -0.1009  0.2495
28013W        W43630   7.386   1.638  11.138 -0.1122 -0.2313 -0.0494
28014W        W43631   1.310  14.759   3.317  0.2043 -0.1193 -0.1369
28015W        W43632  12.222   9.087   4.528 -0.0859 -0.1609  0.1382
28016W        W43633   2.546  17.294   4.705 -0.1032  0.1710  0.1894
28017W        W43634  12.267   6.976  13.359 -0.1434  0.0636 -0.0456
28018W        W43635  17.019  12.482  13.341  0.0410  0.1514  0.1619
28019W        W43636   1.217  10.028  15.113  0.2990 -0.0972  0.0482
28020W        W43637  11.744  12.757  10.562 -0.4476 -0.0120  0.1859
28021W        W43638  14.125   1.182   3.671 -0.1116 -0.3864 -0.0146
28022W        W43639  18.422  16.299   2.705 -0.0916  0.1055  0.4168
28023W        W43640  18.209   3.355   1.028 -0.0268  0.0916  0.3264
28024W        W43641   5.115  11.638  15.030  0.1345  0.1155 -0.2867
28025W        W43642  15.011  15.007  11.257  0.0020  0.1037 -0.1139
28026W        W43643  18.617   3.503   2.271  0.0407 -0.2541 -0.2499
28027W        W43644   8.358  17.748   0.194 -0.1423  0.0560  0.0957
28028W        W43645   3.782   5.955   2.469 -0.2733 -0.1077 -0.2240
28029W        W43646   4.640  15.619   9.836 -0.2453 -0.2101 -0.0684
28030W        W43647   2.929   9.266  15.100 -0.0980  0.1278 -0.1829
28031W        W43648   3.114   9.018  12.989  0.1770 -0.2022 -0.0588
28032W        W43649   0.648  13.953  13.619 -0.1878 -0.1531  0.1922
28033W        W43650  16.696   7.774   1.307  0.3803 -0.1322 -0.3269
28034W        W43651   7.096  15.033   2.900 -0.1707 -0.1543 -0.3851
28035W        W43652  16.083  16.793  10.998  0.2701  0.3036 -0.2397
28036W        W43653   4.920  18.467  10.699 -0.1349  0.4439  0.1864
28037W        W43654   8.041   3.244   3.819  0.3680 -0.1635  0.3322
28038W        W43655  18.253   8.657   4.110 -0.0525 -0.2185  0.3442
28039W        W43656   7.740  14.675   9.851 -0.0855  0.3300 -0.0842
28040W        W43657  10.380  13.741   0.785  0.4287  0.0371 -0.0942
28041W        W43658   8.976   5.524   5.107 -0.1519  0.1381  0.1950
28042W        W43659   3.793   5.398   4.432  0.1571 -0.1169  0.3082
28043W        W43660   8.348   2.337   2.177  0.1439 -0.0729 -0.1041
28044W        W43661   5.037  12.287   3.334 -0.4558  0.1369 -0.0599
28045W        W43662   0.823  10.975  14.034 -0.0248 -0.0461 -0.2928
28046W        W43663   0.808   9.712  12.730  0.0563 -0.1183 -0.1285
28047W        W43664   0.696   9.622   0.178 -0.0263 -0.0351  0.3094
28048W        W43665  18.225   4.349  11.646  0.0566  0.2768  0.2259
28049W        W43666   8.747  18.315  11.281  0.1417 -0.0951 -0.2399
28050W        W43667   2.801   7.647   1.509 -0.0784 -0.3967  0.0863
28051W        W43668   7.711  13.452   4.235 -0.1406 -0.1655 -0.2315
28052W        W43669   6.434   8.685   4.216 -0.1032  0.0540  0.2778
28053W        W43670  11.437   2.306   0.525 -0.3636  0.1480 -0.0752
28054W        W43671   0.250   2.414   4.797 -0.1725 -0.3326 -0.0670
28055W        W43672   1.449   2.095  11.293 -0.3091  0.1734 -0.0665
28056W        W43673  11.504   5.927  14.672  0.1440  0.0135 -0.0952
28057W        W43674  17.821  18.636   2.871 -0.0402 -0.0201 -0.0766
28058W        W43675   6.178   1.147  11.851  0.0369  0.1602 -0.1507
28059W        W43676  14.042  14.026   5.213 -0.3443 -0.4246 -0.1258
28060W        W43677  17.456  13.789   2.658 -0.1280 -0.0085 -0.3178
28061W        W43678  16.371  15.642  14.061 -0.0510 -0.1154  0.0097
28062W        W43679  14.570   7.352   0.815  0.1392  0.0552  0.0652
28063W        W43680   3.707  12.349   1.819 -0.2043 -0.0387 -0.0502
28064W        W43681  18.641   1.738   2.370 -0.0103 -0.0050 -0.2568
28065W        W43682  16.389  16.604  14.099  0.0669  0.2812  0.2337
28066W        W43683  12.108  18.066   3.657 -0.3396 -0.1458 -0.2073
28067W        W43684  15.131  11.385  11.103 -0.2482 -0.1555  0.1340
28068W        W43685  17.228   4.966  14.365 -0.2744 -0.2317  0.5866
28069W        W43686   2.292   0.667  11.191  0.2485  0.4657  0.1084
28070W        W43687  10.324   4.073   3.858  0.3632 -0.0082  0.0319
28071W        W43688  15.029   3.785   5.121  0.0848  0.0499 -0.1101
28072W        W43689   3.600  15.493   5.222 -0.0362  0.0197  0.2815
28073W        W43690   4.784   3.040  14.424  0.2014 -0.1577 -0.1487
28074W        W43691   1.223   9.757   2.199  0.0255 -0.1482  0.2631
28075W        W43692   8.138   1.741   4.063  0.0008  0.2552  0.0790
28076W        W43693  12.208   2.269   1.960  0.0274 -0.0972  0.1975
28077W        W43694   6.967  14.045   3.899 -0.0814  0.0675  0.0650
28078W        W43695   0.767   0.027  13.746  0.1776  0.0830  0.2586
28079W        W43696  15.757   6.962  11.069 -0.1452  0.1198 -0.1523
28080W        W43697  12.838  11.489   5.174  0.0399  0.1492  0.2179
28081W        W43698   2.067   9.606  12.226  0.2496 -0.0318  0.2099
28082W        W43699  10.429   7.546  13.504  0.3177  0.3355 -0.0491
28083W        W43700   4.690   2.416  13.239 -0.1716 -0.0631  0.0440
28084W        W43701  12.147   2.043  13.974  0.2354  0.1666 -0.1632
28085W        W43702   1.191   5.551   5.253  0.3760  0.1825  0.0441
28086W        W43703   0.652   7.195  14.771 -0.1755 -0.1569 -0.1627
28087W        W43704   3.217  11.790   0.050  0.0940 -0.1194  0.0083
28088W        W43705   8.773   5.546  11.252  0.1242  0.2353 -0.1554
28089W        W43706   7.658   5.930  14.798  0.0747 -0.2707 -0.0124
28090W        W43707   0.063  17.809   1.496 -0.0969  0.1174  0.0156
28091W        W43708   4.521  18.027  12.790 -0.1097  0.3785  0.0512
28092W        W43709  14.240  10.767   3.006 -0.0867 -0.2456 -0.1886
28093W        W43710   7.404  10.086   1.138  0.0684  0.0793 -0.2120
28094W        W43711   2.654  16.745   1.811  0.1533  0.0247 -0.0557
28095W        W43712  13.956  17.442   3.659 -0.2150  0.0601  0.0811
28096W        W43713  14.808  15.563   3.925 -0.0374  0.2181 -0.0047
28097W        W43714   0.718  15.386   3.077 -0.1192  0.2798 -0.3456
28098W        W43715   0.478   1.445  11.998  0.2496 -0.1284 -0.0529
28099W        W43716   7.089   5.734  13.107  0.0611 -0.0107 -0.0265
28100W        W43717  11.326   1.212  14.005  0.3251 -0.1227  0.0277
28101W        W43718   0.391  18.215  11.855 -0.0602 -0.1025 -0.0423
28102W        W43719   8.799   4.536   4.230  0.0379 -0.0842 -0.1093
28103W        W43720  15.378   3.294   2.175  0.0308  0.2494  0.2837
28104W        W43721   0.131  10.860  13.345 -0.0766 -0.2957  0.2566
28105W        W43722  14.661   8.710   2.824 -0.5185 -0.3880  0.1386
28106W        W43723   0.682  12.266   2.335 -0.4390  0.0577 -0.1071
28107W        W43724  16.477  12.886  11.673  0.2256  0.0214 -0.0240
28108W        W43725   7.426   0.798   3.493 -0.1590 -0.0380  0.1067
28109W        W43726   0.684   4.011  13.797  0.0452  0.0790 -0.0260
28110W        W43727   5.083  15.112   0.803 -0.1481  0.1312  0.0509
28111W        W43728   4.107   5.472  14.448  0.1824 -0.0566  0.1768
28112W        W43729   1.254  12.107  11.348  0.0866  0.0478  0.1396
28113W        W43730  15.025   2.248   5.266 -0.0525 -0.4295 -0.2153
28114W        W43731  10.305   3.338   5.270  0.0408  0.2061  0.2515
28115W        W43732  15.704  16.096  15.309 -0.1591 -0.1251  0.4137
28116W        W43733   1.416  16.250   5.059 -0.0685  0.1539  0.0746
28117W        W43734  14.316   2.162  15.153  0.3750  0.0931 -0.3414
28118W        W43735   9.425   3.133   5.808 -0.1053 -0.2052  0.1306
28119W        W43736   9.299  10.427   0.471 -0.1129  0.5404  0.0771
28120W        W43737   7.244   8.573   5.477 -0.3567  0.0112  0.1378
28121W        W43738   6.659   2.111   3.391 -0.0853 -0.1275  0.5000
28122W        W43739  12.591   5.765   5.119  0.0741 -0.1585  0.0160
28123W        W43740  10.146   3.372  11.929  0.0422 -0.1286  0.0089
28124W        W43741   1.658   3.161  13.447  0.0413 -0.0016  0.2641
28125W        W43742  17.484   1.451  12.684  0.4359  0.3032 -0.0934
28126W        W43743   0.515   5.229  12.987 -0.1950 -0.3110  0.1629
28127W        W43744   7.419  15.256  12.242  0.0944 -0.1377 -0.2588
28128W        W43745   1.134  10.739   3.938 -0.0993 -0.1004 -0.1783
28129W        W43746  15.530   6.269  13.335  0.2742  0.0318  0.3306
28130W        W43747   6.771  14.679   3.188 -0.3033 -0.0555 -0.4142
28131W        W43748   3.933  12.859   2.828  0.1787 -0.2649  0.0660
28132W        W43749   2.123  17.315  10.698  0.0268  0.0087 -0.1502
28133W        W43750  14.823  17.788   5.762  0.2702  0.1090  0.2000
28134W        W43751   8.433  11.563  14.651 -0.0519 -0.0149  0.0690
28135W        W43752   6.916   8.624   0.705 -0.0593 -0.0328  0.0096
28136W        W43753  12.303  11.615  11.009 -0.2602  0.1656  0.0803
28137W        W43754   1.548   6.025  13.298 -0.4130  0.0254 -0.0883
28138W        W43755   1.743   9.440   4.302 -0.1105 -0.2447 -0.1202
28139W        W43756  15.721   9.295  14.653  0.1748  0.1482 -0.0986
28140W        W43757   3.480   4.068  11.201 -0.0155 -0.0081  0.2040
28141W        W43758   7.601  18.224   3.445 -0.0756 -0.1696 -0.0277
28142W        W43759   6.695  15.418  11.575  0.2546 -0.1539  0.0472
28143W        W43760   7.448  16.798  13.525 -0.1973 -0.2555  0.0500
28144W        W43761   0.425  17.438  13.144 -0.5248  0.2859 -0.1187
28145W        W43762   6.465   4.735  13.433  0.0617 -0.1159 -0.0597
28146W        W43763  17.752   5.232   1.199 -0.1967 -0.0522 -0.1320
28147W        W43764  16.487   1.108  11.817 -0.1074  0.1237  0.0798
28148W        W43765  16.839  13.511   5.603  0.3498 -0.0476 -0.6498
28149W        W43766   1.570   3.357   4.091  0.1371  0.1537  0.0451
28150W        W43767   7.116  14.266  10.789  0.0128 -0.0295 -0.3404
28151W        W43768   4.876   9.817   0.193 -0.0703 -0.1779  0.0527
28152W        W43769   7.806   9.980   1.468 -0.1602 -0.1497  0.0720
28153W        W43770   2.319   9.983   3.398  0.0125 -0.0667  0.1562
28154W        W43771  10.700   5.667  13.582 -0.1574  0.1014  0.1096
28155W        W43772   7.955  12.910   0.916  0.0310 -0.0812 -0.4801
28156W        W43773   6.560  14.184  10.829 -0.2496 -0.0466 -0.0746
28157W        W43774  10.747   9.725  15.690  0.3935 -0.0946 -0.2612
28158W        W43775  12.960  13.806  14.938 -0.0252 -0.0061  0.0231
28159W        W43776   0.550   3.870   3.859 -0.0039 -0.2564 -0.3076
28160W        W43777   0.418  15.372  13.316  0.4201 -0.1633 -0.1549
28161W        W43778   4.182  12.460  10.973 -0.0167  0.2041  0.0337
28162W        W43779   1.034   5.148  15.093  0.0543  0.3855  0.0937
28163W        W43780  15.171   2.548  11.734  0.1298 -0.0769 -0.2282
28164W        W43781   7.262  13.349  15.425  0.0665 -0.0943 -0.0017
28165W        W43782  12.486  13.512  12.792 -0.5064 -0.0469 -0.0382
28166W        W43783   8.072  11.167  11.456 -0.0032 -0.0484 -0.1186
28167W        W43784   0.547   9.810   4.302 -0.0009 -0.1195 -0.0849
28168W        W43785   4.156   2.794  12.434  0.2941  0.3142  0.3182
28169W        W43786   8.565   3.186   3.692  0.2351 -0.1098  0.2025
28170W        W43787   5.528  17.977   3.916 -0.1212  0.0396  0.0573
28171W        W43788  13.700  12.011  10.984 -0.1338  0.0860 -0.1225
28172W        W43789  13.130  12.836  13.942 -0.0289  0.0226  0.1467
28173W        W43790   3.051  13.742  14.085 -0.0015 -0.1786 -0.0518
28174W        W43791  18.288   9.666  10.710 -0.0480 -0.0011  0.0531
28175W        W43792   8.413   0.567   1.639 -0.0528  0.1409 -0.0738
28176W        W43793   5.069   6.370  15.294  0.0713 -0.2318 -0.0745
28177W        W43794   4.971  10.873   0.402  0.0196 -0.1508  0.0201
28178W        W43795  10.361  13.770   2.948  0.0827 -0.0402 -0.1476
28179W        W43796  18.103  11.555   2.573  0.1298 -0.1056 -0.1236
28180W        W43797  12.145   2.482  12.203 -0.1935  0.0516 -0.1420
28181W        W43798  12.580   7.928  11.232  0.1094 -0.1268  0.2431
28182W        W43799   2.827  13.583   4.404  0.3963 -0.1047 -0.1369
28183W        W43800   5.005  11.225  14.762 -0.1214 -0.1696  0.2459
28184W        W43801  16.370  11.495  11.851 -0.1484  0.0338 -0.3206
28185W        W43802  16.412   5.520   0.960 -0.2166 -0.0150  0.1937
28186W        W43803   0.812  15.800   2.846  0.1445 -0.6069  0.0256
28187W        W43804   7.387   7.195  11.313  0.0797 -0.0839  0.2514
28188W        W43805   5.204  17.895   2.261  0.2326 -0.0238 -0.1967
28189W        W43806   4.866   1.907   0.430  0.5036 -0.0902  0.1166
28190W        W43807   9.373  17.466   0.005  0.0886 -0.0927  0.2711
28191W        W43808   8.632   4.380   1.171  0.0904 -0.1547 -0.4459
28192W        W43809  15.986   6.062  15.453  0.0596  0.3623  0.3816
28193W        W43810  16.522  14.816  13.686  0.1527 -0.0442  0.0818
28194W        W43811  11.369  10.508  15.447  0.0438 -0.5476 -0.1605
28195W        W43812  15.655  11.707  14.798 -0.0124 -0.0851  0.1659
28196W        W43813   6.730  14.924   3.634 -0.0551  0.2849 -0.2572
28197W        W43814   2.425  14.543  13.041 -0.2117  0.0603  0.0263
28198W        W43815  16.800  17.075   0.027 -0.0187  0.0655  0.4470
28199W        W43816  10.278   2.525   5.614 -0.0348  0.0857  0.1540
28200W        W43817  12.311   4.488  11.666 -0.2722  0.1324  0.2046
28201W        W43818  13.170   8.134  15.017  0.1229  0.2313  0.2315
28202W        W43819   9.474   3.347   1.928  0.3276 -0.1392 -0.0947
28203W        W43820   9.044  13.178  12.807  0.1362  0.1505 -0.0045
28204W        W43821   5.870   0.125   0.861  0.1815  0.0987 -0.1154
28205W        W43822  11.883  16.248   2.889  0.2917  0.1453  0.0013
28206W        W43823   3.994   3.620  15.048 -0.2895  0.0424  0.0244
28207W        W43824   8.918  15.836   2.010 -0.0509 -0.5464 -0.1024
28208W        W43825   7.544  15.126   3.142  0.2715  0.0679 -0.5009
28209W        W43826  10.858   3.037   3.157  0.0744 -0.1310 -0.0310
28210W        W43827  12.967  13.965   1.998 -0.2964  0.0976 -0.2187
28211W        W43828  13.616  12.374  13.594 -0.1722 -0.2008 -0.2240
28212W        W43829  17.054   6.288  14.895 -0.2319  0.0924 -0.1133
28213W        W43830  15.717  17.916   5.276 -0.0587  0.0516  0.2217
28214W        W43831  13.486  12.181  14.606 -0.4426  0.3315  0.1090
28215W        W43832  13.545   6.468  12.959  0.0399 -0.1945 -0.0757
28216W        W43833   8.539   1.112  12.342  0.1825  0.0790 -0.5849
28217W        W43834   3.767   9.189  12.527  0.0974 -0.1294 -0.0584
28218W        W43835   9.586   8.569   2.729 -0.1181  0.1077 -0.0682
28219W        W43836   8.744   8.070  13.021  0.0120  0.0657  0.3414
28220W        W43837  11.524   1.050  12.694  0.0705 -0.0143  0.0422
28221W        W43838   4.743   2.443   5.829 -0.0370 -0.0719  0.0432
28222W        W43839   7.022   1.552  11.690  0.1650 -0.2810 -0.0836
28223W        W43840   9.844  18.471   5.586  0.3624  0.2222 -0.1205
28224W        W43841  15.077  14.920  15.190  0.0757  0.0436 -0.0488
28225W        W43842  10.857   6.769  13.288  0.1912 -0.1783  0.4659
28226W        W43843   3.484   1.036  11.230  0.0858 -0.1350 -0.1680
28227W        W43844  16.754  11.115  14.915  0.2817 -0.2555 -0.3497
28228W        W43845  17.382   0.873  12.819 -0.1224  0.1727 -0.2017
28229W        W43846  13.814   8.377  14.366 -0.1826 -0.4145  0.0468
28230W        W43847   6.945   9.553  14.797  0.4302 -0.0775 -0.1073
28231W        W43848   9.831  17.261   3.761  0.1433 -0.2631 -0.0843
28232W        W43849  17.077  15.926  13.507 -0.0083 -0.1065 -0.1470
28233W        W43850  10.948   7.514   4.795  0.1893 -0.2394 -0.1013
28234W        W43851   0.956  14.129   1.869  0.0176  0.3465  0.1685
28235W        W43852   3.529   3.133   4.772  0.0741  0.1931 -0.2903
28236W        W43853  11.413  15.296   4.259 -0.3284 -0.2167 -0.0596
28237W        W43854   0.326  16.512   1.024 -0.2340  0.0161  0.2349
28238W        W43855  10.331   2.341   3.723  0.3682  0.0980 -0.1029
28239W        W43856  17.630   4.721  12.456  0.1543  0.1968  0.2247
28240W        W43857   0.292   6.396   2.017 -0.0765 -0.1714  0.0787
28241W        W43858  16.806   3.287   0.970 -0.1006 -0.0750 -0.0401
28242W        W43859   6.948   7.576  12.345  0.1140  0.3263  0.0439
28243W        W43860   2.140  13.100  12.874  0.0780  0.0016 -0.0699
28244W        W43861  14.524  14.379   5.961  0.4869 -0.0786 -0.1438
28245W        W43862   0.029  10.234  12.733  0.1056  0.2122  0.2124
28246W        W43863   0.731   5.456  11.048 -0.0979  0.2847 -0.0740
28247W        W43864   1.495   2.221   0.550 -0.0494  0.0789 -0.1194
28248W        W43865  10.771  16.746  11.313 -0.1722  0.0535 -0.0711
28249W        W43866   9.616   3.100   5.001  0.0254  0.1003 -0.1779
28250W        W43867  10.441   3.163  14.061  0.0480  0.2265  0.1534
28251W        W43868  14.243   2.689   0.547  0.2249  0.0949 -0.0877
28252W        W43869   4.700  12.624  12.308  0.3418 -0.1714 -0.1923
28253W        W43870  12.060   9.376   2.733  0.1948  0.0485  0.0898
28254W        W43871  12.240   8.336  12.977 -0.0012 -0.1560 -0.1204
28255W        W43872  13.109  12.657  11.742 -0.1526 -0.1047 -0.0267
28256W        W43873  15.186   6.737   3.282  0.0225 -0.0188  0.2093
28257W        W43874  16.936  11.439   1.998  0.1660 -0.1196 -0.1323
28258W        W43875  14.800   5.644  12.862 -0.2422  0.1237  0.1640
28259W        W43876  17.045  15.332   0.501  0.1015 -0.1498 -0.0988
28260W        W43877  12.283   0.747  13.987 -0.1073 -0.3510  0.0920
28261W        W43878  12.264  16.474  13.153  0.0252 -0.1172  0.0759
28262W        W43879   8.004   9.484  10.500 -0.1638 -0.0044 -0.2341
28263W        W43880   4.104   9.654   1.441 -0.0915 -0.2670  0.2500
28264W        W43881   7.980  14.387   1.281  0.1120 -0.0531  0.0699
28265W        W43882  12.895   2.590   5.015  0.0966  0.0900  0.2115
28266W        W43883   5.585  12.419   5.414  0.0596 -0.2584 -0.0313
28267W        W43884  18.266  13.635   4.029 -0.1085 -0.2449  0.3507
28268W        W43885   8.274   6.665  15.181  0.1207 -0.0872  0.0280
28269W        W43886   1.897  17.938  12.834  0.0187  0.1621  0.2111
28270W        W43887  11.705   3.341   0.371 -0.3540  0.0805 -0.0509
28271W        W43888  13.200   9.758   1.693  0.1478  0.2565 -0.0924
28272W        W43889   8.761   0.652  12.306  0.1151 -0.0094 -0.1168
28273W        W43890   7.494   0.293   5.700  0.6725 -0.0262 -0.0844
28274W        W43891  15.985   6.424   2.082 -0.0623  0.1831  0.3706
28275W        W43892  12.569  14.148   1.225 -0.0111  0.1994  0.1984
28276W        W43893   2.919  15.870  12.983 -0.1802 -0.3358  0.5830
28277W        W43894   7.122   9.991   4.320 -0.3346  0.2704 -0.0715
28278W        W43895   2.633  17.748  15.800 -0.1706 -0.0916  0.1382
28279W        W43896  17.162   3.190  11.439 -0.2873 -0.0337  0.0804
28280W        W43897  12.447   4.007   0.477  0.0682  0.0314 -0.2210
28281W        W43898   0.146   3.037  10.158  0.0955  0.2487  0.0157
28282W        W43899   2.368  11.459   3.297 -0.0773  0.2391  0.0734
28283W        W43900  11.555   3.331   4.904  0.2197  0.0279  0.1012
28284W        W43901  12.179   9.457  14.839  0.0286  0.2552  0.0847
28285W        W43902  15.835   1.861   0.576  0.1978 -0.2526  0.2773
28286W        W43903  12.357   1.059  13.606  0.0784 -0.4634 -0.0347
28287W        W43904   4.278   2.317   5.286  0.4394  0.0981 -0.2530
28288W        W43905   6.710   3.706   0.476 -0.0438  0.4371  0.2402
28289W        W43906  13.608  18.620   0.745 -0.0609 -0.0417 -0.0629
28290W        W43907  13.065  10.470   4.114  0.3796 -0.1276  0.3128
28291W        W43908   0.103   2.907   1.603  0.0865 -0.0381  0.1637
28292W        W43909   7.149   5.856  11.768  0.2449  0.1876  0.0532
28293W        W43910  11.000   7.480  13.548 -0.0046 -0.1284  0.0076
28294W        W43911   6.898  18.541   3.444  0.0921  0.0868 -0.0060
28295W        W43912   1.639   8.400   2.739 -0.2139  0.0035  0.1658
28296W        W43913  13.270   9.572   4.850 -0.1803 -0.1795 -0.0738
28297W        W43914   8.642   6.618   1.564  0.4792 -0.3634 -0.3294
28298W        W43915   1.922  12.507  10.668  0.2416 -0.0071  0.0669
28299W        W43916  10.591  14.247  11.043  0.1430  0.4383  0.2868
28300W        W43917   0.757   5.921  15.400 -0.0916 -0.1407 -0.2074
28301W        W43918   9.758   5.234   3.643  0.0216  0.0114 -0.1077
28302W        W43919   7.179  10.920  12.619  0.3052 -0.2754 -0.0422
28303W        W43920   6.681  15.184   3.174 -0.0475 -0.0605  0.0820
28304W        W43921  15.097  14.256  15.077  0.1025 -0.0779 -0.0583
28305W        W43922  11.946  16.665  10.787 -0.2611  0.0050  0.0850
28306W        W43923  15.033  11.126  13.479 -0.3857 -0.0653  0.2408
28307W        W43924  17.034  16.496  12.846  0.1098  0.1461  0.0011
28308W        W43925   0.485   1.049   1.895 -0.2016 -0.1014 -0.2482
28309W        W43926  10.607   7.338  14.780  0.0465  0.0512 -0.2047
28310W        W43927   7.817   6.970  14.710 -0.3601 -0.2302 -0.0989
28311W        W43928  16.076   8.672  13.873  0.2583  0.0273  0.2795
28312W        W43929   5.249   4.378   2.692  0.0778 -0.2145  0.0803
28313W        W43930  12.965   2.889  14.128  0.2383 -0.1090 -0.1077
28314W        W43931   6.256  12.857  15.746  0.1061  0.1077 -0.0353
28315W        W43932  16.450   6.505  13.119 -0.0439 -0.0814 -0.0923
28316W        W43933  13.438  16.947   3.062  0.1483 -0.0131  0.2326
28317W        W43934  13.007  18.271   1.473 -0.1770  0.0940 -0.1544
28318W        W43935  16.674   7.772   3.365  0.0999 -0.0297 -0.3035
28319W        W43936   5.558   7.448   2.598 -0.0770  0.1819 -0.4014
28320W        W43937   0.325   3.702  13.538 -0.1079  0.1888 -0.0357
28321W        W43938   7.950   3.793  12.297 -0.0054 -0.1501 -0.1178
28322W        W43939  13.649   3.880   1.499 -0.1740  0.2011 -0.0322
28323W        W43940   4.976   0.024   5.193 -0.0595 -0.0063  0.0739
28324W        W43941  13.804  12.982   4.788  0.0948 -0.0601 -0.0096
28325W        W43942   9.654   6.116   3.147 -0.0864 -0.1749  0.1001
28326W        W43943   8.051   2.816  15.650  0.1778  0.1053  0.0828
28327W        W43944  16.562  15.836   0.356  0.2948 -0.2249  0.3194
28328W        W43945  16.252   1.218  13.690  0.0574 -0.0215  0.2253
28329W        W43946  17.328  10.795   4.100 -0.2335  0.2152 -0.0704
28330W        W43947  17.840   3.966  14.095 -0.2509  0.1877 -0.0067
28331W        W43948   1.284   8.476   0.996 -0.1868 -0.0960 -0.1350
28332W        W43949  16.924  17.541   1.547  0.0499 -0.2351  0.1824
28333W        W43950  12.755   9.663   3.992  0.0646  0.0091  0.1617
28334W        W43951  18.032  18.536  12.659 -0.5072  0.4662 -0.0702
28335W        W43952  15.333   0.024  13.288  0.0501  0.0993  0.0111
28336W        W43953  10.547   0.144   1.677 -0.2399  0.5551 -0.0343
28337W        W43954   6.944  13.069   3.326  0.0741  0.1563 -0.0573
28338W        W43955   9.551  11.982  12.954  0.1455  0.2567  0.0406
28339W        W43956   8.354   7.867   3.550  0.0334  0.2558 -0.2552
28340W        W43957   9.937   8.834   5.447 -0.0636  0.3058  0.0668
28341W        W43958   0.674   0.868  15.431  0.1644 -0.3686  0.2140
28342W        W43959   6.685   8.015   3.127 -0.0992  0.1624  0.3178
28343W        W43960  18.415   2.673  15.234 -0.2200 -0.2702  0.2655
28344W        W43961  14.635  13.320  11.672 -0.1655  0.3818 -0.0563
28345W        W43962  14.023   9.872   2.676  0.1326  0.1496  0.1007
28346W        W43963   9.755   7.675   2.572  0.2068 -0.0095  0.0208
28347W        W43964   6.377   6.978  13.343 -0.1397 -0.0606  0.0154
28348W        W43965   1.310   0.362   2.145 -0.0559  0.3762  0.3456
28349W        W43966   8.969   0.829  15.531  0.3136  0.2352  0.0332
28350W        W43967   8.908  10.998  11.390 -0.1554 -0.3050  0.2653
28351W        W43968  10.662   5.387  15.451  0.1217 -0.2240 -0.1300
28352W        W43969  15.938  12.268   4.693 -0.0705 -0.0519  0.1979
28353W        W43970  16.075  10.200  15.600 -0.2648 -0.1377  0.1316
28354W        W43971   2.038   9.144  14.319  0.0641  0.0699  0.1210
28355W        W43972   4.988   5.890  14.606  0.1231 -0.3082  0.1672
28356W        W43973   4.307  11.317  12.336 -0.0286 -0.0822 -0.0894
28357W        W43974   2.863  17.316   3.751 -0.2441 -0.0204 -0.0914
28358W        W43975  16.976  16.196   4.072  0.4262  0.0605  0.2488
28359W        W43976   2.505   3.166  11.872  0.0470 -0.2941 -0.2463
28360W        W43977   3.214  14.636   3.751 -0.0060  0.3303 -0.3038
28361W        W43978   5.767  13.315   3.789 -0.2928  0.1339 -0.2632
28362W        W43979   8.504   0.559  15.345  0.7047 -0.3656  0.0872
28363W        W43980   9.895  12.889  11.241  0.0745 -0.0601  0.1177
28364W        W43981  12.704  14.422   1.870  0.1334 -0.0100  0.0878
28365W        W43982   1.101   4.453   3.293  0.0911  0.0458  0.3399
28366W        W43983   8.613  10.394   4.697  0.0548  0.0306 -0.1283
28367W        W43984   7.793  12.188   0.270 -0.0801  0.0848  0.2606
28368W        W43985   1.455   1.871  12.862  0.0896 -0.0993 -0.1695
28369W        W43986   2.862  12.011  10.830  0.0937 -0.1111  0.1069
28370W        W43987  16.655  14.409  14.522 -0.0543 -0.0864 -0.0320
28371W        W43988  17.670  18.273  12.482  0.0931 -0.2415 -0.0035
28372W        W43989   6.288  17.275   3.419  0.1716 -0.3182  0.0630
28373W        W43990   5.755  18.578   4.699 -0.3321  0.0071 -0.0123
28374W        W43991   7.144  18.270   3.102 -0.0461 -0.1283  0.1464
28375W        W43992  17.667   9.722  11.298  0.1037  0.0840  0.0987
28376W        W43993   3.691   6.461  15.487 -0.2625 -0.0378 -0.0882
28377W        W43994   2.503   5.285   3.947  0.3533  0.3242  0.3075
28378W        W43995   8.084   1.351   5.169  0.0414 -0.0861 -0.2638
28379W        W43996  16.506   6.426   0.316  0.1265  0.3032 -0.2592
28380W        W43997  17.722   1.707  13.147  0.0805  0.0549  0.1323
28381W        W43998   9.617   5.259   1.395  0.1914 -0.2332  0.2901
28382W        W43999  11.789   2.091   1.691  0.0934 -0.1566  0.0092
28383W        W44000   6.491  11.771  14.904  0.1856  0.0386  0.0718
28384W        W44001  18.562  14.618   2.773  0.1443 -0.3394  0.0931
28385W        W44002   2.060   5.823   1.114 -0.0285 -0.2150 -0.0991
28386W        W44003   5.000   6.684   5.136 -0.4257  0.3230  0.0246
28387W        W44004  15.156   3.748   1.991  0.2895 -0.0436 -0.0889
28388W        W44005   8.373  14.003  10.275  0.0695  0.0171  0.1569
28389W        W44006   2.902  17.726  14.533  0.1905  0.0660  0.0205
28390W        W44007   5.009  15.390   2.308 -0.2110  0.2097 -0.2500
28391W        W44008   5.248  16.095   4.776  0.2369  0.1031  0.1318
28392W        W44009   2.563  16.531   5.586  0.1024 -0.0086  0.0827
28393W        W44010   0.303  13.832  14.674  0.0595 -0.2908 -0.1607
28394W        W44011   2.517   4.805   4.347 -0.0148 -0.2398 -0.2221
28395W        W44012   9.538  10.490  13.799 -0.0612  0.0449 -0.0547
28396W        W44013  14.776   1.635   5.878 -0.3290 -0.0142  0.0522
28397W        W44014  13.139   7.965   5.875  0.0138 -0.0243  0.4838
28398W        W44015   1.330  14.724  12.829  0.1074  0.2361  0.0156
28399W        W44016   6.700   1.371  12.781  0.0222 -0.0156  0.0446
28400W        W44017  12.201   6.907  12.177 -0.1130 -0.0558  0.0193
28401W        W44018  15.390  17.242   0.616  0.1438  0.2132 -0.0553
28402W        W44019  15.911   9.266   1.666  0.2273  0.0011 -0.0895
28403W        W44020   2.886   4.634  12.036  0.2802 -0.1360 -0.0704
28404W        W44021   7.703   8.365   3.856 -0.1430  0.0613 -0.3138
28405W        W44022   3.758   8.337  12.795  0.0948 -0.1883 -0.0275
28406W        W44023  13.355  15.066  12.777  0.1976  0.0033  0.0270
28407W        W44024   5.049   3.982  11.403 -0.0232  0.0008 -0.2036
28408W        W44025  12.302  12.780   5.155 -0.0295 -0.0500 -0.2458
28409W        W44026   7.199  18.214  11.974  0.0115 -0.1307 -0.0968
28410W        W44027   4.030   5.012  15.161  0.1187  0.0355 -0.4262
28411W        W44028   8.358  17.798   0.735  0.2862 -0.1970 -0.0215
28412W        W44029   9.630   7.308  10.470  0.2257  0.0880 -0.0460
28413W        W44030   9.139  11.891  10.524  0.1144  0.1866  0.1102
28414W        W44031  17.530   7.797   0.737  0.2384  0.1479  0.0681
28415W        W44032   0.822   7.778   5.543 -0.0798  0.1286  0.0701
28416W        W44033   5.276   6.647   1.658 -0.2375  0.0450  0.0800
28417W        W44034  12.857   1.364   4.438 -0.1085  0.2721  0.0704
28418W        W44035  14.868   7.334  12.699  0.0073  0.2647  0.1501
28419W        W44036  14.407   0.510  13.632 -0.2069 -0.1798  0.1515
28420W        W44037   3.172   0.748   4.540 -0.0596 -0.0187 -0.1700
28421W        W44038   7.744  13.737  11.036 -0.1556 -0.0736  0.2844
28422W        W44039  15.014  16.460  13.956  0.4788  0.2462 -0.2445
28423W        W44040   6.424  11.483   2.095 -0.0652  0.2502  0.1438
28424W        W44041  13.328  15.085  13.299  0.1015  0.1389  0.0838
28425W        W44042  10.792   9.561   2.376  0.1397 -0.0135  0.1360
28426W        W44043  17.193  12.625  10.524 -0.0940 -0.0060  0.0902
28427W        W44044   0.103   8.060   4.812 -0.0705 -0.1928  0.0665
28428W        W44045   5.570  16.891  10.862 -0.3436  0.0586 -0.3760
28429W        W44046  10.439   5.214   4.579 -0.1401  0.2120 -0.1715
28430W        W44047   2.095  10.283   0.521 -0.4517  0.1524  0.0217
28431W        W44048  12.100  15.235   1.596 -0.0981 -0.0412 -0.1409
28432W        W44049   3.021   6.287  11.325 -0.0226 -0.3448  0.0803
28433W        W44050   1.681   5.634  11.440  0.0621  0.3930 -0.2077
28434W        W44051  18.233   8.733  10.481 -0.0316  0.0631 -0.1058
28435W        W44052  15.932  17.381  14.078 -0.5357  0.1568  0.2276
28436W        W44053  14.210   4.435  14.950  0.1062 -0.2491 -0.2779
28437W        W44054  18.454   3.588   2.730 -0.0136  0.2851 -0.1013
28438W        W44055  15.867   1.582  13.738  0.1450  0.0191  0.1270
28439W        W44056   7.670   1.326   4.732 -0.0859 -0.3619  0.1576
28440W        W44057   7.528  10.517  10.787  0.2529 -0.0551  0.0820
28441W        W44058   4.499  16.297  11.449 -0.0832  0.2728 -0.0728
28442W        W44059   5.141   9.185  11.815  0.3683 -0.1281  0.4796
28443W        W44060   8.906  13.992   3.523  0.0543 -0.0811 -0.0082
28444W        W44061   4.870  14.364  13.657 -0.2310  0.2245  0.0661
28445W        W44062   1.441  18.484  12.252 -0.0211  0.1399  0.1596
28446W        W44063  17.364   0.621   3.544  0.1019 -0.0861 -0.0225
28447W        W44064   9.312  11.286   1.544  0.0622 -0.0264  0.0519
28448W        W44065  11.297   4.697  11.867  0.2351  0.0125  0.0289
28449W        W44066   4.472  14.582  13.403  0.3428 -0.2745 -0.2311
28450W        W44067  13.581   2.886   2.985 -0.2026  0.2290  0.1839
28451W        W44068   3.923  10.380  15.264 -0.0268  0.1140  0.2922
28452W        W44069   1.906  16.004  11.117 -0.0047 -0.1525 -0.1490
28453W        W44070   8.664   8.392   4.429 -0.2445  0.2357 -0.0152
28454W        W44071  18.277  18.642   1.518 -0.0756 -0.3464  0.1567
28455W        W44072  13.347  13.009  14.761 -0.1365  0.1187 -0.2076
28456W        W44073  18.521   7.535  13.031 -0.0866  0.1953  0.0151
28457W        W44074  18.254   4.648   4.215 -0.0689  0.2022 -0.0206
28458W        W44075   1.395   7.994   1.036  0.4383  0.0560  0.0496
28459W        W44076   5.245   3.854  12.297  0.1565  0.1121 -0.1273
28460W        W44077  18.316  12.661   3.436 -0.1881  0.1304  0.4854
28461W        W44078  10.782   8.631   2.006  0.0657 -0.1822  0.1651
28462W        W44079  13.247   1.276  13.155 -0.3075  0.1470 -0.1279
28463W        W44080   6.798  16.201   2.057  0.2048  0.2357 -0.0679
28464W        W44081  16.108  14.893  13.424  0.1555  0.0394 -0.2926
28465W        W44082  17.562   7.749  11.823 -0.0256 -0.3869 -0.2506
28466W        W44083   5.528   5.698  11.630 -0.0794 -0.0353  0.1697
28467W        W44084   6.564  14.690  11.310  0.1446  0.0681 -0.0599
28468W        W44085   1.589   8.903  14.686  0.3301 -0.1045  0.2660
28469W        W44086   2.361  14.851   4.760  0.1747 -0.2510  0.1280
28470W        W44087  13.926   7.163  14.277 -0.3043  0.0344  0.3924
28471W        W44088   7.835  12.417  10.726  0.0238  0.0092 -0.2239
28472W        W44089   5.190   5.303  11.275  0.1849  0.0424  0.1649
28473W        W44090   1.477   0.474  15.329  0.0377 -0.1005 -0.0686
28474W        W44091   3.313   7.207   2.449 -0.1513 -0.1143 -0.3319
28475W        W44092  13.874  12.259  10.035 -0.2890 -0.2276 -0.0142
28476W        W44093   2.106  10.180  11.406 -0.1589  0.1776 -0.0467
28477W        W44094   7.501   9.131   4.136 -0.1884 -0.4383 -0.1256
28478W        W44095  13.598  18.638   6.020  0.0655 -0.3033  0.1803
28479W        W44096   1.428  12.405  13.914  0.1714 -0.0027  0.2748
28480W        W44097  10.704   1.789   2.338  0.0407  0.5110 -0.1831
28481W        W44098  16.332   5.333   0.021  0.0758  0.0646 -0.1855
28482W        W44099  14.988   2.544   0.894  0.2482 -0.3423 -0.1002
28483W        W44100  13.905   2.787  14.134  0.2214 -0.0277 -0.3389
28484W        W44101  15.218   1.929  12.993 -0.3275 -0.0964  0.1280
28485W        W44102   1.465   7.759  11.258  0.4728  0.2771 -0.1636
28486W        W44103   8.922   6.512   1.202 -0.1159  0.1160  0.0936
28487W        W44104  15.031   7.297  14.154  0.2499 -0.0642 -0.1943
28488W        W44105   4.174  17.648   1.510 -0.3368 -0.1570 -0.1049
28489W        W44106  16.958   4.948   2.394 -0.0461  0.0533  0.1212
28490W        W44107  12.431   3.507   6.566 -0.3092 -0.0973  0.1737
28491W        W44108   5.737   2.144  13.029  0.0188 -0.1270  0.0199
28492W        W44109   7.816  15.233   5.831 -0.1089  0.2834  0.0713
28493W        W44110   8.593   1.571  12.956  0.1386 -0.0004  0.1456
28494W        W44111   6.498  15.890   2.743 -0.4273  0.4101 -0.1232
28495W        W44112   5.558  10.467  11.404  0.1975  0.0385 -0.0503
28496W        W44113   2.949   9.190   3.633 -0.0878  0.1691 -0.2028
28497W        W44114   3.132   5.687  12.011 -0.0236  0.0203  0.1811
28498W        W44115  18.561   6.605   5.229 -0.2102  0.0232 -0.2344
28499W        W44116  12.577   6.492   1.332 -0.1772 -0.0280 -0.0089
28500W        W44117   2.338  13.998  15.252  0.4848  0.0961  0.0728
28501W        W44118   4.981  10.778   1.880 -0.2257  0.1381 -0.0400
28502W        W44119   0.726   6.743  10.633  0.0283  0.0485 -0.1783
28503W        W44120  10.486  13.728   3.458  0.0456  0.0312 -0.0785
28504W        W44121  11.009  16.020  11.521 -0.0445  0.2460  0.0387
28505W        W44122   8.593   4.540   3.190  0.1594  0.0721 -0.1243
28506W        W44123   8.696  11.189  14.374  0.1641 -0.1216  0.0139
28507W        W44124   2.896   1.950  14.337  0.5195  0.3516  0.0899
28508W        W44125   3.578   4.606  13.314  0.0528  0.0731 -0.2577
28509W        W44126   2.513   6.554  15.109 -0.2038  0.1931  0.0468
28510W        W44127   7.721   8.593   1.878 -0.0584 -0.0207  0.2399
28511W        W44128   2.207  15.833  14.548  0.1450 -0.1119 -0.0359
28512W        W44129  11.277   6.702   5.142  0.2537 -0.1933 -0.1322
28513W        W44130   7.697   9.823  13.587  0.0503  0.1549 -0.0662
28514W        W44131   1.360   6.040   4.033  0.1387  0.1847  0.0040
28515W        W44132  17.647  14.699   0.443 -0.0578 -0.1304  0.2576
28516W        W44133  11.113  11.595  13.978 -0.2983  0.0057  0.2404
28517W        W44134   1.601   9.517  15.105 -0.0069 -0.0065 -0.0824
28518W        W44135  13.598   3.605   4.102  0.1191 -0.1196  0.3774
28519W        W44136  11.501   5.485  11.644  0.0014  0.1090  0.0591
28520W        W44137   3.054  12.353   4.580 -0.0648 -0.0460  0.0845
28521W        W44138   8.343  17.133  13.416 -0.3342  0.1893  0.0646
28522W        W44139  14.896   0.655  15.330 -0.0249  0.0051  0.0056
28523W        W44140   4.350   3.991  11.334 -0.2372  0.1274 -0.0978
28524W        W44141   1.777  11.668   0.985  0.1627 -0.2294 -0.0148
28525W        W44142  16.607   1.567   0.151  0.2434 -0.0178  0.0532
28526W        W44143   9.871   7.403   0.565  0.4038  0.0674  0.3370
28527W        W44144   2.998   9.071  11.010 -0.0731 -0.0380 -0.2007
28528W        W44145   7.643   1.771   3.220  0.1774  0.0071 -0.0334
28529W        W44146   9.789   5.871  11.777  0.1332  0.1432  0.2456
28530W        W44147   4.193  14.361   2.403  0.1039 -0.4181  0.0451
28531W        W44148  10.022   3.983  13.625  0.5067 -0.0175 -0.3385
28532W        W44149   4.872   3.996   0.474 -0.2666  0.1190  0.1411
28533W        W44150  13.012  17.909   5.211 -0.1360  0.3974  0.0081
28534W        W44151  17.346   8.287  14.737 -0.0219  0.1888 -0.4880
28535W        W44152  13.011   9.639   0.141  0.0215 -0.2108  0.0289
28536W        W44153   7.112  11.105   1.251  0.0299  0.2499 -0.1625
28537W        W44154  17.704   2.058   0.592 -0.3391  0.0918  0.1789
28538W        W44155   9.064   2.983  14.686 -0.2215  0.2794 -0.1202
28539W        W44156   6.286  16.087  11.107 -0.0713 -0.0845 -0.2786
28540W        W44157  11.871   2.922  13.518  0.0439 -0.1875  0.2136
28541W        W44158   8.839  13.258   0.976  0.0538 -0.0587  0.1663
28542W        W44159  17.070   2.507   2.614 -0.1961  0.0977 -0.1908
28543W        W44160  12.725  10.802  12.349 -0.0112  0.0006  0.3524
28544W        W44161   8.953   7.893   2.192  0.0199  0.6006 -0.2293
28545W        W44162   3.095   7.370  13.276 -0.1279 -0.1319 -0.2448
28546W        W44163  17.744  11.706   0.562 -0.0806  0.0523  0.1467
28547W        W44164   8.613   7.325  10.313  0.2064 -0.1772  0.1234
28548W        W44165   7.176  12.183  13.847  0.2767  0.2683 -0.3050
28549W        W44166   7.859  10.423  10.342  0.2362  0.3609 -0.1603
28550W        W44167  12.015   1.484   1.644 -0.2028  0.0586 -0.1771
28551W        W44168  10.720  13.268   0.995 -0.0248 -0.0233  0.0885
28552W        W44169   0.641   0.879   3.062 -0.0900 -0.0385  0.2644
28553W        W44170  11.609  13.772  13.553  0.1222  0.1503 -0.0813
28554W        W44171  10.623   1.443   2.868  0.0154  0.0297  0.0178
28555W        W44172  10.289  16.916  12.244  0.2312 -0.0062  0.1370
28556W        W44173   9.000  11.619   4.845  0.2276 -0.1651 -0.2384
28557W        W44174  16.340   8.488   3.830 -0.1181  0.2643 -0.1356
28558W        W44175   1.657   2.530  14.599 -0.2717 -0.1749 -0.3559
28559W        W44176  15.209   1.426  13.612  0.0139  0.2045 -0.1301
28560W        W44177  17.659   7.349   1.438 -0.2531 -0.3249  0.1041
28561W        W44178   5.084   3.502  11.841  0.0906 -0.1312 -0.2853
28562W        W44179  14.897   9.204  10.395  0.2607  0.4234  0.0854
28563W        W44180  14.607   0.330   5.402 -0.0993 -0.3115  0.1082
28564W        W44181  16.620   9.631   4.558  0.0394  0.1348  0.3547
28565W        W44182  11.755   3.404   5.779  0.3354 -0.0826  0.1534
28566W        W44183  11.932  13.578   4.013  0.3200 -0.0372  0.0773
28567W        W44184   7.080  10.658  14.809 -0.0776 -0.3406  0.1377
28568W        W44185   3.467   8.423  12.344 -0.2265  0.1481 -0.0792
28569W        W44186  11.459   0.382   1.626 -0.0708 -0.1428 -0.1433
28570W        W44187   2.840  16.180  12.351  0.0091  0.1267  0.0290
28571W        W44188  14.794   4.872   3.522  0.1725 -0.1304 -0.0015
28572W        W44189   9.051   7.476  14.782 -0.1059 -0.0302  0.2230
28573W        W44190   5.342  17.697   9.586  0.0494  0.1613  0.3253
28574W        W44191   4.490   1.861  14.618 -0.0387  0.1265 -0.2648
28575W        W44192  10.744  11.754   5.211 -0.1082 -0.0938  0.3605
28576W        W44193  16.446   5.640  10.793  0.1134  0.3459  0.0282
28577W        W44194   6.790  15.075  15.078 -0.0494 -0.2879  0.3221
28578W        W44195  16.984   8.628  11.027 -0.2724  0.0281  0.1797
28579W        W44196  10.032   0.402   1.811  0.0836  0.2451 -0.2700
28580W        W44197  16.012  10.735  14.998 -0.0462 -0.1750 -0.0465
28581W        W44198   9.980   5.061   5.409  0.3583  0.0923  0.3337
28582W        W44199  16.906  17.576   2.625  0.0286 -0.3209  0.0803
28583W        W44200  13.009   3.534  13.251  0.1531  0.2272 -0.3498
28584W        W44201  13.894  16.306  10.891 -0.1236 -0.0229  0.1350
28585W        W44202   5.565  14.507   1.582 -0.1672  0.1779  0.1977
28586W        W44203   8.289   4.036   1.157 -0.0560  0.0807 -0.1222
28587W        W44204  10.671   9.319   2.886 -0.1136  0.2304  0.0862
28588W        W44205  17.902   6.358  11.477 -0.0292  0.0177  0.0904
28589W        W44206  14.877  14.788   2.967 -0.1064  0.0406  0.1013
28590W        W44207  17.268   5.004  13.858 -0.2510 -0.2603 -0.2469
28591W        W44208  17.568  12.818  15.538  0.2376 -0.1190  0.1703
28592W        W44209   4.699  12.504   0.024  0.0393  0.2335  0.1035
28593W        W44210  13.854  12.428  15.312  0.1210  0.2479 -0.5202
28594W        W44211   7.839  15.615   1.310  0.0812 -0.2360  0.1410
28595W        W44212   3.237  14.946  13.209 -0.0059 -0.0164 -0.2052
28596W        W44213  16.003  18.350  14.490 -0.1472  0.0010  0.0632
28597W        W44214   8.770   0.866  15.019 -0.3172  0.0241 -0.3266
28598W        W44215   9.025   4.478  12.026 -0.3770 -0.3324  0.0075
28599W        W44216  14.623   4.804  14.358 -0.1000  0.1913  0.3888
28600W        W44217   4.473  16.533   2.716  0.0629 -0.0164 -0.1339
28601W        W44218   9.972   1.726   4.499  0.2213  0.0070  0.0684
28602W        W44219  11.835  13.661   2.196 -0.1541 -0.3278 -0.0479
28603W        W44220  17.173  15.809   2.676 -0.0286 -0.2715 -0.1245
28604W        W44221  14.426   4.358   5.101  0.2516  0.1597  0.0419
28605W        W44222   9.190   1.151  15.793 -0.3097 -0.3231 -0.2119
28606W        W44223  11.868   0.423  14.688 -0.1728  0.4760  0.1463
28607W        W44224   3.038   9.188  13.452 -0.2412 -0.0347  0.1411
28608W        W44225  14.380  18.343   2.398  0.1721 -0.0652 -0.2246
28609W        W44226  18.488  14.134  12.544  0.1717  0.0121 -0.1915
28610W        W44227  15.184   6.502   3.780 -0.0530  0.1162  0.1143
28611W        W44228   9.980  12.890   3.376  0.0954  0.3591  0.3452
28612W        W44229   4.686   9.612  14.277  0.1110 -0.1478  0.0343
28613W        W44230   0.218  12.140  14.556 -0.0831  0.0638 -0.1537
28614W        W44231   3.605  15.349  15.014  0.0092  0.5247 -0.1585
28615W        W44232   0.650   7.703  11.989  0.1835  0.2519  0.0951
28616W        W44233   9.660   2.471   1.793 -0.2062 -0.0132 -0.2458
28617W        W44234   6.763  16.849  15.390  0.0635 -0.1648 -0.0424
28618W        W44235  15.786  13.167   0.219  0.0030  0.1454 -0.1356
28619W        W44236   4.514   2.768  12.834 -0.0831 -0.2174  0.1234
28620W        W44237  16.012  12.690  12.504 -0.1255  0.3599  0.4727
28621W        W44238  10.628  17.378   2.389  0.0728 -0.1380  0.0007
28622W        W44239  18.409  12.405  15.692 -0.0180  0.0801 -0.0975
28623W        W44240   4.499   5.602  14.051 -0.4542  0.2253 -0.0226
28624W        W44241   9.367  12.799  10.632  0.0484 -0.0836 -0.2992
28625W        W44242   4.966   6.334   3.408  0.1247 -0.2097  0.0611
28626W        W44243  17.507   5.130   2.187  0.0977  0.0552 -0.0474
28627W        W44244   0.618  13.136  13.051 -0.0675 -0.0128  0.1150
28628W        W44245   4.174  14.947  10.758 -0.0161  0.0799  0.3061
28629W        W44246   6.275  14.897   9.740  0.0562  0.3481 -0.1171
28630W        W44247  18.223  11.319   5.130 -0.0738  0.0676 -0.1358
28631W        W44248   3.211   3.614  14.652  0.1095  0.2433 -0.0485
28632W        W44249  11.468  12.224   4.644 -0.1611 -0.2193  0.0409
28633W        W44250   9.134  14.252   3.128  0.2316  0.3851  0.0894
28634W        W44251  11.762   8.744   2.319  0.0878 -0.2515 -0.0806
28635W        W44252   4.820  16.149   4.971 -0.2166  0.0735 -0.2038
28636W        W44253   8.428  10.762  11.387 -0.1031 -0.0641  0.0604
28637W        W44254   1.281   0.889   4.499  0.2791 -0.1995  0.2624
28638W        W44255  15.458   3.455   5.183  0.1826 -0.0492 -0.0051
28639W        W44256  10.437   2.201   0.228  0.1061 -0.3415 -0.2869
28640W        W44257  15.112  11.058   1.766 -0.0528  0.0284 -0.1979
28641W        W44258   3.751   5.184  11.779  0.1136  0.2514  0.3030
28642W        W44259   0.122   1.472   0.038 -0.1507 -0.0230  0.1349
28643W        W44260  15.452   0.556  13.068  0.0152  0.0377  0.1127
28644W        W44261   5.506  18.016   1.664 -0.0239 -0.0554  0.0396
28645W        W44262  11.858  10.378  15.725  0.1795 -0.2599  0.1551
28646W        W44263  13.215  17.042   3.511 -0.1497 -0.0211 -0.1119
28647W        W44264   4.445   3.017   1.673 -0.3801 -0.1600 -0.1176
28648W        W44265  16.495  12.714  15.702 -0.1090 -0.0352 -0.2286
28649W        W44266   3.908   9.272   1.746  0.2154  0.0183  0.0734
28650W        W44267   6.740   2.415   1.752 -0.2231  0.1942  0.1049
28651W        W44268   2.602  14.267   3.712 -0.2050 -0.4061  0.0534
28652W        W44269   1.608  18.246   1.703  0.2301  0.0848 -0.2820
28653W        W44270   5.236  13.606  10.349  0.2084 -0.0811 -0.0485
28654W        W44271  12.120   7.077  11.219  0.3252 -0.5868  0.2530
28655W        W44272   5.599   6.547  12.471 -0.0119  0.2658  0.0608
28656W        W44273   2.098   2.152   3.977  0.0754 -0.0477 -0.0757
28657W        W44274  13.603   6.824   1.644 -0.1322 -0.1234 -0.2407
28658W        W44275   8.632   5.228  14.400  0.2031 -0.1205 -0.2198
28659W        W44276  17.903   6.227   3.540 -0.0923 -0.0721 -0.0310
28660W        W44277   8.896  11.659   0.256  0.1899 -0.3683  0.3593
28661W        W44278   6.255  11.986  10.246 -0.0714  0.0804  0.0952
28662W        W44279   0.692   5.690   5.092  0.4026  0.1230  0.3437
28663W        W44280   2.238   2.159   4.857 -0.0223  0.1608  0.0518
28664W        W44281   2.762   0.029   3.216  0.3501  0.1551 -0.2790
28665W        W44282   7.294  10.907  12.051 -0.0667 -0.1583 -0.1584
28666W        W44283   5.353   5.751  15.047 -0.0688  0.1290 -0.2293
28667W        W44284  16.329   4.822   5.158 -0.0118 -0.1575  0.2594
28668W        W44285   7.022  17.927   1.157 -0.0865  0.1039  0.1236
28669W        W44286  17.977   5.746   1.131  0.1528 -0.1124 -0.1783
28670W        W44287   5.251   7.237   2.262  0.0242  0.0499  0.2452
28671W        W44288  11.173  12.401  13.551  0.1767  0.0710 -0.0045
28672W        W44289   4.384  14.842   5.097  0.0869 -0.1105  0.2643
28673W        W44290  14.762   1.937   4.212 -0.0288  0.0528  0.0355
28674W        W44291  13.535   4.980   4.281  0.2964  0.3115  0.3355
28675W        W44292   5.276   0.771  12.763  0.2321 -0.2751  0.1696
28676W        W44293  10.131  13.762   4.367  0.4875  0.1182  0.0599
28677W        W44294  16.980   4.319   3.245  0.2005 -0.0778  0.6043
28678W        W44295  17.620  13.998  11.976 -0.2732  0.1761  0.0600
28679W        W44296  10.007  12.074   4.051 -0.1231 -0.2129  0.0130
28680W        W44297  10.373  15.010   5.880 -0.0246  0.2556  0.2565
28681W        W44298  17.566   2.398   3.828  0.0817 -0.0124  0.3502
28682W        W44299   4.966   7.473  12.388 -0.1322 -0.1483 -0.0229
28683W        W44300  15.097  17.985   2.999 -0.0662 -0.0794 -0.0998
28684W        W44301   9.006   8.642   3.479 -0.0183 -0.0749  0.2539
28685W        W44302  14.593  11.992   0.195 -0.0519  0.0635 -0.0544
28686W        W44303  11.825   7.047   1.595 -0.1246 -0.1185  0.1034
28687W        W44304   7.274  17.661  10.943  0.3594  0.0304 -0.2258
28688W        W44305   8.681   6.682   4.968  0.2396  0.0623 -0.0744
28689W        W44306  14.594  11.006   5.340 -0.1941 -0.0115  0.2029
28690W        W44307   7.699   5.393   2.424  0.0286  0.2316  0.0425
28691W        W44308   9.858  10.786  15.603  0.4220 -0.1609  0.0970
28692W        W44309  15.850   4.242  10.737 -0.2859 -0.2517 -0.2929
28693W        W44310  13.471   0.037   5.469 -0.0200 -0.2987 -0.0086
28694W        W44311   3.476  11.061  13.744  0.0056 -0.2595  0.3388
28695W        W44312   0.280  13.509   1.800 -0.3307  0.0270  0.2954
28696W        W44313  15.997  17.308  12.775 -0.0370 -0.0171 -0.1392
28697W        W44314   8.961  10.297  14.100  0.2013 -0.2003  0.0148
28698W        W44315  15.450   6.782   5.084 -0.0550  0.0054 -0.0160
28699W        W44316  12.619   8.988  14.245 -0.0101  0.0953  0.1802
28700W        W44317   1.221  18.250   4.232  0.0608  0.2749 -0.0352
28701W        W44318   1.129  16.084   0.695  0.2163 -0.0482  0.0882
28702W        W44319  15.434  13.643   3.393 -0.0698  0.1607  0.0711
28703W        W44320  10.596  13.300  10.673  0.4656  0.0862 -0.0382
28704W        W44321   3.895  15.476  15.522  0.1151  0.0267  0.0395
28705W        W44322  11.804   0.187  14.247  0.0219 -0.1396 -0.0190
28706W        W44323  13.918   3.671  13.782 -0.2565  0.1194  0.1897
28707W        W44324   5.330  13.818  12.321 -0.0990  0.0048 -0.0061
28708W        W44325  11.374  14.278   4.462  0.0934  0.2451  0.0263
28709W        W44326   7.478   2.564   2.161  0.3229 -0.1180  0.0230
28710W        W44327   1.971  12.846  12.462 -0.1534  0.4898 -0.1805
28711W        W44328  14.664  15.322  15.212  0.1421  0.1425  0.0863
28712W        W44329   6.468   0.460  11.332  0.0585 -0.0762  0.0916
28713W        W44330   6.078   0.321   3.381 -0.2149 -0.3810 -0.2917
28714W        W44331   9.890  11.943   1.453 -0.1243 -0.0337 -0.1611
28715W        W44332  11.761   5.394   3.123 -0.2796 -0.0351  0.0130
28716W        W44333  11.481  16.929   0.310 -0.0078  0.1442  0.0566
28717W        W44334   7.797  13.761   1.790  0.1706 -0.1272  0.4849
28718W        W44335  14.293  11.260  11.653  0.0867 -0.1434 -0.1035
28719W        W44336   3.613  15.960  13.382 -0.0319  0.0017  0.3444
28720W        W44337  11.629   2.099   4.899 -0.1496 -0.0351  0.1981
28721W        W44338   4.186   7.872   0.494  0.1055 -0.0591 -0.1598
28722W        W44339  15.767   0.141  12.900 -0.0923 -0.3322 -0.2459
28723W        W44340   0.913   6.030   5.417  0.1423 -0.0886  0.2806
28724W        W44341  11.034  12.277  10.948  0.0013 -0.4129 -0.1566
28725W        W44342   6.254   7.407  11.615 -0.2061  0.0539 -0.1158
28726W        W44343   5.826   5.489  15.005  0.0037  0.1259  0.0983
28727W        W44344  15.711  16.106   4.631  0.0658  0.0966  0.1518
28728W        W44345   8.575   5.806  12.025 -0.3868  0.0141  0.2881
28729W        W44346  14.435   1.441   5.099  0.2020 -0.3208 -0.1335
28730W        W44347   9.918  14.420  15.145 -0.2813 -0.2413 -0.1635
28731W        W44348  12.044  10.120   1.202  0.3501 -0.1963 -0.2940
28732W        W44349   2.995   0.122  13.012 -0.3894  0.1419  0.1571
28733W        W44350  11.374   8.023   4.829 -0.1347 -0.1124 -0.0442
28734W        W44351   1.639   4.993   6.429  0.1185  0.1042 -0.3026
28735W        W44352  14.457   1.049   4.584 -0.1186 -0.0779 -0.2127
28736W        W44353   3.048   7.433   2.008  0.1496 -0.2884  0.2639
28737W        W44354   8.773   0.420   2.103 -0.2121 -0.0849 -0.3530
28738W        W44355   3.689   6.259   3.491  0.1007  0.1310 -0.2527
28739W        W44356  16.923   0.730   3.845  0.1035 -0.1347 -0.0046
28740W        W44357   4.012   1.130   4.259 -0.1683  0.0800 -0.0919
28741W        W44358   2.243   8.674  15.497  0.1836 -0.1188  0.1545
28742W        W44359  11.101  13.177   2.899  0.4863  0.1098 -0.1229
28743W        W44360   3.959   8.271  15.180  0.0730  0.3192  0.0121
28744W        W44361  16.618  13.846  14.468  0.0223 -0.0564 -0.1588
28745W        W44362  15.085   1.776   4.591  0.1425 -0.3828  0.1863
28746W        W44363  12.123   4.302  14.376 -0.1829  0.2139  0.1680
28747W        W44364  14.606   6.690  15.161 -0.1766  0.1043 -0.0064
28748W        W44365   4.114   1.032   3.616  0.4111  0.2705 -0.2061
28749W        W44366  14.202   7.734  13.144 -0.1864 -0.1742 -0.0725
28750W        W44367   2.214  14.653  11.753 -0.3302 -0.0319  0.2085
28751W        W44368  12.138   3.319  13.347 -0.1908  0.0315  0.1025
28752W        W44369  11.899  15.939  11.927  0.0679 -0.3419 -0.2036
28753W        W44370  12.180   2.457   3.655  0.2206  0.1161 -0.0023
28754W        W44371  11.911   6.702  10.928  0.2512 -0.2455 -0.0225
28755W        W44372   8.720  15.579  11.825  0.1246 -0.2005  0.2549
28756W        W44373   8.867  15.841  12.961  0.2307 -0.0234  0.0483
28757W        W44374  10.526   3.601   0.149 -0.1150 -0.2067 -0.0697
28758W        W44375  14.392   1.096  12.786 -0.0959 -0.3436  0.0094
28759W        W44376  14.727   2.925  14.487  0.1029 -0.2107  0.1810
28760W        W44377   2.293   7.472   2.749  0.2096 -0.0699 -0.0116
28761W        W44378  17.911   1.191   1.984  0.0864  0.1426  0.0266
28762W        W44379   6.382  12.823  14.798  0.0662  0.3759 -0.3168
28763W        W44380  13.802   2.964   0.899  0.0471  0.0755 -0.0762
28764W        W44381  15.057  12.861   4.323  0.3682 -0.0854 -0.1218
28765W        W44382   9.085   1.651  15.692 -0.0334 -0.0444 -0.1183
28766W        W44383   3.850   1.496  12.959 -0.0184  0.0887 -0.0694
28767W        W44384   3.619  10.428  15.712  0.1158 -0.0077  0.0693
28768W        W44385  11.772   2.560   3.282 -0.2518 -0.1143  0.0501
28769W        W44386   5.425   2.204  12.637  0.0914  0.2666 -0.3539
28770W        W44387  17.111  10.795   0.103 -0.1530 -0.2866  0.2750
28771W        W44388   6.625   9.949  13.540  0.1218  0.1061 -0.1220
28772W        W44389  16.205  14.159   1.154 -0.0276 -0.0305 -0.1466
28773W        W44390   0.990   5.184   5.755 -0.2490 -0.1000 -0.0909
28774W        W44391   1.560  18.494  13.212 -0.0104 -0.0523 -0.2735
28775W        W44392   2.544   9.640  13.161 -0.0134  0.0686  0.0863
28776W        W44393   3.917   5.852   4.311 -0.2421 -0.0176 -0.2986
28777W        W44394  11.588  10.142  11.633 -0.2688  0.2695 -0.3604
28778W        W44395  10.676   9.689  13.825  0.1056 -0.1087  0.0341
28779W        W44396   5.119  14.745  15.327 -0.0132  0.2102 -0.2214
28780W        W44397   2.506   1.881   6.032 -0.0144  0.1736 -0.1988
28781W        W44398  16.172   7.067   3.502 -0.5120  0.0667  0.0201
28782W        W44399   6.247  15.342   0.050 -0.1039  0.0369 -0.0277
28783W        W44400  16.516   6.586  14.037 -0.2616  0.3508  0.0581
28784W        W44401   1.615   3.896   5.773  0.0488  0.0139  0.1407
28785W        W44402  10.956  12.808  13.284  0.1474  0.2262 -0.2521
28786W        W44403  16.633  16.927  11.892 -0.0280 -0.1726  0.1175
28787W        W44404   5.450  16.686  15.691 -0.0454  0.3019  0.1394
28788W        W44405   8.715  10.048  11.440 -0.2465  0.1708  0.0610
28789W        W44406  10.819  11.870   3.419  0.1449  0.0430 -0.2297
28790W        W44407   7.371   7.600   4.334  0.1021  0.1060  0.1619
28791W        W44408   3.936   1.508   2.882  0.1328 -0.4242 -0.2543
28792W        W44409   2.101   8.154   0.966 -0.0650  0.1924 -0.0516
28793W        W44410  12.346   1.255  13.081 -0.2554 -0.2311 -0.1089
28794W        W44411  10.037  16.612   1.292  0.0431  0.1632  0.1363
28795W        W44412   7.290   4.509  12.009 -0.0849  0.0718  0.1441
28796W        W44413  12.949   4.970   0.433 -0.1152 -0.2773 -0.1096
28797W        W44414  11.777  15.680  12.382  0.0020  0.1701  0.2618
28798W        W44415   9.413   1.538  13.162  0.1983 -0.0112 -0.0301
28799W        W44416  17.627  14.620   2.942  0.3078 -0.2915  0.2267
28800W        W44417   3.299   5.645   6.025  0.1032 -0.3881  0.0147
28801W        W44418  18.579   6.291   1.327  0.0151 -0.3428 -0.0853
28802W        W44419   7.151   6.534   2.720  0.1965  0.1432  0.2248
28803W        W44420  10.633  15.082  15.374  0.2449 -0.1092  0.0209
28804W        W44421  11.232   8.538  11.934  0.2163  0.1552 -0.0557
28805W        W44422   4.196   9.540  15.371 -0.0312  0.2563 -0.1750
28806W        W44423  16.975   3.705  15.268 -0.0113  0.1153  0.2460
28807W        W44424   6.708   2.924   4.547  0.0122 -0.0393  0.0077
28808W        W44425   2.100  14.934   1.125  0.0693  0.0393 -0.3652
28809W        W44426  15.420   9.725   3.779  0.2275  0.1372 -0.0870
28810W        W44427   6.448   6.493   2.279  0.3586 -0.3147  0.2010
28811W        W44428   4.760   2.634  11.852 -0.0358 -0.1368 -0.1415
28812W        W44429   7.255  12.326   0.463 -0.1488  0.0360  0.1791
28813W        W44430  11.432  17.378  12.189  0.0799 -0.2227  0.0605
28814W        W44431  16.639   4.791   3.312 -0.3141 -0.1449 -0.2885
28815W        W44432   6.439  18.302  10.840  0.0043 -0.3118 -0.2016
28816W        W44433   4.370  18.652   2.878  0.1062 -0.0266  0.1629
28817W        W44434   7.618   9.274   2.220 -0.1096 -0.2527 -0.1518
28818W        W44435   2.297  17.776  13.150  0.3949  0.0102 -0.3382
28819W        W44436  13.424   7.910   4.560 -0.1753 -0.3272  0.0209
28820W        W44437  13.026   7.171   2.744  0.2867  0.0714  0.1298
28821W        W44438  16.787  14.205  11.471  0.1614  0.2869 -0.3695
28822W        W44439  16.234   1.561   4.354 -0.3058 -0.1365 -0.2420
28823W        W44440  18.485   8.404   0.603 -0.1760  0.4831  0.2431
28824W        W44441   4.007   2.868   1.566  0.0248  0.1871  0.2699
28825W        W44442   9.701  10.525  10.835 -0.2018  0.3599  0.5375
28826W        W44443   7.187   0.094   3.900  0.0081  0.3169 -0.3595
28827W        W44444  15.433   8.250  15.140  0.4838  0.1801  0.0452
28828W        W44445  14.157  14.575  12.509 -0.1837  0.1587 -0.2181
28829W        W44446  18.402   2.339   4.479  0.0981  0.0887 -0.1953
28830W        W44447   0.873   6.256  11.683  0.1190 -0.1199  0.3172
28831W        W44448  13.328  12.515   2.759  0.0451 -0.0843  0.0912
28832W        W44449  12.005   5.654  11.601  0.0755 -0.1724  0.0382
28833W        W44450   2.023   3.630   4.483  0.1073 -0.2053  0.0110
28834W        W44451   3.964  16.162   1.279  0.0143 -0.0203 -0.2313
28835W        W44452  14.786  17.009   2.077 -0.0553  0.1810  0.1641
28836W        W44453  14.596  13.567   1.025  0.2051 -0.2516  0.5361
28837W        W44454   6.694   1.278   6.021 -0.2287 -0.0225 -0.1631
28838W        W44455  11.983   7.386  11.593  0.1201 -0.0438  0.0791
28839W        W44456  16.629   5.917   4.067  0.2821 -0.1714 -0.1606
28840W        W44457   1.642  10.112   0.675 -0.2700  0.0615 -0.3199
28841W        W44458  11.214   6.077   6.803 -0.0549  0.3053 -0.1171
28842W        W44459  10.257   7.206   4.533  0.0852 -0.2574 -0.1331
28843W        W44460  17.250   3.617  12.546  0.2917 -0.0982  0.0723
28844W        W44461   0.468  11.516   4.591  0.2826  0.0194  0.0804
28845W        W44462  13.164  18.649   2.337  0.3279  0.3604  0.0652
28846W        W44463  14.771  11.353  15.756  0.1300  0.0337  0.4299
28847W        W44464  15.379  10.080  10.295 -0.2398 -0.0809 -0.3974
28848W        W44465   9.082  13.820   4.412  0.2406  0.2504  0.1103
28849W        W44466   4.192   7.259  15.001  0.2537 -0.1256 -0.2152
28850W        W44467   4.059  11.422  15.275  0.0362 -0.1041 -0.2966
28851W        W44468   8.681   6.318   5.290  0.2751  0.1385  0.1028
28852W        W44469  18.275  11.563  14.245 -0.2275 -0.0575  0.0559
28853W        W44470   8.388   4.929  13.991  0.0015  0.2607  0.0186
28854W        W44471   4.187   0.765   6.072  0.1595  0.0004  0.3322
28855W        W44472   2.913   7.212   0.927 -0.1012  0.0014  0.0167
28856W        W44473   3.939  17.911   2.600 -0.1226  0.2416  0.2575
28857W        W44474  13.913  13.255  15.502 -0.2631 -0.0805  0.0415
28858W        W44475   6.184  13.431  15.077  0.2610  0.0336  0.0923
28859W        W44476   8.084   7.418  14.493 -0.0174  0.2064  0.0939
28860W        W44477  16.345  15.913   0.808 -0.1507  0.0637  0.2032
28861W        W44478   9.784   3.378   5.453  0.0519 -0.2126  0.1469
28862W        W44479  14.159   9.088   5.238 -0.0988 -0.0875  0.0382
28863W        W44480  15.672  15.617  10.660 -0.0060 -0.1593  0.2831
28864W        W44481   1.268   6.618   2.233  0.0748  0.1123 -0.0515
28865W        W44482   3.309  18.200   1.847 -0.1021 -0.1376  0.4531
28866W        W44483   4.431   1.269  10.688  0.3225  0.0473 -0.0309
28867W        W44484   1.631   9.755  15.563 -0.2093  0.1698  0.2935
28868W        W44485  15.071  16.117   1.058 -0.1365  0.3459 -0.3526
28869W        W44486   9.216  17.131  13.850  0.2068  0.2016  0.1769
28870W        W44487   5.333   4.882  14.535  0.0990  0.2607  0.0480
28871W        W44488  16.546  10.089  13.411  0.1766  0.0029 -0.0110
28872W        W44489   3.096  13.175  15.524 -0.2009  0.0345  0.0090
28873W        W44490  12.712  14.777   2.338  0.0171  0.0796  0.4214
28874W        W44491   6.358   0.189   1.700 -0.0110 -0.1511 -0.1014
28875W        W44492  10.341   1.892   2.690  0.3325 -0.2876  0.1923
28876W        W44493  17.590   0.046  14.580  0.2430 -0.0334 -0.1034
28877W        W44494   2.046  10.379   1.018  0.1330 -0.2280 -0.2268
28878W        W44495   2.865   0.949   5.051  0.3221 -0.0866 -0.0197
28879W        W44496  15.442   6.278  14.436 -0.1628  0.0127 -0.0879
28880W        W44497  11.058  15.199  10.849 -0.1720  0.1141  0.1141
28881W        W44498  15.282   3.173  11.970  0.1612  0.0562 -0.1273
28882W        W44499  15.940   1.837  12.776 -0.2092  0.0700 -0.0966
28883W        W44500   6.535   6.164   1.412 -0.0173  0.0242 -0.0466
28884W        W44501  13.679   3.107  13.770  0.2880 -0.0515 -0.4583
28885W        W44502   1.835   7.307   0.762 -0.0392  0.2162 -0.2695
28886W        W44503   2.276   5.740  15.704 -0.0604  0.0444 -0.1019
28887W        W44504  16.395  16.723  11.516  0.0173  0.1045 -0.1553
28888W        W44505   9.756  10.850   3.901  0.1245 -0.1202  0.2484
28889W        W44506  16.533   7.762   0.787  0.2414 -0.1330  0.0829
28890W        W44507  16.706   7.544  13.022  0.2471  0.1749  0.0151
28891W        W44508  15.100  13.912  15.778  0.1685  0.0839 -0.1973
28892W        W44509   5.933   9.076   4.803 -0.1372  0.1106 -0.1759
28893W        W44510   6.081   1.857  13.777  0.0877  0.1044 -0.1907
28894W        W44511   1.820   5.530  10.373 -0.0597 -0.0344  0.2908
28895W        W44512   9.850   6.013  15.692 -0.0030 -0.0971 -0.0589
28896W        W44513  16.933  12.702  11.542 -0.1351  0.0518  0.1680
28897W        W44514  18.133  10.805   5.215  0.0309 -0.1388  0.1851
28898W        W44515  12.456   7.902  14.682 -0.0323  0.2613 -0.0573
28899W        W44516  17.781   6.052   2.203 -0.0790  0.0905  0.0345
28900W        W44517   8.810  17.984   4.855 -0.0761 -0.1100  0.0009
28901W        W44518  13.445   7.420  15.441 -0.4706 -0.0348  0.2582
28902W        W44519   6.370  13.132  12.605  0.0455  0.2517  0.2358
28903W        W44520  18.642  16.811  14.101  0.1008 -0.2061  0.0644
28904W        W44521  12.813  10.354  12.589 -0.0478  0.0183 -0.2079
28905W        W44522  13.202  12.609   5.090 -0.0139  0.1883  0.3385
28906W        W44523   6.003  17.178   1.797 -0.0836  0.0732 -0.1216
28907W        W44524   0.009   3.841   0.443  0.3869  0.1318 -0.1973
28908W        W44525  17.733  11.141   1.982  0.0397 -0.1337  0.0380
28909W        W44526   2.664  11.138  14.901  0.2144  0.2318 -0.2612
28910W        W44527  10.723   6.407   3.849 -0.1611  0.1372 -0.2922
28911W        W44528  11.322   3.783  12.452  0.0473 -0.0377  0.0035
28912W        W44529  16.685   1.761   3.277 -0.0039 -0.1127 -0.2403
28913W        W44530  18.634  16.196  11.731  0.1744 -0.2541  0.0461
28914W        W44531  16.261   6.543  11.090 -0.3044  0.2106  0.0265
28915W        W44532   7.076   1.449   0.167  0.1061  0.0891  0.0552
28916W        W44533  14.118   2.914   5.157 -0.1912  0.0767  0.2549
28917W        W44534   0.950   3.016   1.138 -0.0308 -0.3254 -0.1058
28918W        W44535   0.363   9.375  13.039 -0.3298 -0.1319 -0.4429
28919W        W44536  15.860  17.220  13.271 -0.0432 -0.3011  0.2134
28920W        W44537   3.625  10.684   4.699 -0.0984 -0.1238  0.0619
28921W        W44538   6.188  16.782  11.903 -0.1048 -0.1983  0.1321
28922W        W44539  17.181   9.805  11.281 -0.1502 -0.4655  0.0138
28923W        W44540   4.373   9.720   2.693  0.0310 -0.3175 -0.2870
28924W        W44541   2.480  16.647   4.512 -0.1414 -0.0386  0.0670
28925W        W44542   7.457   0.208  15.696 -0.0389  0.2386 -0.0733
28926W        W44543  17.222   8.596   3.424 -0.2745  0.0803  0.2167
28927W        W44544  10.384   0.309  13.570  0.0711  0.0383 -0.0056
28928W        W44545   0.342  14.928   3.784  0.2034 -0.0480 -0.3236
28929W        W44546   0.174  18.090  13.694  0.2849 -0.1125  0.1257
28930W        W44547  15.263   0.644   2.992 -0.1292  0.2018  0.0131
28931W        W44548  13.421   8.761   2.351 -0.1010 -0.1049  0.1807
28932W        W44549  16.121   5.660  14.055 -0.0213 -0.1955 -0.0316
28933W        W44550  13.732  11.533   3.434 -0.0841 -0.0216  0.1375
28934W        W44551   7.633   7.469  13.112 -0.2410  0.0686  0.1095
28935W        W44552  11.372  13.930  11.995  0.1010  0.1532 -0.2677
28936W        W44553   8.127  18.557   1.673 -0.1083  0.0377  0.1680
28937W        W44554  10.246   1.797   3.159 -0.2830  0.0267 -0.2319
28938W        W44555  12.042   5.274   4.457  0.0584 -0.3068  0.1808
28939W        W44556  11.609   3.930   2.615  0.0282  0.0712 -0.0896
28940W        W44557  13.015  17.118  11.499 -0.2654 -0.1141  0.1349
28941W        W44558  12.789   0.862   2.124  0.0636  0.1735 -0.0841
28942W        W44559   6.025   4.296   0.008  0.1950 -0.0952  0.2092
28943W        W44560  14.154  16.765  12.711  0.2990  0.0700  0.0554
28944W        W44561   2.776   1.279   4.644 -0.3128 -0.2445 -0.2686
28945W        W44562   2.448  18.329   1.578 -0.3073 -0.2076 -0.0450
28946W        W44563  17.685  16.026  11.730 -0.0368 -0.1579 -0.3954
28947W        W44564  18.254  17.013   0.055  0.2542  0.1170  0.1709
28948W        W44565  10.259  15.998  15.645  0.1631 -0.1238  0.1524
28949W        W44566   0.542  18.458  14.606  0.2198  0.3126  0.0917
28950W        W44567   8.893   2.695   3.552 -0.3449  0.0373 -0.2029
28951W        W44568   7.059   4.272   0.978  0.4039  0.1722 -0.1568
28952W        W44569  13.550   9.219  11.521  0.0265  0.1996  0.1984
28953W        W44570   5.117   3.202   2.860 -0.2597 -0.0714  0.3310
28954W        W44571  15.368   0.868  15.407  0.0393  0.1095 -0.1375
28955W        W44572  14.904  13.561   3.032  0.1397 -0.0520 -0.1349
28956W        W44573   9.576   7.158   3.892 -0.1549  0.0396 -0.3205
28957W        W44574  17.730   5.165  14.718 -0.1596  0.1426 -0.0492
28958W        W44575   1.533  10.843   3.588  0.0867  0.1114  0.0705
28959W        W44576  17.887   6.354  13.175  0.0177  0.2354 -0.1168
28960W        W44577  17.556   3.914   0.086  0.2677 -0.0727  0.3324
28961W        W44578   0.991   3.421  12.842  0.1518  0.1032  0.3164
28962W        W44579  12.477   7.077  12.718 -0.0455 -0.0405 -0.2611
28963W        W44580   9.370  14.264   5.518  0.0294  0.1081  0.4699
28964W        W44581   6.032  10.372   0.896  0.2107 -0.2903 -0.1324
28965W        W44582  14.443   9.654  14.629 -0.2700 -0.0402  0.0204
28966W        W44583   8.032  11.310   4.670 -0.3498 -0.1123  0.0501
28967W        W44584   7.896  13.000   5.131 -0.2082 -0.5284 -0.2368
28968W        W44585  15.322  12.907   0.680 -0.1111  0.2738 -0.1945
28969W        W44586  13.755   9.349  14.311  0.0471 -0.3776 -0.0915
28970W        W44587  14.304   5.568  13.786 -0.1229  0.0981 -0.0153
28971W        W44588   5.152  10.046  11.488  0.1738  0.1441  0.1717
28972W        W44589  18.058  17.135  13.087 -0.2617  0.0055 -0.1370
28973W        W44590   9.009   8.313  11.864  0.1353 -0.0718 -0.1879
28974W        W44591   6.367  18.373   4.726 -0.1733  0.2830 -0.0660
28975W        W44592  14.164  13.983  10.817  0.2144 -0.0022  0.0630
28976W        W44593  15.198   1.842  14.345 -0.1810  0.0336 -0.0529
28977W        W44594   6.346   5.284  10.133 -0.2292 -0.1982 -0.0486
28978W        W44595   7.366  10.732   3.812 -0.4309 -0.1665 -0.0623
28979W        W44596   8.060   4.743  11.177 -0.1611 -0.2893  0.1948
28980W        W44597   8.197  13.149  10.848 -0.4233 -0.7019  0.1937
28981W        W44598  13.591   7.609   4.186  0.0848 -0.2419 -0.1130
28982W        W44599   3.993   0.402  12.157 -0.0153  0.1335  0.1881
28983W        W44600  16.530   8.503  11.339 -0.6381  0.0553 -0.1096
28984W        W44601   0.609  13.696  15.477  0.0360 -0.0114 -0.0204
28985W        W44602   7.678   4.573  12.824  0.2741  0.1648  0.1244
28986W        W44603   9.405   8.648   1.017  0.0014  0.0248  0.0989
28987W        W44604  10.265  13.916  15.123  0.1406 -0.0959 -0.1534
28988W        W44605   3.666   3.031   2.320 -0.0218 -0.0464  0.1436
28989W        W44606   2.586   7.654   1.074  0.2607  0.1188  0.0408
28990W        W44607  17.589   0.430   1.078  0.0214  0.1053 -0.1213
28991W        W44608  13.401   5.317  12.386 -0.0520  0.0220 -0.0183
28992W        W44609  14.576   9.538   4.764  0.2260  0.1245  0.3049
28993W        W44610  11.113   1.287   3.672 -0.1014  0.0683 -0.1978
28994W        W44611  11.706   5.404   4.941 -0.1435  0.2868 -0.3054
28995W        W44612   8.389   0.578   0.868 -0.2554  0.1080  0.3102
28996W        W44613   3.770   2.452  14.528  0.3750  0.0315 -0.0662
28997W        W44614  11.556   1.561  12.411  0.0343  0.1702  0.0644
28998W        W44615   5.589   5.243   5.933 -0.3649  0.0307 -0.0331
28999W        W44616   3.411   3.263  10.888  0.0191  0.1088 -0.2127
29000W        W44617   2.509  15.882  12.078  0.1584  0.0840 -0.2249
29001W        W44618   5.115   2.328   0.388 -0.1062  0.1120  0.1831
29002W        W44619  18.013  13.506  14.883 -0.0666  0.0136 -0.3884
29003W        W44620   8.921   4.334  12.747  0.3606 -0.0933 -0.4039
29004W        W44621  12.797  15.147   0.479  0.1477 -0.0523  0.0191
29005W        W44622   1.125   6.273  12.423  0.3469 -0.1034  0.0017
29006W        W44623  10.830  13.629   0.610 -0.3045  0.0722  0.1496
29007W        W44624   0.474  12.034   0.567  0.0469  0.1327 -0.3997
29008W        W44625  18.639  12.465  14.186 -0.4249 -0.2853 -0.2229
29009W        W44626  12.156  15.778   1.724 -0.0533  0.1418 -0.1740
29010W        W44627   7.160   4.648  15.106 -0.0791 -0.1206 -0.1842
29011W        W44628   1.540   4.309   0.282  0.2335  0.2492  0.1127
29012W        W44629  13.624  13.249   1.996  0.0276  0.0860  0.2166
29013W        W44630   5.611   7.914  12.777  0.6212  0.1387 -0.0268
29014W        W44631   2.667   1.455   5.116 -0.1630  0.0510  0.1643
29015W        W44632  17.971  10.198  11.494  0.2994 -0.0623  0.0941
29016W        W44633   8.293  17.285   1.484 -0.0471 -0.2948  0.4187
29017W        W44634   6.859   8.270   5.298 -0.1560  0.0921  0.0767
29018W        W44635  17.936  12.335  11.429  0.2535 -0.0328 -0.1764
29019W        W44636   9.542   8.444   5.256  0.1126 -0.1040  0.0102
29020W        W44637   9.018   2.970  12.173  0.0488 -0.1936 -0.2344
29021W        W44638   2.600   7.548   0.578 -0.3858 -0.0218  0.5323
29022W        W44639  16.110   3.798  11.364 -0.1937  0.0941 -0.0229
29023W        W44640  17.113   4.592   4.638  0.0663  0.1370  0.3664
29024W        W44641   6.475  13.745  11.277 -0.1895 -0.2764  0.1222
29025W        W44642  13.387   8.833   5.342  0.0190  0.2337 -0.1165
29026W        W44643   4.798  16.864   0.241 -0.2276 -0.0072 -0.1820
29027W        W44644  14.861   0.539   0.812 -0.2649  0.1522  0.1535
29028W        W44645  16.315  16.257  11.869  0.2471  0.4130 -0.0960
29029W        W44646   2.547   0.846   5.507 -0.0212  0.1523  0.0647
29030W        W44647   4.583   8.429  11.530 -0.0907  0.1128 -0.0716
29031W        W44648   7.600  11.694   5.066 -0.3391  0.0370 -0.3085
29032W        W44649   0.242   6.259  11.550 -0.3068  0.4149  0.3396
29033W        W44650  12.015  16.110  11.450  0.1425 -0.2862  0.0686
29034W        W44651  12.993   6.575  14.878  0.0785  0.1023 -0.0579
29035W        W44652   5.821   5.352  12.678 -0.0073 -0.3251 -0.1870
29036W        W44653   6.505   9.876   3.984  0.0696  0.0736 -0.1017
29037W        W44654   2.133  14.605  12.264 -0.0094  0.0101 -0.0075
29038W        W44655  11.185   1.102  14.581  0.1049  0.1517 -0.2586
29039W        W44656   6.426   1.722   5.902 -0.0336  0.0989  0.1982
29040W        W44657  15.994   9.369  15.042 -0.0681  0.1658  0.0917
29041W        W44658   7.193   6.096  14.990 -0.1744 -0.0323  0.0167
29042W        W44659   8.490   3.870  12.382 -0.0805  0.1034  0.0494
29043W        W44660  13.091   5.912   0.128  0.2250  0.0856  0.3543
29044W        W44661  13.764   8.949   1.604  0.1976 -0.0386  0.1452
29045W        W44662  18.162   4.423   4.658 -0.2343 -0.0198 -0.0957
29046W        W44663   6.451   1.806  12.965  0.5311 -0.0104  0.2014
29047W        W44664   5.126   6.561  12.705  0.0360  0.1072  0.3050
29048W        W44665   4.249   3.540   0.864 -0.0634  0.3690 -0.0461
29049W        W44666  16.461  12.480  12.499  0.0802 -0.1607 -0.1304
29050W        W44667   1.040  12.334  10.888  0.0245 -0.3072 -0.2522
29051W        W44668   8.404   2.583  10.981  0.0956 -0.0654 -0.0223
29052W        W44669   4.590   9.604   4.454 -0.0067  0.1702 -0.1585
29053W        W44670   4.450   1.808   2.250  0.0353  0.0843  0.0380
29054W        W44671  11.145   6.229   2.229 -0.0070 -0.2760 -0.1940
29055W        W44672   3.597   3.530  11.315  0.1561  0.3225 -0.1063
29056W        W44673   4.058   4.112  12.407  0.0203 -0.0101 -0.0007
29057W        W44674  14.879  13.957  14.175  0.3296 -0.0537  0.0961
29058W        W44675  16.709   9.586  13.771 -0.3872 -0.0462  0.2324
29059W        W44676  11.957   0.992   1.629 -0.0482 -0.1439 -0.0062
29060W        W44677  17.135   2.306  13.420 -0.0022 -0.2622  0.2743
29061W        W44678   7.276   9.412   3.701  0.1445 -0.3993 -0.1607
29062W        W44679   2.278   3.979   0.743  0.1862  0.0274  0.0939
29063W        W44680  16.852  13.580   4.579  0.1418 -0.2577  0.5907
29064W        W44681  14.575   5.536  15.427  0.0627  0.1031  0.3110
29065W        W44682   5.440   6.403   4.159 -0.0772 -0.1074 -0.0035
29066W        W44683   0.536  12.682  12.887 -0.0563  0.2358 -0.2051
29067W        W44684  17.028  12.764   1.611 -0.0044  0.3218  0.1505
29068W        W44685   1.838   7.582  13.599 -0.1251 -0.1545 -0.2744
29069W        W44686   7.990   9.457   3.970  0.1216  0.0041  0.0364
29070W        W44687  10.557   7.337  11.663  0.1882  0.0118  0.3426
29071W        W44688   8.884   2.969  13.429 -0.1524  0.1604  0.1330
29072W        W44689  13.941   0.782   3.922  0.0799 -0.0272 -0.1244
29073W        W44690   3.197   3.612  12.288 -0.0235 -0.0343  0.1238
29074W        W44691  13.897  16.604   3.077  0.0731  0.1338 -0.4645
29075W        W44692   7.880  12.165   1.651 -0.1910 -0.2374  0.1795
29076W        W44693   1.830   5.201   5.758 -0.0663 -0.1192 -0.0961
29077W        W44694  13.110   4.989   3.154 -0.2025  0.1714 -0.0721
29078W        W44695   9.326  13.683  10.180 -0.2092  0.1231  0.1587
29079W        W44696   8.658   3.441  14.378  0.0743 -0.0194  0.0351
29080W        W44697  13.686  10.495   0.624  0.0811  0.2299 -0.0157
29081W        W44698   4.601   2.061  11.188 -0.0743  0.0206 -0.1215
29082W        W44699   4.957   9.496   4.719  0.0870  0.0499 -0.0290
29083W        W44700   6.698   6.136  14.743  0.1526  0.1605 -0.0762
29084W        W44701  14.637  18.074  13.103  0.1108  0.1845 -0.1635
29085W        W44702   3.252   5.676   0.650  0.2708 -0.1198  0.2004
29086W        W44703   5.342  15.838  13.118  0.1126  0.0817 -0.0084
29087W        W44704  11.467   9.174   5.478  0.0948 -0.4417  0.1625
29088W        W44705   5.404   8.343   4.438 -0.1988 -0.1135  0.0892
29089W        W44706   3.065  18.536   4.887  0.0784 -0.2804  0.2209
29090W        W44707   1.578  17.659  14.317 -0.1096  0.0469  0.1046
29091W        W44708   1.180  10.750   1.942  0.0455 -0.1212 -0.1363
29092W        W44709  16.281   6.365  12.614  0.3192  0.0415  0.0447
29093W        W44710   2.732   0.418  11.148 -0.0367 -0.0237 -0.1633
29094W        W44711  13.240  13.245  13.382 -0.0869  0.1657 -0.3053
29095W        W44712  13.995   2.384  13.299 -0.1976  0.0596 -0.2166
29096W        W44713   4.612  12.866   2.620  0.0562  0.0275 -0.0522
29097W        W44714   7.584  14.015   1.241 -0.0000  0.2427  0.2138
29098W        W44715  16.722   7.366  13.563  0.1326 -0.0111  0.0540
29099W        W44716  15.913   4.303  11.283 -0.0837 -0.1122  0.1185
29100W        W44717  12.760  12.781   0.612  0.1581  0.1451 -0.3288
29101W        W44718  16.789  18.584  14.209 -0.3461  0.1273  0.2349
29102W        W44719   4.198   0.476   2.046 -0.1852 -0.0858  0.1338
29103W        W44720   8.718   4.117   6.394 -0.4092  0.0124 -0.1865
29104W        W44721  16.975  15.277  12.400  0.1876 -0.1196 -0.0235
29105W        W44722   2.168   2.191  14.016  0.2843  0.1297 -0.0828
29106W        W44723  13.471   8.726   4.833  0.0705  0.0336 -0.0973
29107W        W44724   0.615   0.144  14.905  0.1580  0.1189 -0.2870
29108W        W44725  15.312  16.290   3.790 -0.1150 -0.0805 -0.2258
29109W        W44726  11.066   2.882  14.275 -0.2803 -0.0666 -0.1837
29110W        W44727  15.759   0.125  14.236 -0.0876  0.1007  0.0964
29111W        W44728  18.048   3.266  15.490 -0.1529 -0.0491  0.2731
29112W        W44729   2.230  14.207   4.483  0.1474  0.0837  0.0345
29113W        W44730   9.960   6.821  13.737 -0.1622  0.2257  0.2378
29114W        W44731  17.941   4.717   3.361  0.0753 -0.1951 -0.3015
29115W        W44732   1.694   0.146  11.925  0.1008  0.1317 -0.0283
29116W        W44733  12.613  13.117   0.132  0.1110  0.1118 -0.2478
29117W        W44734   0.256   2.035   1.357  0.2485 -0.2958 -0.4109
29118W        W44735   7.699  17.164  10.263 -0.0580  0.1682  0.2788
29119W        W44736   2.929  16.010  15.548  0.0036  0.2177  0.2974
29120W        W44737  11.165   2.189   5.139  0.0984 -0.0405 -0.0277
29121W        W44738   0.384   1.404   1.521  0.1707  0.1403 -0.0338
29122W        W44739  17.190   3.101   0.163  0.3277 -0.3216  0.3287
29123W        W44740  18.618  18.087   2.100  0.2614 -0.3366 -0.0372
29124W        W44741   8.275   0.217   1.292 -0.3106  0.0902  0.0471
29125W        W44742   3.546   6.705  14.039 -0.1624  0.1449 -0.0435
29126W        W44743  11.327  18.111   2.948 -0.2034 -0.0977 -0.0980
29127W        W44744  12.931  10.214   0.153 -0.0977  0.0686  0.0448
29128W        W44745  11.557   7.324  12.406  0.0046 -0.1267  0.0770
29129W        W44746  12.797  10.508  11.691  0.4489  0.3650  0.1342
29130W        W44747  15.833  17.455   2.358 -0.1232 -0.0175  0.0607
29131W        W44748   1.864   7.916   4.216  0.1377  0.1890  0.1007
29132W        W44749  16.660  11.637   0.658  0.0950 -0.0553 -0.3521
29133W        W44750  16.366   6.509   3.214 -0.2657  0.0069 -0.3937
29134W        W44751  11.740   7.200   4.527 -0.1080  0.1341 -0.0552
29135W        W44752  17.262   1.839  15.182  0.0849 -0.0505  0.1418
29136W        W44753   7.922  13.843   3.796 -0.2112  0.1212 -0.0942
29137W        W44754   4.157   8.423   4.686  0.1131 -0.0399  0.2202
29138W        W44755  16.065   5.541  13.136  0.1703  0.1694  0.1061
29139W        W44756  15.510   2.790  15.683 -0.0374 -0.3138 -0.3054
29140W        W44757   2.376  15.030  14.817  0.0434  0.0528  0.0795
29141W        W44758   4.844   0.003   0.727 -0.1566  0.3619  0.1294
29142W        W44759  12.696   4.850   1.352 -0.1994 -0.0997 -0.1380
29143W        W44760  11.430  14.752   1.786 -0.0973 -0.1628  0.1262
29144W        W44761  14.756   3.253  12.485 -0.1699 -0.1064 -0.2443
29145W        W44762   9.738   8.569   4.270  0.1131 -0.0084 -0.1761
29146W        W44763   7.070   3.072  14.897 -0.0999  0.1598 -0.2097
29147W        W44764   5.866   7.947   1.914 -0.0410 -0.3357 -0.2112
29148W        W44765   9.956   7.564   4.036  0.0285  0.0169 -0.0130
29149W        W44766  12.979   2.051  15.793  0.2011  0.0156 -0.1674
29150W        W44767  10.152   9.660  13.941  0.0187  0.3830  0.0313
29151W        W44768   7.445   1.413   2.326 -0.0258 -0.3338  0.3362
29152W        W44769  12.116   7.627  11.138 -0.2497  0.1772  0.0234
29153W        W44770  10.085   3.417   6.696 -0.3991 -0.0248  0.0199
29154W        W44771   0.151  15.672  14.819 -0.1821  0.3563  0.2166
29155W        W44772   7.807   5.089  15.552  0.0087  0.1441 -0.1821
29156W        W44773   1.601  15.005  15.677  0.1474 -0.1721 -0.1216
29157W        W44774   9.638   7.300   2.108 -0.2056 -0.3044 -0.1029
29158W        W44775   5.938  14.709  13.453  0.1441  0.3925 -0.1733
29159W        W44776   5.581   6.977  11.330 -0.0723 -0.4730  0.1854
29160W        W44777   0.215  16.626   4.607 -0.3395 -0.1172 -0.2322
29161W        W44778  10.626   0.204  15.038 -0.2977  0.1459 -0.0678
29162W        W44779   4.375   2.259  11.678 -0.0184 -0.1544  0.0626
29163W        W44780  18.321   0.110   2.756  0.0440  0.1864  0.2086
29164W        W44781  10.172  14.478  13.356 -0.1310 -0.2525  0.4303
29165W        W44782   3.619   4.756  15.494 -0.0156  0.0037  0.1663
29166W        W44783   0.677   4.092   2.512 -0.2073 -0.0590  0.0336
29167W        W44784  12.956   2.747  12.392 -0.2260  0.0508  0.3093
29168W        W44785  13.455   0.853   0.553 -0.0869  0.1999  0.2035
29169W        W44786   0.379  11.663  10.677  0.2663 -0.0606 -0.2166
29170W        W44787   4.696   7.512   4.632  0.1510 -0.0583 -0.2278
29171W        W44788   3.467   7.049   1.934  0.1087 -0.0935 -0.1911
29172W        W44789  17.345  16.625   6.225 -0.0120 -0.2259  0.2341
29173W        W44790   4.841  12.693  12.916  0.0050 -0.1236  0.0823
29174W        W44791  12.444   4.683  14.487 -0.2327 -0.2068 -0.0045
29175W        W44792  13.367   7.624  14.975  0.2637  0.2391 -0.0284
29176W        W44793   5.335  17.142  13.802 -0.0705  0.0290  0.4118
29177W        W44794   0.963  12.888   0.391  0.1334 -0.2287  0.1064
29178W        W44795  11.880   0.782   4.924 -0.0159  0.0129 -0.2274
29179W        W44796   2.948  17.973  13.458  0.0656 -0.1114 -0.1017
29180W        W44797  13.658   2.264  12.081  0.1862  0.0059 -0.1984
29181W        W44798   5.714   5.819  12.614 -0.4251  0.2252 -0.0513
29182W        W44799   8.978  10.462  13.614 -0.2250 -0.2446 -0.0690
29183W        W44800  11.353   8.328   2.269 -0.0383  0.0890 -0.2734
29184W        W44801   7.799   0.241  10.772  0.1452  0.3402 -0.3026
29185W        W44802   3.909  12.205   2.651  0.0470  0.0291 -0.1883
29186W        W44803   1.942  14.822  15.326  0.0852  0.3304  0.0474
29187W        W44804  13.080   7.560  11.583  0.2598  0.0964  0.0069
29188W        W44805  13.400   1.732   1.671 -0.1499  0.0564 -0.2442
29189W        W44806   0.682  15.557  14.755  0.1810 -0.0965  0.1582
29190W        W44807  11.960  13.462  13.619  0.0666 -0.2332  0.0842
29191W        W44808   3.565   3.998  12.409 -0.1274 -0.1075 -0.4148
29192W        W44809  17.168   5.904   1.192  0.0317  0.0682 -0.0456
29193W        W44810   7.222  18.245   1.594  0.1315 -0.1737 -0.1473
29194W        W44811   9.592  17.888  11.221  0.0740  0.0715 -0.1159
29195W        W44812   4.431  11.990   1.359  0.2247 -0.0366 -0.0528
29196W        W44813  15.453  16.011   6.298 -0.1139  0.2087 -0.0050
29197W        W44814   9.335  14.045   1.443  0.1040  0.0931  0.1971
29198W        W44815   8.962   8.967  13.915 -0.3745 -0.0191  0.2608
29199W        W44816   9.892   2.897   5.733  0.0684  0.1428  0.1322
29200W        W44817  13.543   2.159   0.184 -0.0488 -0.0917  0.3270
29201W        W44818   3.912   4.999  14.643 -0.0884 -0.0696  0.2121
29202W        W44819   5.367  12.530  15.757  0.0606 -0.1465  0.0941
29203W        W44820  18.131  13.452   1.351  0.0897 -0.0815  0.2378
29204W        W44821   2.640   4.745   5.364 -0.0687  0.1845  0.0244
29205W        W44822   4.161  13.902   5.501  0.1356 -0.0619 -0.3107
29206W        W44823  11.980  17.482  15.082 -0.1944 -0.2161  0.1217
29207W        W44824   5.823  11.931   1.141  0.0387 -0.0970 -0.3721
29208W        W44825  17.181  18.455   2.269  0.1305 -0.0037  0.1820
29209W        W44826   1.044   8.104  13.968 -0.0144  0.1365  0.2827
29210W        W44827   3.591  15.642  11.698 -0.0590  0.0878  0.4132
29211W        W44828   4.980   7.230  12.906  0.0440 -0.1211  0.0820
29212W        W44829   5.679   2.726  15.549  0.0816  0.1723  0.5269
29213W        W44830  17.468  18.595   5.512  0.1165  0.1200 -0.2911
29214W        W44831   3.979   3.388   5.297  0.3901  0.0145 -0.0912
29215W        W44832  16.154   3.963   0.092 -0.0362  0.2915  0.1133
29216W        W44833  10.548  17.377   3.425  0.3421 -0.4045 -0.0131
29217W        W44834  14.663   7.439  11.050  0.3241  0.1869  0.1966
29218W        W44835  11.511  17.749   2.664 -0.1993 -0.2367  0.1692
29219W        W44836  12.791   2.733   4.344  0.0396  0.0981 -0.0722
29220W        W44837   5.048   0.287   1.478  0.0874  0.2970 -0.1846
29221W        W44838   8.979  11.247   4.478  0.1569  0.0158 -0.2064
29222W        W44839   1.271   2.596   4.680  0.3249  0.3811  0.2772
29223W        W44840  13.392  17.974   1.132  0.1156  0.0422 -0.1081
29224W        W44841   6.148   8.593   5.167 -0.0290  0.3412 -0.3860
29225W        W44842   9.477  10.280  11.232  0.0130  0.2849 -0.2197
29226W        W44843   4.587   5.037   2.373 -0.1429  0.0229  0.1813
29227W        W44844   7.841   3.624   6.169 -0.0641 -0.2600 -0.1365
29228W        W44845   1.068  13.598  11.064  0.1199  0.3363 -0.0733
29229W        W44846   9.515   5.177  11.535  0.1763  0.5042 -0.2217
29230W        W44847  10.174  18.557   6.085 -0.2147  0.0437  0.0877
29231W        W44848   2.866   2.885   5.961  0.1599  0.1968 -0.1934
29232W        W44849  10.419   8.810  12.856  0.0086  0.2479  0.1587
29233W        W44850  14.858   5.454   2.829 -0.1645 -0.2602 -0.0754
29234W        W44851   8.128  18.447  13.002  0.1417  0.0650  0.0152
29235W        W44852   2.684   8.595   1.983 -0.3899  0.1777  0.0872
29236W        W44853   6.427  13.845  15.400 -0.1793  0.0312  0.0262
29237W        W44854   8.754   7.152  15.104  0.3347  0.1096 -0.1859
29238W        W44855  16.352   3.883  12.549 -0.1614 -0.0891 -0.0918
29239W        W44856  10.672   6.711   1.077 -0.2868  0.1211  0.0317
29240W        W44857   6.908  11.676  14.642 -0.1813 -0.2701  0.0714
29241W        W44858  18.000  12.127   4.776  0.1894  0.0471  0.2122
29242W        W44859   1.292  13.109   3.135 -0.0241  0.1047 -0.2263
29243W        W44860   9.945  14.925  11.814  0.2702  0.0344 -0.1303
29244W        W44861  12.395  10.414   0.769  0.0953 -0.0200 -0.1502
29245W        W44862   6.018  15.640   1.634 -0.0558  0.1015 -0.1363
29246W        W44863   6.268  18.479   0.732 -0.3950 -0.0902  0.0875
29247W        W44864  14.084  17.712   1.669 -0.1473  0.0622  0.0352
29248W        W44865  12.204  18.406   4.216  0.0759  0.4990  0.4685
29249W        W44866  11.819   5.433   0.090  0.2434  0.3640 -0.0966
29250W        W44867   5.164  15.391  10.749 -0.0357  0.2844 -0.0406
29251W        W44868  12.691  16.955   9.898 -0.0157  0.6717 -0.1268
29252W        W44869   2.716   2.494   0.856 -0.0487  0.1071 -0.6786
29253W        W44870  14.088  13.709   2.857  0.1313 -0.1406  0.4655
29254W        W44871   7.154   0.605   0.237 -0.1301 -0.2317 -0.2020
29255W        W44872   8.555   8.289   0.237  0.1772  0.0756 -0.3528
29256W        W44873   1.239   6.933   3.736  0.2006 -0.2857 -0.1820
29257W        W44874   9.906   8.105   5.081  0.1179  0.0308  0.1438
29258W        W44875  10.509  13.546  14.866 -0.3339  0.1256 -0.1255
29259W        W44876  13.919   2.993   2.142  0.1372 -0.3760 -0.3279
29260W        W44877   4.281  12.841  11.789  0.2113  0.1282 -0.1321
29261W        W44878   4.975   3.557  13.893  0.1523 -0.0931  0.1525
29262W        W44879   0.370  13.088  11.058 -0.0178  0.3951 -0.2574
29263W        W44880   6.375   1.957   0.005  0.2735  0.1956 -0.2165
29264W        W44881   2.955   8.030   0.871  0.1114 -0.2028  0.0460
29265W        W44882   4.996  15.577   1.016 -0.2042 -0.1762 -0.0651
29266W        W44883   6.040  11.295  15.379  0.2477 -0.1006  0.2497
29267W        W44884  11.768   1.383  11.933  0.1353  0.1002  0.2934
29268W        W44885   8.729   1.853  11.997  0.0415 -0.2224 -0.1132
29269W        W44886  13.349  11.726  14.944 -0.3457  0.1817  0.0001
29270W        W44887   3.626  11.937   0.375 -0.0249 -0.1068 -0.3513
29271W        W44888  11.317  13.828  13.941  0.0540  0.2937 -0.2580
29272W        W44889  12.781  10.547   3.679 -0.0554 -0.2015 -0.0133
29273W        W44890  12.833  12.040  13.987 -0.1456 -0.2122  0.2557
29274W        W44891   6.305  12.529   3.549  0.0716 -0.0772 -0.0426
29275W        W44892  16.203  10.391   2.583 -0.1791 -0.0246 -0.1852
29276W        W44893  10.944   2.062   4.020 -0.0158  0.0013 -0.1004
29277W        W44894  12.099   8.966  13.924  0.0799 -0.1784 -0.2068
29278W        W44895  11.506  12.111   2.092 -0.1429  0.0326  0.3142
29279W        W44896  15.596  12.577   3.837  0.0481 -0.0727 -0.1975
29280W        W44897  12.614   4.950  11.632 -0.0964  0.2208  0.2367
29281W        W44898  17.185  14.269  12.710  0.0426 -0.1950  0.1430
29282W        W44899   8.048  11.515   5.151 -0.2421  0.0949 -0.1263
29283W        W44900   2.134  16.085  13.479 -0.0319 -0.1134 -0.0239
29284W        W44901  10.886   8.018   4.832  0.0697  0.2201 -0.2368
29285W        W44902   8.989  11.149  13.859  0.0887 -0.1660  0.1356
29286W        W44903   7.071   9.265   1.373 -0.1551 -0.3410  0.1380
29287W        W44904  15.236  14.108  11.039  0.1529 -0.1443  0.0030
29288W        W44905   9.702   3.381   0.374 -0.0215 -0.1766 -0.0794
29289W        W44906   6.203  13.000   3.574  0.2184 -0.2277  0.0724
29290W        W44907  13.543  17.960   6.621 -0.1395 -0.2309  0.4730
29291W        W44908   8.863  14.496  15.310  0.1406 -0.1175 -0.0917
29292W        W44909  11.859  13.885  14.847  0.0804 -0.2119 -0.1695
29293W        W44910  18.192  12.504   0.914  0.0776 -0.0846  0.2217
29294W        W44911   1.410   1.796   4.387  0.0389  0.0802  0.2354
29295W        W44912   5.635   8.822  13.280 -0.2273 -0.0971  0.1275
29296W        W44913  18.569   9.032   0.846 -0.3284  0.0155 -0.1356
29297W        W44914   3.504   1.130   0.975  0.0743  0.1640 -0.0854
29298W        W44915  10.709  13.679  15.300 -0.1718 -0.0661  0.0413
29299W        W44916   4.737   0.424  14.777  0.0305 -0.1561  0.0168
29300W        W44917  10.966  14.592   0.865 -0.3240 -0.3763 -0.2466
29301W        W44918  14.308   9.336   3.936  0.0129 -0.2729 -0.0339
29302W        W44919   6.353  17.537  12.209  0.1570  0.0608 -0.2320
29303W        W44920   0.439   3.855  15.046  0.2982 -0.1134 -0.0981
29304W        W44921  11.383   6.722  13.104  0.0732 -0.2466  0.0375
29305W        W44922  15.748  14.235  10.929  0.1284 -0.2643  0.1711
29306W        W44923   9.970   8.570   3.118 -0.2581 -0.0995  0.1804
29307W        W44924  14.248  15.002  13.339  0.0307 -0.0513 -0.0708
29308W        W44925  10.245   1.234  12.539 -0.0054  0.0454 -0.1471
29309W        W44926   2.390   4.596  13.747  0.2446 -0.2447  0.0289
29310W        W44927   3.921  14.602   4.861  0.0756 -0.1849  0.0092
29311W        W44928  18.365   7.365  15.760 -0.1369  0.0984 -0.0605
29312W        W44929   8.031  14.895   0.849  0.1516  0.0232 -0.1950
29313W        W44930  13.501   8.862   3.540 -0.0864  0.2261 -0.0947
29314W        W44931  14.944  16.003   3.632 -0.2054 -0.1512  0.1449
29315W        W44932   6.255   0.901   3.464 -0.0116  0.1025  0.0932
29316W        W44933  10.106   9.425   1.725 -0.1270 -0.2778  0.0154
29317W        W44934   2.536   9.274  10.797 -0.1625  0.3426 -0.1348
29318W        W44935   0.765   3.790   0.917 -0.2260 -0.2125 -0.2578
29319W        W44936  13.144  10.026   3.978 -0.0307 -0.0617 -0.0037
29320W        W44937  15.432  12.276  12.654  0.2737  0.1162  0.1697
29321W        W44938  10.013   9.759   5.790 -0.1674 -0.2600 -0.0616
29322W        W44939  11.801   9.768  11.909  0.1356 -0.1091 -0.0197
29323W        W44940  16.437  15.033   4.570  0.1072 -0.0981  0.0402
29324W        W44941  11.572  17.238  11.692 -0.3139  0.1938 -0.0911
29325W        W44942  11.889   1.131  13.942 -0.0540 -0.4102  0.2194
29326W        W44943  11.336   4.086   1.669  0.5988 -0.3430 -0.0332
29327W        W44944  18.099   0.074  14.647 -0.1604 -0.0726  0.1090
29328W        W44945   9.767  14.281  12.011  0.3522 -0.0141 -0.1898
29329W        W44946   6.543   4.882   5.635 -0.1224 -0.1017 -0.0150
29330W        W44947  12.169  17.499   1.324  0.2332 -0.1252 -0.1174
29331W        W44948   4.476   4.354  13.326 -0.0916 -0.1040  0.0676
29332W        W44949   2.114  13.121  15.738  0.2036  0.1878  0.0705
29333W        W44950  16.775   9.533   0.043  0.0147 -0.0467 -0.0839
29334W        W44951   4.568   5.187   0.590 -0.0331  0.2828  0.0514
29335W        W44952   9.731   9.993  13.694  0.3112 -0.1399 -0.0645
29336W        W44953  10.414   4.729   2.674  0.0680 -0.0386  0.1817
29337W        W44954  15.355   6.311   4.967 -0.2754  0.0420 -0.0704
29338W        W44955  10.519  17.016  15.104 -0.2072 -0.0693  0.0972
29339W        W44956   4.201   6.994   3.662  0.0806 -0.1576 -0.1307
29340W        W44957   8.747   8.661   5.582 -0.0604 -0.1831 -0.1255
29341W        W44958  17.496   0.862   1.978  0.3341 -0.2621  0.1201
29342W        W44959   4.340  17.021   0.853  0.0979 -0.1123 -0.1481
29343W        W44960   8.347  18.617  11.080 -0.0021  0.1033  0.0380
29344W        W44961  15.399  13.805   4.279 -0.2522  0.1666 -0.1195
29345W        W44962   3.430   9.416  14.452  0.1495 -0.2185 -0.1573
29346W        W44963   1.064   2.758  11.799 -0.0891  0.1145 -0.1365
29347W        W44964   1.904  10.634   4.928 -0.1306  0.2563 -0.1512
29348W        W44965  15.796   8.060  13.803  0.1977  0.1050  0.1877
29349W        W44966  15.447  15.661   2.359  0.3057  0.3296 -0.1944
29350W        W44967   6.459   8.254   1.424  0.0199  0.1629 -0.0315
29351W        W44968   7.504   8.835  11.904 -0.1754 -0.0391  0.0385
29352W        W44969   1.001   5.766  14.941 -0.1347  0.0801  0.0085
29353W        W44970   9.311   9.065   2.692 -0.0701 -0.1872  0.2418
29354W        W44971   5.798  12.700   0.187  0.2142  0.2281  0.0586
29355W        W44972  17.624  11.256  10.909  0.0070 -0.0537 -0.2958
29356W        W44973   8.838  10.075   4.334  0.1305 -0.0424 -0.4456
29357W        W44974   7.439  12.459  10.427 -0.0782 -0.4362  0.0105
29358W        W44975  12.110   5.928  15.466  0.3215  0.2611  0.1079
29359W        W44976   0.868  16.797   0.494 -0.1012  0.0138  0.0085
29360W        W44977  18.537   6.414  12.417  0.1737  0.2565  0.1509
29361W        W44978  13.551   4.657  13.746  0.1951  0.2619 -0.1382
29362W        W44979   7.625  18.288   5.133  0.0064  0.2126  0.3769
29363W        W44980  16.787   2.733   1.183 -0.0196 -0.1405  0.2765
29364W        W44981  10.848  17.534  11.284  0.3083  0.1154 -0.3027
29365W        W44982  17.676  14.187   1.358  0.1496 -0.3719  0.1254
29366W        W44983  16.384   8.287   4.315 -0.2929  0.1051 -0.0948
29367W        W44984   3.281  16.260  11.158  0.0165 -0.1640 -0.2440
29368W        W44985  12.219   8.097  15.268 -0.6902 -0.2735 -0.2411
29369W        W44986  15.083  11.650  13.624  0.2853 -0.2587  0.4579
29370W        W44987   4.879   7.105   2.900  0.4007 -0.0976  0.0078
29371W        W44988   9.272  14.494   3.651  0.1524  0.3155  0.2004
29372W        W44989   4.880   5.561  15.031 -0.2607  0.2213 -0.2194
29373W        W44990  11.432   7.979   0.174  0.0374 -0.0015 -0.0412
29374W        W44991  13.902   1.088  12.545  0.2660 -0.1981  0.1253
29375W        W44992   5.476   0.927   4.031  0.1271 -0.0686  0.0128
29376W        W44993  16.609   3.791  14.022 -0.1167 -0.1107  0.2979
29377W        W44994   1.980  14.015   4.868  0.1194  0.2405  0.4438
29378W        W44995   7.557   9.786  12.781  0.0425  0.1694 -0.2590
29379W        W44996  15.357   4.876   1.948 -0.2237  0.2751  0.0251
29380W        W44997  18.624  16.199   1.144 -0.1969 -0.0357 -0.1729
29381W        W44998   9.851  12.785   0.173  0.3525  0.2232  0.2785
29382W        W44999  10.659   4.662  10.649 -0.2546 -0.1795 -0.0175
29383W        W45000   2.820   3.743   4.447 -0.0838 -0.0619 -0.1925
29384W        W45001   2.243  15.360   4.786 -0.0917 -0.0543 -0.2800
29385W        W45002  14.945  12.089  14.869  0.0843  0.0030  0.0482
29386W        W45003  17.499   5.228  11.266 -0.0604 -0.0587  0.4915
29387W        W45004  11.956   3.864  11.923 -0.0266 -0.2604 -0.0812
29388W        W45005  11.011   0.206  11.723  0.3864 -0.1194 -0.2326
29389W        W45006  14.745  13.001  10.731 -0.1356 -0.2577 -0.2873
29390W        W45007   8.395  14.862  10.800  0.2179  0.0948  0.0527
29391W        W45008  18.139   9.147   3.957  0.1656 -0.0871 -0.1287
29392W        W45009  14.023   9.414   2.963 -0.0887 -0.2371 -0.1698
29393W        W45010   7.655   4.088   0.131  0.2112  0.3260  0.3179
29394W        W45011   3.691  18.118  12.657 -0.1159  0.0649 -0.2892
29395W        W45012  14.552   3.268  11.598  0.0366 -0.0575  0.0373
29396W        W45013   0.580  17.853   5.609  0.0984 -0.0888  0.2883
29397W        W45014  11.194   3.338  11.953  0.1464 -0.0272 -0.1762
29398W        W45015  10.273   6.738  12.371 -0.2128 -0.2817 -0.1090
29399W        W45016  17.962  10.897  13.726  0.0227 -0.1206 -0.2340
29400W        W45017   1.147  10.484   0.132 -0.0703  0.0199 -0.2743
29401W        W45018  11.527   9.678   5.093 -0.0012 -0.3565  0.2999
29402W        W45019  14.608   1.789  11.821 -0.3279  0.1493  0.0712
29403W        W45020  10.624   9.105  10.167 -0.1257  0.3116  0.1402
29404W        W45021  10.473  15.218  13.638  0.0370  0.2844 -0.2499
29405W        W45022  12.696  17.838  14.161 -0.1595  0.0126 -0.2358
29406W        W45023   2.685   3.318   5.680 -0.0201  0.2581 -0.0258
29407W        W45024   8.526   0.932  13.209 -0.1181  0.0088 -0.2007
29408W        W45025   7.760  14.338   3.364 -0.1267  0.0428 -0.0301
29409W        W45026  15.658  16.298   4.151 -0.0613  0.2432 -0.0245
29410W        W45027  12.223   4.857   3.327 -0.2869  0.0822  0.0848
29411W        W45028   1.937   7.702   1.055 -0.2302  0.2655 -0.1981
29412W        W45029  13.082  18.107  12.933 -0.0433  0.3257  0.2481
29413W        W45030  10.038  18.102  11.071 -0.2247 -0.1779 -0.1235
29414W        W45031   2.607   3.059   3.186 -0.0372  0.1507  0.3338
29415W        W45032   6.580  16.992  13.800 -0.0921  0.1432 -0.2290
29416W        W45033   9.708  14.293   0.356 -0.0128  0.4492 -0.1036
29417W        W45034   9.941  10.096   1.017  0.0713  0.1009  0.0800
29418W        W45035   9.354   6.189   2.690 -0.0780 -0.1553 -0.0568
29419W        W45036   6.496   1.154   2.117  0.0280  0.1341 -0.0013
29420W        W45037   3.944  12.749   5.092 -0.0178  0.2048 -0.2714
29421W        W45038   9.411   8.604  11.729  0.1299 -0.2605  0.1049
29422W        W45039   3.107  17.474  12.075  0.0945  0.0142  0.1519
29423W        W45040  10.535  18.482  12.693  0.0108 -0.0177 -0.0672
29424W        W45041   0.403  11.797   5.122 -0.1436 -0.2092 -0.0066
29425W        W45042   4.961   6.994   4.751 -0.0437 -0.1677 -0.0361
29426W        W45043  14.709   3.000  13.352  0.0859 -0.3942  0.2303
29427W        W45044   1.924  13.778  11.333 -0.0347 -0.1854 -0.1025
29428W        W45045  12.570  10.461  13.569  0.0871 -0.1236 -0.0708
29429W        W45046   0.461  16.519   0.278  0.1665 -0.0058 -0.1270
29430W        W45047   6.707   8.191   0.834 -0.0115  0.1332  0.0851
29431W        W45048  10.216  17.444  15.433 -0.1876 -0.0656 -0.1374
29432W        W45049  17.882   9.657   0.662 -0.0049 -0.0666 -0.2981
29433W        W45050   9.983   6.466   0.463  0.2895  0.2134 -0.3650
29434W        W45051   8.631   0.347  11.254 -0.0129 -0.1162  0.2756
29435W        W45052   9.209   9.995  12.753 -0.1044 -0.1331  0.1807
29436W        W45053  17.593   3.376   1.516 -0.2496  0.1402  0.1690
29437W        W45054  18.439  16.326   9.740  0.3960 -0.1776 -0.0614
29438W        W45055  14.457   3.441  10.946  0.1752  0.2677  0.1704
29439W        W45056   2.064  13.267  12.228 -0.1624  0.3037  0.1567
29440W        W45057  17.412  18.387  15.492 -0.3412  0.0697 -0.1048
29441W        W45058  17.316   4.497   4.142 -0.2509  0.0140 -0.0437
29442W        W45059   4.405   0.445   0.166 -0.2125 -0.1475 -0.1296
29443W        W45060  14.871   0.184   3.711 -0.3537  0.2385  0.2351
29444W        W45061  10.199  15.334  15.407  0.1455 -0.1044  0.1133
29445W        W45062  18.378  17.015   3.741  0.3597  0.0714  0.0074
29446W        W45063   7.852   7.671   1.260  0.0576 -0.2455 -0.3923
29447W        W45064   9.244   6.350  12.236 -0.2613  0.1115 -0.2547
29448W        W45065  10.312   6.207   4.794 -0.0629 -0.0310  0.2369
29449W        W45066   0.568  12.494   2.857 -0.2636 -0.0234 -0.1089
29450W        W45067  14.903   6.940   2.913  0.0726  0.2496  0.2405
29451W        W45068   4.554   2.088   1.797 -0.1392  0.3600  0.1177
29452W        W45069  10.456   5.434   0.827  0.4075 -0.2684  0.2281
29453W        W45070   6.607  17.510  13.647 -0.0041 -0.1120  0.2521
29454W        W45071   8.153  14.779  12.796 -0.1946  0.1139  0.2435
29455W        W45072   4.443  17.229   0.393  0.0932  0.1185  0.0284
29456W        W45073   0.075  17.980   6.083  0.1538  0.1766 -0.0739
29457W        W45074  17.710   2.304  14.662 -0.5036 -0.1538 -0.0222
29458W        W45075  14.061  10.435   1.463 -0.0716  0.0239  0.0768
29459W        W45076  15.001   7.142   2.426 -0.2115 -0.1596  0.2647
29460W        W45077  18.558   1.712   3.145 -0.2796 -0.3839 -0.0740
29461W        W45078  10.790  12.188  11.437 -0.0809  0.0722 -0.0196
29462W        W45079   8.080   5.283  11.207  0.0234 -0.3050 -0.1515
29463W        W45080  16.995  11.770   0.248  0.0145  0.1243 -0.0152
29464W        W45081  17.642   3.674  12.098 -0.1481  0.3544 -0.2913
29465W        W45082  10.038   0.290   3.608  0.2460 -0.0371 -0.0750
29466W        W45083   5.652   4.698   0.037  0.0196  0.0030 -0.0892
29467W        W45084  12.648   0.294  14.059  0.0334 -0.1418 -0.1602
29468W        W45085  16.237   8.478  14.872 -0.1127  0.0179 -0.0862
29469W        W45086  12.320   4.226   6.301  0.4109  0.3028  0.3635
29470W        W45087  16.138   0.860   5.355  0.0434 -0.0239  0.0289
29471W        W45088   0.934   9.173  13.134  0.2678 -0.0018 -0.0030
29472W        W45089   8.773  10.025   1.913  0.0002  0.3655 -0.1496
29473W        W45090  13.222  17.128  14.623  0.0742 -0.0719 -0.0742
29474W        W45091  11.743   5.164  12.237  0.0917 -0.0345  0.0114
29475W        W45092  16.143   0.893  13.366  0.3601  0.1530 -0.1046
29476W        W45093   3.616   7.941   2.692  0.0755  0.0662 -0.1393
29477W        W45094  18.129  16.098  12.373  0.0496 -0.2182 -0.2399
29478W        W45095   0.201  12.936   5.473  0.1594 -0.1619  0.0818
29479W        W45096   4.895   8.983   4.537 -0.2165 -0.1400 -0.0830
29480W        W45097  15.746  11.971  11.814 -0.1397  0.0374  0.2645
29481W        W45098   9.134   7.021   3.242  0.0751  0.0494 -0.0440
29482W        W45099   2.653   6.543  11.527  0.1129 -0.0751  0.1056
29483W        W45100  11.077   4.777   5.642 -0.0324  0.1394  0.3567
29484W        W45101   9.292   9.350   4.983  0.2362  0.1450  0.1051
29485W        W45102  12.410   0.450  13.573 -0.0713  0.0238 -0.2157
29486W        W45103  14.470  17.163  14.556  0.1208  0.0631  0.1667
29487W        W45104   7.562   6.348   0.150  0.1505 -0.1511  0.0487
29488W        W45105   7.953  15.625   3.829  0.0894 -0.1418 -0.3566
29489W        W45106  10.369   0.206   4.357  0.3432 -0.1963 -0.3593
29490W        W45107   8.613   5.001  13.441 -0.1527 -0.0548 -0.2314
29491W        W45108   5.628  18.311  14.533  0.1270  0.1389  0.1970
29492W        W45109  16.264   0.531  15.114  0.0068 -0.1010  0.0821
29493W        W45110  10.096   4.757  12.270  0.2202  0.4571 -0.2628
29494W        W45111   0.477   4.848   6.060  0.2252 -0.1153 -0.0422
29495W        W45112   8.648   5.484   2.373 -0.2134  0.0821  0.1222
29496W        W45113  17.100  18.457   4.698  0.4069  0.1829 -0.1485
29497W        W45114   9.340   1.686  14.176  0.2128  0.3077 -0.0663
29498W        W45115   9.039  12.123  14.286  0.0929  0.1388  0.1106
29499W        W45116   4.339   5.461   1.771  0.2203 -0.2172 -0.1426
29500W        W45117  10.248  11.013   4.053  0.0114  0.1724  0.1352
29501W        W45118   6.581  11.747   4.309  0.3836 -0.1095 -0.0192
29502W        W45119  18.590  16.864  15.410  0.0902 -0.3629 -0.0872
29503W        W45120  15.338   1.609  11.602  0.0841 -0.0499  0.0000
29504W        W45121   8.552  18.374   5.053  0.2737  0.0872  0.2534
29505W        W45122   8.211   9.370  15.249 -0.1382 -0.0818  0.0565
29506W        W45123  17.474   6.567  13.268  0.0424  0.0826  0.0480
29507W        W45124  17.945   8.187   1.345  0.0696 -0.0288  0.0046
29508W        W45125  16.674   5.142   3.671  0.1711  0.0373  0.2700
29509W        W45126  17.567   8.590  13.781  0.1711  0.2354  0.1734
29510W        W45127  10.369  15.214   3.532 -0.1370 -0.0116  0.2571
29511W        W45128   3.244  15.126  10.841  0.0610  0.0469  0.1047
29512W        W45129  10.821   3.441  13.313  0.2762 -0.0044 -0.0786
29513W        W45130   2.652  13.425   2.273  0.1289  0.0011 -0.1074
29514W        W45131  14.306  12.979   3.513 -0.1687  0.0317 -0.2375
29515W        W45132  11.004  15.407  12.612 -0.0238 -0.1889  0.2564
29516W        W45133   0.681   0.491   3.889  0.1802  0.1154  0.3166
29517W        W45134   2.739   4.989   4.785 -0.1942 -0.1218  0.0240
29518W        W45135  18.333  12.693   4.329  0.0058  0.1335  0.2383
29519W        W45136   8.531   2.296  12.269  0.0354 -0.1235  0.2125
29520W        W45137   8.453   0.936   3.361  0.2537 -0.0357  0.2513
29521W        W45138   8.186   6.076   0.643 -0.1498  0.0222 -0.2120
29522W        W45139  17.967  18.625  13.627 -0.0310  0.0356 -0.1322
29523W        W45140   0.152  15.865   2.778 -0.1710  0.0870  0.0307
29524W        W45141   6.240  14.367  15.292  0.0844 -0.0075 -0.3225
29525W        W45142  14.608   7.736   4.152 -0.1424  0.1017  0.1947
29526W        W45143  11.948   3.463   5.253  0.0091 -0.0185  0.0860
29527W        W45144  16.358  10.113  12.884  0.1096 -0.0354  0.0709
29528W        W45145  13.255  14.391   4.921 -0.0122 -0.1972 -0.2447
29529W        W45146   1.101   0.393  12.835 -0.0119  0.0477  0.3544
29530W        W45147   6.380   5.181  13.212 -0.0600  0.1594  0.1173
29531W        W45148  12.903   4.183  14.899  0.2893  0.0184 -0.0063
29532W        W45149   7.016  13.732  15.568  0.0830  0.1640 -0.0183
29533W        W45150  18.645  11.940   1.765  0.1732  0.3757  0.1011
29534W        W45151   5.953   2.564  14.169 -0.3321  0.0088 -0.2371
29535W        W45152  11.739  14.075  10.936 -0.1383  0.4390  0.0790
29536W        W45153   8.285   2.520  15.296  0.0666 -0.2494  0.1823
29537W        W45154  12.922  10.829   2.336 -0.1499  0.1252 -0.1179
29538W        W45155   7.251   6.722  12.604  0.3809  0.1326 -0.1891
29539W        W45156  14.822  10.153  13.907  0.4694 -0.0750 -0.0110
29540W        W45157  17.917  13.830   1.604 -0.2281  0.2372  0.5322
29541W        W45158   1.018   6.444   3.050 -0.0271 -0.1367  0.0504
29542W        W45159  12.243  14.165  10.637 -0.0912  0.0344  0.1478
29543W        W45160  13.194  14.590   3.629  0.1182 -0.1115  0.0068
29544W        W45161   6.555   3.383   4.205  0.3469  0.1744  0.3255
29545W        W45162   2.335  15.504   0.420 -0.1323  0.1434 -0.2818
29546W        W45163  15.497   4.946  11.857  0.3419 -0.0872 -0.2772
29547W        W45164   0.590   4.025   0.524  0.2707 -0.2188  0.1020
29548W        W45165   0.206  10.569   2.473  0.0071  0.0749 -0.1177
29549W        W45166  14.469  17.026   5.511 -0.1176  0.0357  0.0235
29550W        W45167  15.464   9.880   3.033 -0.2548 -0.0101 -0.1311
29551W        W45168   4.244  14.308  14.274  0.0008 -0.0193  0.4177
29552W        W45169   8.496   9.874  13.967 -0.2440  0.4009 -0.3745
29553W        W45170   2.321  12.162  12.795 -0.1471  0.0654 -0.1546
29554W        W45171  13.103   0.965   0.987  0.1475  0.0598  0.0894
29555W        W45172   6.841   2.523  12.582  0.2175 -0.1359 -0.1906
29556W        W45173  12.131   3.330   0.686  0.2307 -0.1403  0.0506
29557W        W45174   6.990  14.243   4.540 -0.1152 -0.0081  0.0736
29558W        W45175   8.309   6.757  13.285 -0.0381  0.0768  0.3967
29559W        W45176   2.249   9.880   0.241  0.0458  0.1487 -0.0378
29560W        W45177   4.168   8.813  11.060  0.0770  0.0533 -0.5672
29561W        W45178   6.947   3.512   2.827 -0.1422 -0.0540 -0.3802
29562W        W45179   0.824   5.894  11.326  0.2757  0.0517  0.0880
29563W        W45180   0.324   9.827  10.997 -0.1954  0.0257  0.1505
29564W        W45181   5.672   8.748   0.845  0.0183 -0.4121  0.2211
29565W        W45182  15.200   0.615   3.844 -0.1541  0.0625 -0.1182
29566W        W45183   9.499   2.928  14.447 -0.1128 -0.1771 -0.0116
29567W        W45184  14.951   6.695  12.149 -0.0737 -0.3518  0.1201
29568W        W45185  16.587  11.650  14.443 -0.1993  0.4190 -0.3325
29569W        W45186   6.332  18.348   4.197  0.3164  0.0950 -0.1645
29570W        W45187  12.894   7.809   1.798 -0.3411 -0.1557  0.4079
29571W        W45188  15.348  18.098  11.942  0.1961  0.1214  0.1587
29572W        W45189  12.836  18.527  13.247 -0.3669 -0.0120  0.0163
29573W        W45190   1.364   1.266  12.861  0.1566  0.0365 -0.0796
29574W        W45191   9.798  17.818  15.684 -0.1072  0.3195 -0.1308
29575W        W45192  16.196   5.435  12.384  0.0993 -0.2184 -0.1228
29576W        W45193   5.171   7.430   4.463 -0.0504  0.0857 -0.0513
29577W        W45194   9.147  15.292  11.769  0.2077 -0.1128  0.1503
29578W        W45195   8.642  12.405   0.464 -0.1139  0.0086  0.3257
29579W        W45196   3.825  17.740  11.203 -0.1330  0.0659  0.2275
29580W        W45197   9.328   9.814   4.303  0.1666 -0.0282 -0.0762
29581W        W45198   5.831  16.030   3.788  0.1553 -0.0058  0.4563
29582W        W45199  16.637   5.500   1.802 -0.0296  0.0722 -0.1961
29583W        W45200  12.446   1.409   4.740  0.0308 -0.0480 -0.2267
29584W        W45201   0.707   5.170  13.766  0.2305 -0.1583 -0.2178
29585W        W45202  15.720   9.525   1.266  0.0196  0.3263  0.2861
29586W        W45203   4.629   5.659  11.961  0.1489  0.2614 -0.1875
29587W        W45204  15.957   9.252   4.176  0.1592  0.1200 -0.1014
29588W        W45205  11.388  14.516  11.033 -0.1347 -0.5052 -0.3300
29589W        W45206  14.621  12.215   3.751  0.3645 -0.2056 -0.1542
29590W        W45207  11.291  13.199  13.209 -0.3759 -0.0112 -0.1796
29591W        W45208  18.345   0.043  15.432  0.2205  0.0596  0.0399
29592W        W45209   3.220   4.645  14.121 -0.2376  0.0099  0.1913
29593W        W45210   2.188   5.586  12.590  0.2623 -0.1013 -0.3381
29594W        W45211   5.759  15.013   1.348 -0.0391  0.1584  0.3601
29595W        W45212   2.516   1.800  12.307 -0.0381  0.0228 -0.0689
29596W        W45213   5.907  10.467   0.080 -0.1938  0.0109  0.1748
29597W        W45214   1.692  15.910  10.631  0.1326 -0.3327  0.1341
29598W        W45215  18.223  13.199  11.745  0.2467  0.1278  0.0022
29599W        W45216  16.949   3.304   1.563  0.1333  0.0795  0.1005
29600W        W45217   7.614   3.239  11.636 -0.1878  0.2173 -0.1548
29601W        W45218   3.439  11.873   3.932  0.0267  0.4018 -0.1666
29602W        W45219  10.052  17.805  12.780 -0.0601 -0.1853  0.2258
29603W        W45220   0.692  17.195   0.305  0.1044  0.2530  0.0960
29604W        W45221   9.425   9.639   2.256  0.1006 -0.1947 -0.0042
29605W        W45222  13.264   1.313   1.378  0.3517 -0.0114 -0.3220
29606W        W45223  14.743   6.838  14.154  0.0166  0.0724 -0.0623
29607W        W45224   9.144  15.674   5.126  0.1606 -0.5733  0.2685
29608W        W45225  10.801   0.043  13.600  0.1096 -0.3470  0.1497
29609W        W45226   6.533  12.581   0.219 -0.1093  0.0237  0.1804
29610W        W45227   1.741   6.088   1.478 -0.1854  0.2187  0.1088
29611W        W45228   5.908   2.883   3.381 -0.0733 -0.3264  0.0621
29612W        W45229  10.166  11.576  11.048 -0.1798 -0.0342 -0.0289
29613W        W45230   7.803   9.644   0.925  0.0456  0.0748  0.0339
29614W        W45231   5.591   7.827   4.939 -0.1613 -0.0683 -0.1913
29615W        W45232   2.134  13.620  12.578 -0.0111  0.1232  0.1820
29616W        W45233   4.312   2.879   3.044  0.2714 -0.0271 -0.3021
29617W        W45234   3.882  13.253   5.296  0.0322 -0.2250  0.1052
29618W        W45235  17.403   7.216  14.752  0.1200  0.1206 -0.1460
29619W        W45236  12.367   4.051   3.858 -0.1463  0.0471 -0.1362
29620W        W45237   7.021   1.834  12.135 -0.2184 -0.0463  0.2766
29621W        W45238   9.922   1.666   6.255  0.2868  0.0811  0.6231
29622W        W45239  14.100   6.297   5.505  0.3340 -0.2634  0.0137
29623W        W45240   5.572  15.736  15.422 -0.3469 -0.1800 -0.0784
29624W        W45241  11.389  12.844  12.326  0.3255  0.2409 -0.1079
29625W        W45242  11.775   7.544   0.755 -0.2032 -0.0965  0.0997
29626W        W45243   8.325  16.903   0.650  0.2084  0.0422 -0.0542
29627W        W45244   5.956  14.692   2.814 -0.0321 -0.0813 -0.1253
29628W        W45245   7.167   8.939  10.925  0.0099 -0.3915 -0.1055
29629W        W45246   4.233   5.944  13.235 -0.0237  0.1228 -0.3107
29630W        W45247   2.456  15.575  10.712 -0.5985 -0.0300  0.1084
29631W        W45248   4.449   9.893   2.138  0.1523 -0.0078  0.1929
29632W        W45249   8.155   4.810  12.144 -0.1282 -0.0121  0.2252
29633W        W45250   7.182   4.008  14.447 -0.0142 -0.0075 -0.0189
29634W        W45251   6.484  14.910   0.184  0.0349 -0.0079 -0.0095
29635W        W45252   3.074   6.671  12.501  0.0203 -0.0465 -0.0738
29636W        W45253   8.416   5.782   1.616 -0.1975  0.0159  0.3462
29637W        W45254  10.219  17.356  11.418  0.1701 -0.0229  0.2908
29638W        W45255   8.681  16.783  14.195  0.1179  0.0157 -0.1023
29639W        W45256  10.684  11.649   2.029 -0.2618  0.1830 -0.2426
29640W        W45257   1.765   3.625  12.158 -0.0671 -0.0364 -0.1091
29641W        W45258   3.295   0.488  12.201  0.0245 -0.0733  0.3214
29642W        W45259  10.346   3.242   1.036 -0.1687 -0.1488 -0.2332
29643W        W45260   3.339  10.866  15.702 -0.0365 -0.1676 -0.1702
29644W        W45261  12.072  18.093  13.447  0.0635  0.0884 -0.2160
29645W        W45262  10.706  14.651  14.999 -0.2094  0.2710  0.1919
29646W        W45263  11.622   1.363   5.291  0.1110  0.1823 -0.0513
29647W        W45264   7.833   2.238  11.821  0.1685  0.1404 -0.1099
29648W        W45265   7.926  17.155  13.684  0.3189 -0.0448 -0.2026
29649W        W45266   1.590  14.842   2.863  0.3444  0.2548 -0.0418
29650W        W45267   2.467  15.436  12.498 -0.0047 -0.1522  0.0295
29651W        W45268   3.534  10.358  10.753  0.2800  0.2803 -0.0525
29652W        W45269  17.672  12.468   2.397  0.0906 -0.4027  0.0147
29653W        W45270  11.351  10.482   0.142 -0.2525  0.1283 -0.3588
29654W        W45271   7.135   6.876   1.618  0.0396 -0.1112  0.0808
29655W        W45272   6.835  16.806  13.356  0.1164 -0.0336 -0.0459
29656W        W45273   5.349   4.523   0.932 -0.2398  0.2314  0.1207
29657W        W45274  17.032   0.589  14.616 -0.1990  0.0113  0.2013
29658W        W45275   9.715   7.536  12.092  0.4698 -0.1722  0.1300
29659W        W45276  18.510   2.750   4.829  0.0411  0.0813 -0.3928
29660W        W45277  10.361   9.372   3.348 -0.0304  0.2814 -0.2542
29661W        W45278   3.197  10.719   4.420  0.1464 -0.1927 -0.0386
29662W        W45279  14.255  10.340   2.459 -0.1325  0.0720 -0.2352
29663W        W45280   0.356   4.554  11.940  0.0192  0.2489 -0.0855
29664W        W45281  13.376  16.032  11.047  0.1455 -0.0831 -0.2729
29665W        W45282   6.650   7.321   2.407 -0.1526 -0.0762  0.1047
29666W        W45283  18.167  10.621   3.725  0.1349  0.0483 -0.0572
29667W        W45284   5.115  13.287  12.053  0.1783 -0.0790 -0.1686
29668W        W45285   9.603   9.630  10.508  0.2062 -0.2449  0.0988
29669W        W45286  14.636  14.235   0.697  0.0591 -0.2581 -0.1593
29670W        W45287  10.876  14.265   3.529  0.0719  0.0230  0.2785
29671W        W45288  11.370   0.549   0.492  0.1172  0.3345  0.3829
29672W        W45289   5.059   9.038  11.311  0.2910 -0.2267 -0.0833
29673W        W45290   9.931   6.941  10.384 -0.2580  0.3411  0.2867
29674W        W45291   4.199   3.757   5.020 -0.2015  0.1804 -0.2735
29675W        W45292  14.526   6.343  10.998 -0.2414  0.1055 -0.3527
29676W        W45293  14.486   3.487  15.092 -0.0117 -0.0555 -0.0150
29677W        W45294   7.280   2.696  15.181  0.1020  0.4593  0.1784
29678W        W45295  12.733   7.386   0.599 -0.2175 -0.0318  0.1061
29679W        W45296   9.878  10.419   4.602  0.3434  0.0306  0.0816
29680W        W45297   0.981   1.092   0.112 -0.0809  0.3360  0.1828
29681W        W45298  12.676  14.152   2.867 -0.1120 -0.1958  0.0314
29682W        W45299  11.732   6.334  12.007 -0.1038 -0.2780  0.1999
29683W        W45300   7.340  17.391   4.390 -0.0411  0.0111 -0.2278
29684W        W45301  10.764  17.055  12.168 -0.1759  0.2604 -0.1294
29685W        W45302  15.508  15.700  13.297  0.0658 -0.0176 -0.3034
29686W        W45303  17.168  11.977  15.636 -0.0041  0.0982 -0.0526
29687W        W45304   4.750  12.984  11.365  0.0705  0.2316  0.1043
29688W        W45305  14.627   2.359   0.394  0.0223  0.3591 -0.4281
29689W        W45306  15.209  17.161   4.755  0.0300  0.1247  0.0210
29690W        W45307  18.228   1.882   4.397 -0.0459 -0.0818 -0.0542
29691W        W45308   8.057  11.968  11.494  0.5747 -0.1164  0.0680
29692W        W45309  13.913  14.502   2.889 -0.0346  0.0177  0.1501
29693W        W45310  18.523   9.321   4.816 -0.1074 -0.0224 -0.0249
29694W        W45311  14.016   3.442  11.206  0.1087 -0.1194  0.0823
29695W        W45312  10.172  15.997  13.089  0.1738 -0.1457  0.0415
29696W        W45313  13.163   5.206   4.006  0.0238  0.0277  0.4118
29697W        W45314  18.149  12.054  13.240  0.0461 -0.0105 -0.3037
29698W        W45315   1.634  13.131  10.829  0.1581  0.0785 -0.1643
29699W        W45316   6.556  14.431  13.308  0.5296  0.0795 -0.1241
29700W        W45317   1.224  11.631   4.770  0.0131 -0.2376 -0.1922
29701W        W45318   7.634  16.406  10.760  0.4743  0.1283 -0.1187
29702W        W45319  12.273  12.523  11.766 -0.0659 -0.1041  0.1886
29703W        W45320   9.420   9.003   4.221  0.1677 -0.0466 -0.0484
29704W        W45321  11.573   4.675   4.328 -0.0015 -0.0800  0.0077
29705W        W45322  11.182  11.255   2.276  0.0247  0.1051 -0.1089
29706W        W45323  12.887  13.011  14.477 -0.0920 -0.0225 -0.1942
29707W        W45324   3.661  11.403   2.136  0.2370 -0.0983 -0.1037
29708W        W45325   3.309   4.295   1.969  0.0038  0.2797  0.1607
29709W        W45326   6.346   1.946   4.672 -0.0021  0.4678 -0.3006
29710W        W45327   6.290   6.679   5.249 -0.0144 -0.1711  0.0100
29711W        W45328   6.712   0.081  13.980 -0.0621  0.1099 -0.3732
29712W        W45329   1.923  15.547   1.806  0.0475  0.1453 -0.0343
29713W        W45330  12.746  11.233  10.718  0.3227  0.1264  0.1187
29714W        W45331  10.979   3.785   2.027  0.2363  0.0185  0.0183
29715W        W45332  12.297   4.959   3.771 -0.3068 -0.1850 -0.0897
29716W        W45333  13.505   3.346  11.100 -0.0673  0.3520 -0.1165
29717W        W45334  10.074  17.522   3.276 -0.3787 -0.0803  0.1251
29718W        W45335   2.424   9.165   1.885  0.0087  0.0460  0.1529
29719W        W45336  18.589   0.850  14.848  0.1478 -0.4030 -0.4108
29720W        W45337   9.344  12.986   2.671  0.3050 -0.0185 -0.0584
29721W        W45338  13.476  13.512   5.286  0.1297  0.2941 -0.1869
29722W        W45339  17.465  13.427   0.720  0.1538  0.2251 -0.0775
29723W        W45340  14.491   7.682  14.970 -0.1481 -0.0249 -0.2147
29724W        W45341  10.332  14.383   3.602 -0.0683  0.1355 -0.1260
29725W        W45342   2.737  13.184   1.807  0.1342 -0.1114 -0.2159
29726W        W45343   5.903  13.088  14.770 -0.1263 -0.0103  0.0706
29727W        W45344   9.656  12.310  15.792 -0.1950  0.2373  0.2452
29728W        W45345   0.865   3.755   2.817 -0.1686  0.3057  0.2126
29729W        W45346   6.570  14.813   1.620  0.1818 -0.2125 -0.1081
29730W        W45347  18.176   6.377   2.223  0.1393  0.3022 -0.1615
29731W        W45348  16.206   1.977  11.793  0.3065  0.0653  0.1948
29732W        W45349  15.658   8.454  11.317  0.0021 -0.0006  0.0909
29733W        W45350   4.368  11.902  12.982 -0.1444  0.1598  0.1901
29734W        W45351  12.544   9.312   2.221 -0.1902 -0.0148  0.3198
29735W        W45352  11.453   1.802   5.446 -0.1166 -0.0216 -0.0216
29736W        W45353   5.552   1.515  15.020 -0.2632 -0.0263 -0.1058
29737W        W45354  18.274   2.039   5.449 -0.1385  0.2859  0.2599
29738W        W45355   8.037   8.854  14.915  0.0832  0.0437 -0.0559
29739W        W45356   1.060  15.559  11.406  0.0706 -0.1668  0.1272
29740W        W45357   2.045   0.978   1.723 -0.2535 -0.2442 -0.0758
29741W        W45358  13.752  10.380  13.631 -0.1865 -0.0195 -0.1889
29742W        W45359  16.156   5.558  15.415 -0.2482  0.1008  0.0915
29743W        W45360  18.554   0.063   4.250  0.1109  0.2368  0.0387
29744W        W45361  18.474  18.630   2.007 -0.2816  0.1210  0.1250
29745W        W45362  18.647   0.387  10.981  0.0599  0.2405 -0.1855
29746W        W45363   6.468  14.798   2.591  0.3453  0.0665  0.2400
29747W        W45364   0.855  12.448  11.787  0.0504  0.2330 -0.2039
29748W        W45365   3.160  11.947  13.565 -0.3203  0.0038  0.0202
29749W        W45366   8.383  12.361   2.142 -0.4054  0.2496 -0.1402
29750W        W45367  10.646  14.712   3.442  0.1249  0.3790  0.1458
29751W        W45368  11.206  16.018   4.945 -0.4378 -0.1457  0.1976
29752W        W45369   4.082  17.459  12.304 -0.5246 -0.1327 -0.0674
29753W        W45370  18.328   5.959   9.713  0.1340 -0.1127  0.1036
29754W        W45371  14.901  12.601   2.477 -0.1586 -0.2493  0.2527
29755W        W45372   4.015   2.562  14.928 -0.3151  0.3920 -0.1863
29756W        W45373   4.790   3.310  13.342  0.1294 -0.0578 -0.0269
29757W        W45374   9.222   6.441   3.979 -0.1861  0.2949  0.1245
29758W        W45375   8.247   3.446   5.905 -0.0400  0.0933 -0.0008
29759W        W45376   2.983  10.102   0.318  0.1775 -0.2768  0.1631
29760W        W45377   6.713   6.183   5.664  0.1393 -0.2273 -0.0063
29761W        W45378   7.890  16.976   3.224 -0.1113 -0.0851 -0.2137
29762W        W45379  11.036   6.564   3.404  0.0128  0.0829  0.2282
29763W        W45380  10.688  12.936  12.820 -0.0390 -0.1858  0.3407
29764W        W45381  18.314   8.279   0.142  0.1912  0.0894 -0.0120
29765W        W45382  15.186   7.974  13.023 -0.3066  0.0974 -0.0993
29766W        W45383   5.394   6.372  11.332 -0.0461 -0.0303  0.3846
29767W        W45384   6.916  11.895  10.853  0.1085 -0.2379  0.0373
29768W        W45385  11.610   0.814   1.329 -0.1607  0.3891 -0.2353
29769W        W45386  16.327  11.985   1.586 -0.1284  0.0922 -0.1040
29770W        W45387   6.397   4.410   1.850  0.1629 -0.1641  0.2058
29771W        W45388   4.347   1.902   3.645 -0.0062  0.2685  0.0710
29772W        W45389  11.655   1.513  13.590  0.0853 -0.1601 -0.0106
29773W        W45390   2.027   9.071   4.713  0.2601 -0.1558 -0.1323
29774W        W45391  11.273  13.424  15.697 -0.0629  0.1718 -0.3625
29775W        W45392   5.738  14.339  13.840  0.3374  0.0867 -0.1877
29776W        W45393  14.525  11.605  12.813  0.1595  0.1472  0.0642
29777W        W45394  12.513   3.236   1.686 -0.3030  0.0688  0.1031
29778W        W45395  18.026   4.971  13.797  0.0466 -0.1250 -0.1315
29779W        W45396   0.230   4.422  11.470 -0.0189 -0.0944  0.3475
29780W        W45397   7.976   0.299  14.989  0.1418 -0.1457  0.3080
29781W        W45398  15.144  11.461  15.477 -0.1097  0.2073  0.0978
29782W        W45399   6.794   1.993  11.710 -0.1396  0.2058  0.0360
29783W        W45400  11.914   7.682   0.249 -0.0873 -0.3307 -0.2387
29784W        W45401  15.061  16.169   3.066 -0.0078 -0.0759 -0.3282
29785W        W45402  14.719   8.518   9.708  0.0180  0.1428 -0.0883
29786W        W45403   0.353   0.582  14.614  0.1663 -0.0199 -0.3673
29787W        W45404  12.436  13.929  13.137  0.0219  0.0526  0.0136
29788W        W45405   4.575   8.475   2.586  0.0800  0.1380 -0.1364
29789W        W45406  16.599   0.642   4.291 -0.0058 -0.2348 -0.0844
29790W        W45407   1.334   2.142   4.887 -0.2027 -0.0886 -0.0355
29791W        W45408   4.884   4.098   2.523  0.0803  0.0361 -0.2223
29792W        W45409   5.974   3.839  11.660  0.0068  0.2243  0.2463
29793W        W45410   1.775  14.073  10.919 -0.0671  0.0904  0.0607
29794W        W45411   5.373   5.874   0.522  0.1243  0.2643 -0.0818
29795W        W45412   7.616  15.728  14.727  0.1379  0.2222 -0.0108
29796W        W45413   7.864  18.037  11.806  0.2858  0.2340  0.2426
29797W        W45414   9.274  12.390   4.270  0.0282 -0.0858 -0.1641
29798W        W45415   2.980  12.219  11.792 -0.1280  0.0963 -0.0666
29799W        W45416   3.519  15.601  14.595  0.2424  0.1929 -0.1114
29800W        W45417   3.434   3.819  10.748 -0.0429 -0.1184 -0.0926
29801W        W45418   3.637  10.932  12.624  0.1016 -0.2023 -0.2523
29802W        W45419  16.876   1.128   1.138  0.0972 -0.1411  0.1434
29803W        W45420   1.321  11.968   5.185  0.0205  0.1744  0.0080
29804W        W45421  15.746  11.412   3.116 -0.2444  0.1254  0.0754
29805W        W45422   4.437   4.357   3.534 -0.0144 -0.1317 -0.2652
29806W        W45423  17.014  10.744  11.866 -0.3240  0.0342  0.0160
29807W        W45424  11.975  10.714   0.340  0.4148 -0.0075  0.0153
29808W        W45425   3.649  11.236   3.999  0.2146 -0.0803 -0.5235
29809W        W45426   8.003  16.947   2.444  0.2977 -0.0501 -0.0197
29810W        W45427   6.199   1.207   0.790  0.0594 -0.0987  0.0260
29811W        W45428  15.664   1.653   4.336 -0.0791  0.3479 -0.0845
29812W        W45429  16.541   8.156  11.010  0.0341 -0.0160  0.0371
29813W        W45430   4.878   4.201  13.088  0.0159  0.0450  0.0637
29814W        W45431  17.038   6.303  14.126  0.2710  0.0420  0.1401
29815W        W45432   1.662  16.262  12.449 -0.2394 -0.0144 -0.0057
29816W        W45433   8.734  10.937  15.250  0.1219 -0.1558  0.0495
29817W        W45434   4.523   2.858  10.575  0.1895  0.1188  0.0946
29818W        W45435  17.646  12.079   0.154  0.0680  0.0816  0.0649
29819W        W45436  16.695   8.338  13.510  0.4040 -0.0300  0.3142
29820W        W45437   9.376   6.443   0.943  0.1225  0.1803 -0.2743
29821W        W45438  18.298   0.857   4.634 -0.1597  0.0514  0.1546
29822W        W45439   7.175   3.099   4.772 -0.0655 -0.0021  0.1388
29823W        W45440  17.825   3.527  14.422  0.0265  0.1302 -0.0008
29824W        W45441   5.276  16.175  15.443  0.0080 -0.1086  0.2180
29825W        W45442  12.259   3.607  13.773  0.3948 -0.5360 -0.0163
29826W        W45443  12.948   4.534  14.480  0.0330  0.1563 -0.1557
29827W        W45444   0.718   7.312  15.324  0.2840 -0.1299  0.0773
29828W        W45445   1.254  14.726  13.350  0.2600  0.2330 -0.0300
29829W        W45446   0.534   2.811   6.177 -0.3766  0.1295  0.1762
29830W        W45447   5.917  16.121  10.240 -0.0997 -0.3906 -0.0492
29831W        W45448  11.242  16.131  15.693  0.1238  0.1854 -0.0598
29832W        W45449   8.072  16.644  13.519  0.0265  0.1615  0.0349
29833W        W45450  10.142   9.115  13.877  0.1477 -0.1933  0.1224
29834W        W45451   8.878   8.568   4.001  0.0964  0.2148  0.1918
29835W        W45452   5.445   8.959  15.764 -0.1555 -0.3342  0.0639
29836W        W45453   2.767   4.414   4.100  0.1220 -0.1058 -0.3235
29837W        W45454   7.353   8.886   2.105 -0.0475  0.1137 -0.2200
29838W        W45455  12.829   3.513   1.264 -0.0291 -0.0393 -0.0649
29839W        W45456  16.320   7.777  10.747 -0.2671  0.2257  0.0747
29840W        W45457   1.066   1.352  11.232  0.2570 -0.1268 -0.2102
29841W        W45458  14.372   1.999  11.437  0.3323 -0.0781 -0.1072
29842W        W45459  11.019   7.276  14.545  0.0105 -0.2565 -0.1347
29843W        W45460  11.333  15.916   2.267  0.1667  0.1523 -0.1762
29844W        W45461  17.803  16.522  11.663 -0.2325  0.0092  0.1083
29845W        W45462  17.346   9.802  13.499  0.1763  0.0038 -0.0908
29846W        W45463  11.254  12.641   3.764 -0.3762 -0.1006 -0.0312
29847W        W45464  17.270  16.544   4.454  0.1046  0.2455  0.3158
29848W        W45465   3.673   8.549  10.934 -0.2308 -0.2044 -0.3386
29849W        W45466   2.732   7.155   5.106 -0.2407 -0.0628 -0.0662
29850W        W45467   8.542   2.635  12.648  0.1094  0.0049  0.0194
29851W        W45468   7.762  11.534   3.540 -0.0291 -0.0243  0.1124
29852W        W45469   1.946  16.517   4.356  0.0859  0.1829 -0.2022
29853W        W45470  13.567  15.141   1.823  0.1117  0.2611  0.2161
29854W        W45471  18.360   2.787  12.418  0.2799  0.3520 -0.0884
29855W        W45472   3.853   4.396  12.917 -0.1879  0.0757  0.0754
29856W        W45473   7.918   0.933   4.529 -0.0765 -0.1658 -0.1069
29857W        W45474   9.974   2.529   4.693  0.1615 -0.1628 -0.1127
29858W        W45475   8.338  16.587  15.552  0.1581 -0.0383 -0.0071
29859W        W45476   0.058   9.008  13.393  0.0626  0.1092 -0.0187
29860W        W45477  13.542  15.348  15.046 -0.3285 -0.1654 -0.1548
29861W        W45478   6.518  15.540   4.671 -0.4667  0.0650 -0.0880
29862W        W45479  12.343  12.554   5.663  0.2302  0.0579 -0.0025
29863W        W45480  15.005  17.109   2.922 -0.1754  0.2429  0.0143
29864W        W45481  10.732   9.049   4.924  0.0794 -0.2178 -0.2405
29865W        W45482   0.477   5.725   3.888 -0.2101 -0.0685 -0.0912
29866W        W45483   9.113   3.623   6.123 -0.0927  0.1405  0.1727
29867W        W45484  16.405  10.154   9.792  0.0639 -0.1001  0.1163
29868W        W45485  14.079   5.085  15.754 -0.1111 -0.2140  0.0453
29869W        W45486   7.803   8.602  14.612 -0.0293 -0.0571  0.0690
29870W        W45487   2.583   3.471  12.834 -0.0909 -0.1191 -0.0063
29871W        W45488   9.408   3.151   0.721  0.0408  0.2159 -0.1184
29872W        W45489   0.689  10.366   3.263 -0.0844 -0.4200  0.0601
29873W        W45490  16.021  17.384   5.180 -0.1206 -0.0746  0.1537
29874W        W45491  15.517   3.365  14.814  0.1972  0.0419 -0.0783
29875W        W45492  18.112   9.449  12.558 -0.1297  0.0654  0.0227
29876W        W45493   8.546   9.651  12.168 -0.2138  0.1073 -0.2155
29877W        W45494  17.249   0.974  14.827  0.1445 -0.0127  0.0596
29878W        W45495   4.763  14.661  11.998  0.2343  0.0222 -0.0723
29879W        W45496   5.564   1.679   2.098  0.2031 -0.0094  0.1304
29880W        W45497   1.814   4.118  15.301  0.1343 -0.0470  0.1949
29881W        W45498   2.320  12.037  10.821 -0.3823 -0.1980  0.0940
29882W        W45499   7.215   1.924   3.555  0.1440 -0.1434 -0.0779
29883W        W45500   6.457  10.018   1.869 -0.0255  0.0733  0.1215
29884W        W45501   4.089   4.121  15.044  0.0487  0.3153  0.1916
29885W        W45502   1.297  17.339  12.401  0.1112 -0.2446  0.2093
29886W        W45503   6.475  15.358  13.574  0.4636 -0.0737  0.1091
29887W        W45504   9.417   9.776   1.168  0.0906  0.1604 -0.1114
29888W        W45505  12.679  14.167   4.533  0.0603  0.0674  0.0254
29889W        W45506   0.997  14.471  14.276 -0.0070 -0.2110  0.1016
29890W        W45507  10.942   8.490  11.232  0.0603 -0.0304 -0.2319
29891W        W45508  17.086  13.543   0.099 -0.3251  0.0245  0.1541
29892W        W45509  16.356  12.111  10.678 -0.0686  0.1344 -0.3062
29893W        W45510  15.677   1.231   2.831  0.0183  0.0769 -0.1132
29894W        W45511  15.887   1.743  14.385  0.0904 -0.0491 -0.0140
29895W        W45512  11.214   0.156   3.998  0.0262  0.0269  0.2551
29896W        W45513   2.159   6.827  10.819  0.1485  0.0901 -0.2924
29897W        W45514  16.061   7.582   1.425 -0.3123 -0.1041  0.1099
29898W        W45515  14.225  11.326   2.068 -0.1951  0.0350  0.0388
29899W        W45516  18.127   6.453  10.962 -0.2158 -0.0014  0.0506
29900W        W45517  16.078  15.602   2.299  0.0118  0.0018  0.2368
29901W        W45518   9.986   7.495  12.580 -0.1790 -0.0514  0.0276
29902W        W45519  13.678   1.368  13.966 -0.1594  0.0754 -0.1343
29903W        W45520   0.440  13.555   3.865 -0.2150  0.2269 -0.2059
29904W        W45521  16.462   5.521  11.377  0.3748  0.1749 -0.0777
29905W        W45522   6.025   8.862   0.448 -0.0176  0.3265  0.1445
29906W        W45523  15.956  17.174  11.275 -0.0067  0.2556 -0.2910
29907W        W45524  12.965   1.654   3.394 -0.3004 -0.0199  0.1768
29908W        W45525  12.106  17.290  11.808 -0.1036  0.0603 -0.1294
29909W        W45526   2.761   5.624   0.403  0.1235 -0.0695 -0.0143
29910W        W45527  10.210   9.706   5.310 -0.1297  0.0262 -0.3448
29911W        W45528  10.365   6.252  12.328  0.0259 -0.0191 -0.0756
29912W        W45529   9.050  15.253  12.984  0.0908 -0.3649 -0.4564
29913W        W45530   5.462  12.869  15.006 -0.0571 -0.0461  0.1061
29914W        W45531  17.126  17.175   2.710 -0.2874 -0.0353 -0.0728
29915W        W45532   3.421   1.648  12.713  0.0536  0.1866  0.1455
29916W        W45533   9.937  11.124   3.270 -0.2718 -0.1025  0.3053
29917W        W45534  13.215  15.566   2.234  0.0626 -0.2518 -0.0487
29918W        W45535  14.471  11.742  11.752 -0.5460  0.2788  0.0959
29919W        W45536   7.045  17.220  15.548  0.2062  0.1386 -0.0867
29920W        W45537  18.527  18.133  11.858 -0.1705 -0.2539  0.0632
29921W        W45538  16.688   2.093  14.363  0.0334 -0.1449 -0.1160
29922W        W45539   7.769   4.482  15.701 -0.2522 -0.1471 -0.1974
29923W        W45540  10.962   0.942   5.014 -0.0585 -0.1806  0.2921
29924W        W45541   5.286  10.459   9.980  0.1235 -0.0153 -0.0047
29925W        W45542  11.701  16.403  11.100  0.5021 -0.4140 -0.3674
29926W        W45543  13.752  12.548  10.871 -0.1821  0.0750 -0.1548
29927W        W45544  10.431  16.576   0.792 -0.2730  0.0477 -0.0189
29928W        W45545   8.302   2.034   0.333  0.2149  0.2054 -0.1856
29929W        W45546  15.560   2.133  12.642  0.2601 -0.2553  0.2231
29930W        W45547  10.389  18.359  15.233  0.1365 -0.0583  0.2576
29931W        W45548   2.383  13.820   1.535 -0.1212  0.0783  0.0714
29932W        W45549  15.000  12.647   3.084 -0.1186  0.0530  0.2200
29933W        W45550   9.868   4.501   2.819 -0.3791 -0.1745 -0.3102
29934W        W45551   7.152   7.327  15.531 -0.1362 -0.0428 -0.0677
29935W        W45552   2.041  15.823  15.281  0.0011  0.1574  0.0389
29936W        W45553   3.875  14.031   3.566  0.0731 -0.1551 -0.0853
29937W        W45554   0.029  11.701   5.719  0.1397 -0.1648 -0.7218
29938W        W45555   3.476   7.031  12.432  0.1323 -0.0026  0.2015
29939W        W45556   0.115  14.382  15.535 -0.1285  0.2531  0.1603
29940W        W45557  15.783   5.895  13.828 -0.3138 -0.2340  0.2594
29941W        W45558  16.886  17.838  13.276 -0.1109 -0.2249 -0.1978
29942W        W45559   0.452  11.502  12.519  0.1797  0.0451  0.1091
29943W        W45560  12.158   4.658   1.630 -0.0944 -0.0776 -0.3174
29944W        W45561   0.507  14.629  14.430 -0.2310 -0.0224  0.0944
29945W        W45562  14.653  10.169   5.426 -0.1413 -0.2215  0.1410
29946W        W45563   0.116  13.116   2.745 -0.3513  0.5032  0.0721
29947W        W45564  11.121   3.260   4.561  0.2492  0.1886  0.2749
29948W        W45565  12.691  16.350   3.505 -0.0764 -0.2944  0.0228
29949W        W45566   8.302   1.388  10.889  0.0409  0.0594 -0.1508
29950W        W45567   6.584   5.957   4.381 -0.0318  0.2856  0.1698
29951W        W45568   6.895  18.021   4.366 -0.0913 -0.0945  0.0958
29952W        W45569  15.448   1.050  12.916 -0.0591 -0.0233 -0.1448
29953W        W45570   7.507  17.037  15.438 -0.0706 -0.1129  0.0634
29954W        W45571  17.412  10.700  13.335  0.3386 -0.5764 -0.1628
29955W        W45572  12.763  16.066   4.893  0.0253 -0.4782  0.2350
29956W        W45573   0.413   8.968   0.949  0.1198 -0.3680  0.0751
29957W        W45574   7.431   1.880   1.909 -0.0624  0.0365 -0.3329
29958W        W45575   7.183  14.067   0.168 -0.0359  0.0113 -0.3530
29959W        W45576  18.474   5.458   2.627  0.0770 -0.1706  0.0611
29960W        W45577  14.699  15.186   4.758 -0.0221  0.2632 -0.1523
29961W        W45578  14.241   9.641   0.837 -0.2033  0.0746 -0.0057
29962W        W45579  14.683  11.081  12.905  0.1688  0.2897 -0.0405
29963W        W45580   5.965   1.684  11.866  0.3518  0.3391  0.4190
29964W        W45581  16.588   1.765  15.250  0.0941  0.0040  0.2186
29965W        W45582  15.504   7.834   5.399  0.3198 -0.0853  0.2028
29966W        W45583  12.190   2.136   5.836 -0.0679  0.5455 -0.1925
29967W        W45584  10.768   3.914  14.128 -0.2361  0.0774 -0.1249
29968W        W45585   0.610  16.307  11.782 -0.0913 -0.1515 -0.0467
29969W        W45586   9.245  15.857  14.197  0.0583  0.1509  0.0833
29970W        W45587   5.921  10.568   2.995 -0.2189  0.1285  0.1811
29971W        W45588  12.851   5.688  15.537 -0.0517 -0.0718  0.0590
29972W        W45589  12.530  17.441  14.479 -0.0288  0.1708  0.0312
29973W        W45590   8.872  17.091   3.582  0.3290 -0.0379 -0.0446
29974W        W45591  13.257  12.960  12.947  0.0222 -0.4181  0.2223
29975W        W45592   3.605   4.080   2.333  0.2090 -0.2824 -0.1265
29976W        W45593  11.159  13.553  11.500 -0.0034 -0.0720 -0.4291
29977W        W45594   5.499   3.613  14.036  0.1494  0.3539  0.1273
29978W        W45595  13.845  15.135   1.423 -0.1552  0.2655  0.2445
29979W        W45596   5.304  17.253   2.392  0.0124  0.2505 -0.2819
29980W        W45597  12.464   1.081  15.556 -0.1130  0.0572 -0.0127
29981W        W45598   1.427  15.839   2.702  0.0557  0.1197 -0.1259
29982W        W45599  15.596   1.425   2.369 -0.0966  0.0015  0.2197
29983W        W45600   8.130   6.086  14.559 -0.1705  0.0464 -0.1979
29984W        W45601   6.383  18.431  12.627 -0.0104  0.1591  0.2808
29985W        W45602   4.665   3.857   3.403  0.1749  0.2262 -0.0000
29986W        W45603  16.975   0.312   1.001 -0.2864 -0.0482  0.1456
29987W        W45604   3.993  17.385   2.593  0.0864 -0.1838 -0.1082
29988W        W45605  12.043   7.427   5.100  0.1915 -0.3104  0.0578
29989W        W45606   9.719  12.028   2.017  0.0308 -0.3668 -0.0657
29990W        W45607  18.415   3.874   0.894  0.1773 -0.1004  0.0732
29991W        W45608  13.904  14.480  12.042  0.0661 -0.4888 -0.0432
29992W        W45609   9.555  12.518   2.538  0.2575 -0.1876 -0.0447
29993W        W45610  18.277  12.779  12.049 -0.0895 -0.0901 -0.0041
29994W        W45611   5.487  18.052   0.262  0.2505  0.0477 -0.2175
29995W        W45612   3.015  17.926   4.438  0.4378 -0.6434  0.4376
29996W        W45613   3.720  10.002   4.892  0.2071  0.1172 -0.3061
29997W        W45614   4.120  15.476  15.000  0.2330 -0.1106  0.0479
29998W        W45615   6.312   9.680  13.835 -0.1483 -0.1287  0.1626
29999W        W45616   3.037   4.259   0.149  0.0930 -0.0149 -0.1235
30000W        W45617  15.337   8.480   4.361  0.0201  0.0459 -0.0784
30001W        W45618  17.655   8.869  11.637  0.1170 -0.1338 -0.0079
30002W        W45619   6.822   4.306  15.054  0.1691  0.4281  0.1491
30003W        W45620  14.423   1.142   2.121  0.1829  0.0091 -0.1043
30004W        W45621   2.579  11.431  10.239  0.2141 -0.1762  0.2410
30005W        W45622   9.759   7.007   4.398 -0.0456 -0.2351 -0.0198
30006W        W45623   2.183   3.512   5.754 -0.2014 -0.0161 -0.1073
30007W        W45624  11.547  15.482   0.160  0.0600 -0.1889 -0.3649
30008W        W45625   0.322   3.844  15.795  0.3199  0.1586  0.0118
30009W        W45626   0.014  10.041   1.748 -0.0506 -0.3131 -0.1619
30010W        W45627   1.960   9.343  14.761  0.0894  0.3125  0.1026
30011W        W45628  14.240  15.542   4.787  0.0416  0.0023 -0.0544
30012W        W45629  18.457   4.674  11.375 -0.1380  0.0939  0.2281
30013W        W45630  13.493  15.307   1.003  0.0597  0.2421 -0.1871
30014W        W45631   6.845   0.033  14.488  0.3046  0.0748  0.0157
30015W        W45632   6.609  12.027  12.289  0.2308 -0.2118  0.0169
30016W        W45633   6.708  11.386   3.903  0.3954 -0.3917 -0.3855
30017W        W45634  14.765  15.280   0.654 -0.0268  0.2643  0.2266
30018W        W45635   6.458   3.861   5.530  0.0253 -0.0724  0.0199
30019W        W45636   3.415   0.064  13.268  0.1495 -0.1864 -0.0520
30020W        W45637  11.042  13.028  13.770  0.0197 -0.2188  0.2551
30021W        W45638   3.647  16.204   5.565  0.0142 -0.1459 -0.1328
30022W        W45639   5.575  17.682   4.342 -0.1079 -0.1765  0.1810
30023W        W45640  11.385  13.027  14.920  0.1050  0.0434  0.1179
30024W        W45641  12.194  12.288   3.769 -0.1888 -0.1188 -0.0163
30025W        W45642   1.605  17.170  15.790  0.0819 -0.1101  0.1666
30026W        W45643  10.567   0.821  12.356  0.0525  0.1204 -0.1238
30027W        W45644   5.319  17.305   4.456  0.3255 -0.0771 -0.3239
30028W        W45645   5.474  14.994  10.780  0.1712  0.0225 -0.0285
30029W        W45646  17.271   8.505   0.776 -0.2256  0.2740  0.2768
30030W        W45647  13.266   2.686  11.572  0.1069 -0.0469 -0.2482
30031W        W45648  18.226   2.934   4.375  0.0217  0.1783 -0.2113
30032W        W45649  14.027  13.124  13.603  0.1950  0.1026 -0.1261
30033W        W45650  11.366   5.522   1.624  0.2261 -0.0340 -0.0497
30034W        W45651  16.714  14.996   3.074 -0.0193  0.1318  0.0309
30035W        W45652   8.765   6.154  12.936 -0.0331 -0.1086  0.0877
30036W        W45653   5.119  17.010  11.012  0.0303 -0.0374 -0.0757
30037W        W45654  16.428  17.488  12.560  0.0991 -0.0709  0.1401
30038W        W45655   9.029   9.928   1.486  0.1398 -0.5482 -0.2006
30039W        W45656  15.266   5.828   3.598 -0.1482  0.2527  0.1162
30040W        W45657   2.577   4.077   0.196  0.1356  0.2293  0.0267
30041W        W45658  14.881  13.071  14.344  0.3457  0.0099  0.1447
30042W        W45659   2.007   9.383  12.976 -0.1063 -0.1833  0.1149
30043W        W45660   6.507  17.950   1.969  0.1668  0.0001  0.0253
30044W        W45661   6.102   5.036   4.015  0.2513 -0.0624  0.1077
30045W        W45662   4.485   3.453   5.460  0.2656 -0.1719  0.0192
30046W        W45663   3.287   4.758  11.495  0.0057  0.0095 -0.0703
30047W        W45664  11.522  15.038   2.819  0.1556 -0.1925  0.0022
30048W        W45665  11.595  16.074  13.928 -0.2090  0.0772  0.2383
30049W        W45666   3.107  18.085   0.625 -0.2594  0.0236  0.0435
30050W        W45667   3.841  10.116  12.800 -0.1734  0.0069 -0.1558
30051W        W45668   8.675   5.761   4.324  0.1633  0.1940 -0.0856
30052W        W45669   1.389  15.177  13.175 -0.1836 -0.0821 -0.1224
30053W        W45670   9.735   0.117   3.087  0.2806 -0.0119 -0.0116
30054W        W45671   2.784   2.721  12.187  0.2306 -0.0737  0.0085
30055W        W45672  12.507   2.288   4.791 -0.1232 -0.0709  0.1003
30056W        W45673   0.060  10.933   0.600  0.1493  0.3156  0.4038
30057W        W45674   7.441  15.528   4.242  0.3048  0.0168  0.0544
30058W        W45675   0.861   4.321   0.887 -0.1184 -0.0817  0.1001
30059W        W45676   3.529  11.461  12.853  0.1705 -0.1118 -0.1214
30060W        W45677  16.037   1.163  12.149 -0.2762  0.0558 -0.0392
30061W        W45678   8.501   2.864   3.311  0.1795 -0.0637 -0.0377
30062W        W45679   0.824   0.577   1.406  0.3740  0.3701 -0.0132
30063W        W45680  15.271   3.397   2.918  0.1781  0.1252 -0.0689
30064W        W45681   6.741   3.505   1.267  0.0121 -0.4197 -0.1318
30065W        W45682  18.319  16.157   2.225 -0.2814  0.4557 -0.1950
30066W        W45683  14.120   8.770  12.753 -0.0994  0.1187 -0.0607
30067W        W45684   1.274   3.349   3.645  0.0525 -0.1336 -0.1065
30068W        W45685  11.592  10.263  13.536 -0.0664  0.2108  0.2242
30069W        W45686  11.101   1.241  13.548 -0.0294 -0.0672  0.4326
30070W        W45687  11.160  14.837  14.219  0.1876 -0.0102 -0.1808
30071W        W45688  11.186   1.297   1.088 -0.2322 -0.1590  0.2986
30072W        W45689   1.065   3.379   4.849  0.2583 -0.1490  0.0544
30073W        W45690   1.338  12.206   1.180  0.1790  0.0044  0.1008
30074W        W45691   5.822   5.663  13.512  0.3823 -0.1345 -0.1786
30075W        W45692   0.347  15.914  14.175  0.1025 -0.0678  0.0176
30076W        W45693   9.338  17.146   3.651 -0.2343  0.2450  0.0002
30077W        W45694  14.161   2.372   3.709 -0.1102 -0.0597  0.2040
30078W        W45695  16.120   6.669   3.824 -0.1499  0.1287 -0.0795
30079W        W45696   1.259   3.096   4.512  0.0249  0.1898 -0.3672
30080W        W45697  17.784   3.767   4.076 -0.2084  0.1356  0.0741
30081W        W45698  10.233  15.261   0.588 -0.1914  0.0621  0.1700
30082W        W45699   9.284  10.411  13.015  0.1165 -0.0805 -0.0676
30083W        W45700   5.449  13.045  10.874 -0.1758  0.1169 -0.2055
30084W        W45701   3.353   1.234   4.745 -0.2414 -0.0430  0.3302
30085W        W45702  16.767  13.339   4.108 -0.0153  0.1025  0.1468
30086W        W45703  12.973   9.507  12.630  0.0076  0.1550 -0.1243
30087W        W45704   5.031  14.673   3.665 -0.2025 -0.2364  0.0200
30088W        W45705   5.798   0.671   0.544  0.2479  0.0655  0.1039
30089W        W45706   7.650   0.180   4.215  0.0518  0.1516  0.2345
30090W        W45707  16.523  10.311   5.095  0.1973 -0.0828 -0.1409
30091W        W45708  17.712   6.633  15.755  0.2422 -0.3727  0.3930
30092W        W45709   9.471  18.502   5.180  0.0309  0.2043 -0.0208
30093W        W45710   5.203   7.675   3.769 -0.3010  0.0789  0.1908
30094W        W45711   6.231  11.622   3.941  0.2108 -0.0735 -0.2205
30095W        W45712   7.041  17.465   2.064  0.1843 -0.3951  0.1356
30096W        W45713   2.434  12.337   3.401  0.1226  0.0901  0.4339
30097W        W45714  17.430   9.315  11.770  0.1186 -0.1176 -0.0619
30098W        W45715   3.226   1.763  15.577  0.1066 -0.0145  0.1150
30099W        W45716  17.343  13.384  13.068 -0.0885 -0.1014  0.4686
30100W        W45717   5.764   9.218  12.693 -0.4364  0.2886 -0.1075
30101W        W45718  11.928  10.402  14.839  0.4159 -0.2140 -0.3695
30102W        W45719   1.489  14.135   1.690 -0.1883 -0.0277 -0.1189
30103W        W45720  15.505  10.201   3.387 -0.0136  0.2548  0.1003
30104W        W45721   0.069   4.224  15.026 -0.1384  0.2539  0.0922
30105W        W45722  17.418   6.416  15.393 -0.1447 -0.1583 -0.1758
30106W        W45723  15.470  12.792  12.570  0.0014  0.2090  0.0113
30107W        W45724  10.027  12.422  14.435 -0.0381 -0.0305  0.1448
30108W        W45725   2.709   8.800   5.077 -0.1040  0.2099  0.2804
30109W        W45726   5.190   0.343   3.132 -0.0738  0.0048  0.1136
30110W        W45727  16.006   9.011  12.666  0.2881 -0.0370  0.3686
30111W        W45728   1.680   8.402  12.936  0.1841 -0.1447  0.0775
30112W        W45729  10.341  14.677  12.975  0.0703 -0.1521  0.1235
30113W        W45730   3.115   2.821   4.904  0.0382 -0.2828 -0.0698
30114W        W45731  12.115  14.737   0.423  0.1964  0.0776 -0.2149
30115W        W45732  11.058   5.225  15.784  0.4599 -0.3539  0.1379
30116W        W45733   2.456   2.882  13.150  0.0423  0.0333  0.4177
30117W        W45734   6.297   0.756   0.663 -0.1325 -0.2953 -0.1018
30118W        W45735  15.430  10.690   3.595  0.1591 -0.3740 -0.0953
30119W        W45736  18.089   2.932  11.908 -0.0838  0.3014 -0.0646
30120W        W45737  13.665  13.752   3.793  0.2201  0.0480 -0.0265
30121W        W45738  14.558  10.623   0.604  0.2142  0.1810 -0.1730
30122W        W45739  13.823  10.574  11.450 -0.3755  0.0472 -0.0443
30123W        W45740   9.998  15.917  15.215 -0.0538  0.3287 -0.2582
30124W        W45741   6.825   0.167  13.288  0.0376 -0.1568 -0.1052
30125W        W45742   7.066   9.632   5.048 -0.0344 -0.0805  0.1733
30126W        W45743  13.603   8.792  13.519 -0.0303 -0.0505 -0.0224
30127W        W45744   2.549  16.162   9.512  0.0962  0.0122  0.1591
30128W        W45745  12.727   5.692   2.285  0.0629 -0.2028  0.1811
30129W        W45746   9.442   2.810  13.455 -0.1212  0.1412 -0.0497
30130W        W45747  13.935  16.186  14.884 -0.0309  0.0646 -0.0291
30131W        W45748  18.476   8.645  12.244 -0.0778 -0.5219  0.0986
30132W        W45749  14.335  10.484  11.028 -0.0358 -0.0383  0.0049
30133W        W45750   1.729   3.332  15.609  0.1289  0.0179  0.3158
30134W        W45751   9.962   3.004  14.215 -0.2911  0.0766  0.2857
30135W        W45752  16.556   7.616   4.577 -0.3494  0.2369 -0.0103
30136W        W45753  16.978  14.276   0.792 -0.0310 -0.1491  0.0688
30137W        W45754  15.780  12.831   5.855  0.1752 -0.0846 -0.0245
30138W        W45755  11.440   7.038   2.048 -0.2236  0.2040 -0.0749
30139W        W45756  12.510   8.988   1.418 -0.2135  0.3502 -0.1734
30140W        W45757   2.858  13.183  10.947 -0.0918  0.3218 -0.3574
30141W        W45758  10.302  10.046  13.043 -0.1134 -0.0059  0.1012
30142W        W45759   6.391   3.226  11.439 -0.0009 -0.1279  0.1335
30143W        W45760   9.522   0.217  14.759  0.2842  0.1049 -0.1281
30144W        W45761   7.232  17.017   2.037  0.1554  0.2853  0.1540
30145W        W45762   2.829  16.392  12.778 -0.2435  0.4645 -0.5184
30146W        W45763   2.207   1.860  11.918  0.4160  0.1212 -0.2055
30147W        W45764  13.687   8.786  11.708 -0.0584 -0.0093 -0.1476
30148W        W45765  12.239   5.138   1.342  0.2869  0.2209 -0.1801
30149W        W45766   1.345  15.215  12.603 -0.3186 -0.2268 -0.0759
30150W        W45767   4.959  12.616   2.944 -0.1212  0.2605 -0.0887
30151W        W45768   5.656  18.269  11.927  0.2938 -0.1019 -0.1632
30152W        W45769   2.816   5.325  10.415  0.1493  0.0919 -0.0885
30153W        W45770   3.147  18.140  13.946 -0.1250  0.2727 -0.0143
30154W        W45771   1.733   7.071   3.597  0.2001 -0.1754  0.2457
30155W        W45772  18.026   9.210   0.719 -0.2411  0.2114  0.1951
30156W        W45773  16.623   3.828  15.645 -0.1590 -0.1867 -0.0319
30157W        W45774  12.493  14.626  15.087  0.2021  0.1160  0.0191
30158W        W45775   5.075   9.727   9.724  0.0372 -0.1961  0.1223
30159W        W45776   0.221  12.274  13.146 -0.0719 -0.4288  0.2111
30160W        W45777   8.285  12.574   1.121 -0.1695  0.1932  0.1068
30161W        W45778  15.797   0.909  14.431 -0.3430 -0.1665 -0.0892
30162W        W45779  11.908  18.115   2.537  0.2846 -0.1488  0.0556
30163W        W45780   2.863   8.317   0.323 -0.2652  0.0659 -0.0366
30164W        W45781   8.161  14.047   4.638 -0.1419 -0.0874 -0.2010
30165W        W45782  14.886   4.350  13.430  0.0663  0.1805  0.1445
30166W        W45783   0.921  18.030  15.287 -0.0478  0.0847  0.1533
30167W        W45784   9.197   9.782   5.250 -0.2828 -0.0660  0.3664
30168W        W45785  10.468   8.150  10.322 -0.1619 -0.1027  0.1958
30169W        W45786   6.994  16.814   4.929  0.4248 -0.1722 -0.0681
30170W        W45787  12.808  11.268   0.254 -0.2442  0.0273  0.1587
30171W        W45788   2.449  14.968   2.676 -0.1872  0.3347  0.0979
30172W        W45789   0.185  10.794  12.771 -0.0516  0.1605  0.1819
30173W        W45790   3.673   9.974  15.290  0.0818 -0.0384 -0.5012
30174W        W45791  14.276   5.571   0.131 -0.0501  0.1443  0.4939
30175W        W45792   1.164   5.501   1.976  0.2727 -0.0892  0.3560
30176W        W45793   0.039   7.760   1.031  0.1881  0.1013 -0.1338
30177W        W45794   4.495   3.950   2.294  0.0876  0.2973 -0.0763
30178W        W45795  14.370  11.152  12.529  0.0181  0.2311  0.0995
30179W        W45796   9.177  16.990  11.464 -0.1107  0.2211 -0.2065
30180W        W45797   9.195   2.892   4.808 -0.0804 -0.1139 -0.2027
30181W        W45798  10.244  16.686   5.536 -0.6190  0.0806  0.0928
30182W        W45799  12.164  18.407   3.166  0.2941 -0.0762  0.2465
30183W        W45800  14.941   9.083  13.556  0.2807  0.1582 -0.0602
30184W        W45801   2.178   2.684  13.979  0.1655 -0.2950 -0.2832
30185W        W45802   2.273   5.694   4.393  0.1586  0.0697 -0.1124
30186W        W45803   4.748  13.394   5.233  0.1893 -0.0124  0.1965
30187W        W45804  13.404  16.468   2.449  0.0300 -0.0733  0.3403
30188W        W45805   0.282   9.150  10.211 -0.0391  0.0142  0.0838
30189W        W45806   8.579   0.457   5.605 -0.1841 -0.1209  0.2064
30190W        W45807   2.599   4.832  15.292  0.2204  0.2480 -0.0478
30191W        W45808  10.146   6.029   1.246 -0.1979  0.2430 -0.0887
30192W        W45809   9.667  12.443  12.628 -0.1327 -0.1415 -0.3614
30193W        W45810  13.317  15.199   4.445  0.2461 -0.0068 -0.3027
30194W        W45811  12.037   9.886   5.282 -0.1712 -0.1645  0.1899
30195W        W45812  15.610  15.698   0.397 -0.0891 -0.3044 -0.4357
30196W        W45813   5.011  16.695  12.731 -0.0492  0.1353  0.0183
30197W        W45814  16.354  15.160   5.376 -0.0660  0.1961 -0.0244
30198W        W45815   2.551  13.178   0.545 -0.0971  0.0270 -0.0158
30199W        W45816   0.827  10.033  11.908 -0.1122  0.0962  0.0469
30200W        W45817  11.810  16.432  13.567  0.2050 -0.1065 -0.0353
30201W        W45818  12.666   9.546  13.595 -0.1602  0.0868 -0.3570
30202W        W45819   4.331   9.853  14.583 -0.2953  0.1574  0.2314
30203W        W45820   6.336   0.663   2.947 -0.2302 -0.1071  0.3103
30204W        W45821   4.704   0.858   2.285  0.0284 -0.0783 -0.1796
30205W        W45822  16.145   8.551  14.377 -0.2229  0.0058  0.1741
30206W        W45823  10.281   2.710  14.516  0.2532 -0.0065 -0.0862
30207W        W45824   5.675   2.280   0.526  0.2213  0.1877 -0.0375
30208W        W45825  15.458   7.496  14.434  0.1208  0.0789  0.1570
30209W        W45826  17.408  12.009  13.838  0.1322  0.2279  0.0300
30210W        W45827   3.381   3.543  14.068  0.0142 -0.2441  0.0498
30211W        W45828  18.573   0.514   2.538 -0.1338  0.0952 -0.1878
30212W        W45829  13.280   8.232   1.154  0.0586  0.0038  0.2582
30213W        W45830   2.808  12.361   3.783  0.2697  0.1170  0.2203
30214W        W45831  14.172   8.407   2.143  0.1322 -0.1655  0.0103
30215W        W45832  13.498  11.015   0.580 -0.0715 -0.3913 -0.1793
30216W        W45833  16.660  17.021   6.609 -0.1021  0.0460  0.0423
30217W        W45834  18.613   8.748   1.219 -0.0263  0.1248 -0.2607
30218W        W45835  14.444  14.749  14.837  0.1477 -0.0061  0.0153
30219W        W45836  15.848  13.265  13.202  0.2875 -0.0272  0.1494
30220W        W45837   3.369   8.108   2.278 -0.1037  0.1391  0.0008
30221W        W45838   7.898  10.554   2.285  0.2108 -0.1390 -0.0043
30222W        W45839   9.257   8.131   3.616 -0.2514 -0.2409 -0.0920
30223W        W45840  17.783   1.870  13.684 -0.0981  0.0170 -0.1454
30224W        W45841  13.309  17.074   0.180 -0.5189 -0.0322  0.2157
30225W        W45842   0.197   3.195   2.541 -0.0060 -0.2895 -0.2156
30226W        W45843   6.971   0.788   5.206  0.2260 -0.0688 -0.2197
30227W        W45844   7.376   8.448   2.354 -0.0796  0.0324  0.2012
30228W        W45845  17.252  12.187   3.647  0.0792 -0.4349  0.3716
30229W        W45846   4.794  14.969   2.203 -0.2373 -0.2619  0.1513
30230W        W45847   8.625   1.048  14.602  0.1094 -0.0293  0.2439
30231W        W45848   8.702   4.864  11.995 -0.1668  0.0667 -0.6031
30232W        W45849  11.160   7.518   1.985 -0.1488 -0.1104 -0.3085
30233W        W45850   3.969   4.094   0.229 -0.2812 -0.0617  0.0549
30234W        W45851  17.582  17.262  11.721  0.0597  0.3369 -0.0735
30235W        W45852  12.212   8.592   4.472  0.1403  0.1127  0.0962
30236W        W45853   0.218  10.496   1.921 -0.2072 -0.2504 -0.0206
30237W        W45854  10.266  17.339   1.484 -0.0221 -0.0448  0.3433
30238W        W45855  12.013  16.988   3.765  0.2753  0.0977  0.0679
30239W        W45856  11.030   6.048   0.318 -0.2331 -0.1814 -0.3894
30240W        W45857  15.997  18.618   4.365 -0.4659 -0.1481  0.0412
30241W        W45858   2.079  18.301   0.391  0.0819  0.0613 -0.1210
30242W        W45859   3.385   5.868   5.219 -0.1528  0.0819  0.1771
30243W        W45860   3.349   3.640  13.593  0.0955 -0.0293 -0.1798
30244W        W45861   6.646  10.921  14.085 -0.1817 -0.0303 -0.0102
30245W        W45862  12.732  15.559  11.694  0.4759  0.2629 -0.0135
30246W        W45863  14.066   0.016   4.329  0.1901  0.2955  0.0841
30247W        W45864  16.261   9.100  13.109  0.1319 -0.1532  0.1934
30248W        W45865   1.171  14.902   0.115  0.0265 -0.4364 -0.1420
30249W        W45866  16.296  15.344  13.416  0.1102 -0.0045  0.3654
30250W        W45867   1.361   0.895   1.424 -0.4684  0.1187 -0.0008
30251W        W45868   5.659  18.382   4.205 -0.0441 -0.0806  0.0393
30252W        W45869   6.029   4.278  11.836  0.1580  0.1928  0.1702
30253W        W45870   6.618   0.423   5.461  0.0734  0.0430 -0.3268
30254W        W45871   9.340  15.848   0.009  0.1060  0.0730  0.1783
30255W        W45872   1.709   1.268   1.275  0.3449 -0.1292 -0.2183
30256W        W45873   9.500  11.638   4.784 -0.1393 -0.1685  0.0303
30257W        W45874  13.222   1.147  13.598 -0.3839  0.0775 -0.2959
30258W        W45875  10.868  16.947  13.890 -0.1345  0.1433  0.0495
30259W        W45876  12.295   7.484  13.539 -0.0758  0.1610 -0.0832
30260W        W45877  14.558   4.574  11.799 -0.1544 -0.0647  0.3318
30261W        W45878  11.547  13.873   5.641 -0.0583 -0.2087 -0.0902
30262W        W45879   6.094   4.609   3.242  0.4898  0.1487  0.4221
30263W        W45880  17.901   4.243  12.077 -0.3195  0.0154 -0.2213
30264W        W45881  18.633  13.378   5.306 -0.2321 -0.1342  0.0410
30265W        W45882   5.303   5.530   1.772 -0.2695  0.0925  0.0097
30266W        W45883   8.229   8.765   5.778 -0.0461  0.0298 -0.2264
30267W        W45884   9.467  17.852  15.322 -0.0798  0.0500  0.0325
30268W        W45885   5.004   9.706  12.005  0.0172  0.1389  0.0862
30269W        W45886  14.096   1.241   4.311 -0.0987 -0.0056  0.1047
30270W        W45887   2.688   0.145   0.174 -0.0334 -0.1361  0.0360
30271W        W45888  11.828   5.436  14.606 -0.0239 -0.3123 -0.2155
30272W        W45889  14.356   5.416   2.619 -0.0447  0.4683  0.0528
30273W        W45890   2.464   2.295  12.206 -0.2607  0.2966  0.0834
30274W        W45891   0.041  15.381  12.253  0.0221  0.0329  0.0423
30275W        W45892   2.722  17.803  15.183 -0.2309  0.1280  0.1907
30276W        W45893   8.893   3.188  15.596 -0.0093  0.1784 -0.2956
30277W        W45894   5.645  13.132   2.572  0.1475 -0.0370 -0.4151
30278W        W45895  15.898  15.602  15.433  0.4436  0.4770  0.0981
30279W        W45896   0.529  18.229  12.861 -0.1002  0.3137  0.0432
30280W        W45897  12.054   1.429   2.551 -0.0146 -0.1557  0.2196
30281W        W45898  12.847  12.511  10.880 -0.1201 -0.1471  0.1194
30282W        W45899   6.353  16.735  13.366 -0.2666  0.2410 -0.3933
30283W        W45900   4.764  16.988  11.934 -0.1854 -0.0470  0.3363
30284W        W45901   0.809   6.163  12.772  0.2882  0.0067  0.0055
30285W        W45902  14.751  17.910   4.020 -0.1021  0.0955  0.1120
30286W        W45903  15.115   1.226   2.154 -0.1554 -0.0414  0.0647
30287W        W45904   5.348   8.770  12.738  0.0340 -0.0811 -0.4059
30288W        W45905  16.186  11.791  10.267 -0.1499 -0.0521  0.0279
30289W        W45906   9.943  10.182  14.143 -0.4069  0.1940  0.1041
30290W        W45907   7.228   2.254  10.653  0.1875 -0.4173 -0.0240
30291W        W45908  10.830   6.970  13.720  0.1449  0.2311  0.1278
30292W        W45909  10.555  11.602  13.811 -0.2566 -0.0308 -0.0748
30293W        W45910  10.329   1.763  12.572  0.2937  0.1860  0.1031
30294W        W45911   4.679  17.197   1.837  0.1631 -0.2529  0.0979
30295W        W45912  12.091   0.272  12.641  0.0175 -0.0487  0.1317
30296W        W45913   8.421   9.412   4.532 -0.0989 -0.1417  0.0589
30297W        W45914   4.202  11.595   2.726 -0.2212 -0.4134 -0.3693
30298W        W45915  16.554   2.919   2.703 -0.0957 -0.1936 -0.0715
30299W        W45916   3.817  16.052   0.692  0.1970  0.0874  0.0294
30300W        W45917  13.490  11.793   1.005  0.1531 -0.1049  0.0627
30301W        W45918   3.028  17.058   2.538  0.1215  0.0206 -0.0272
30302W        W45919  10.723   8.536  11.972 -0.1359 -0.2078  0.3159
30303W        W45920  12.191   8.714  13.447  0.0989 -0.3451 -0.3135
30304W        W45921   3.268  17.248  13.868 -0.0604 -0.2346  0.2891
30305W        W45922  10.893   4.721  15.449  0.1816  0.0038 -0.2770
30306W        W45923   5.774   1.026  12.907 -0.2093 -0.1539 -0.2690
30307W        W45924  14.942  15.407   5.714  0.0530  0.3081  0.0557
30308W        W45925  18.154  17.570  13.597 -0.0309 -0.2950 -0.0383
30309W        W45926  13.025  14.736   5.214 -0.1394 -0.0863  0.2101
30310W        W45927   1.729   6.954   9.913 -0.3334  0.0370  0.0413
30311W        W45928   0.861  12.490  13.753 -0.1607 -0.0755  0.3298
30312W        W45929   8.037   9.334   5.373 -0.0775 -0.2058  0.0058
30313W        W45930   5.470   5.337  13.715  0.0199  0.0680  0.0107
30314W        W45931  13.669   2.263  15.130 -0.0441  0.1554  0.1167
30315W        W45932  15.007   4.787   4.406 -0.3878  0.1516  0.2018
30316W        W45933   7.528   7.602  11.523 -0.2606  0.0140  0.2337
30317W        W45934  17.466  17.656   5.921 -0.1611 -0.1458  0.0062
30318W        W45935   5.091  12.430   5.411  0.0633  0.1552  0.3958
30319W        W45936   2.577  10.826  11.679 -0.1808 -0.0442  0.1557
30320W        W45937   0.071  12.930   4.636 -0.2879  0.0493  0.1323
30321W        W45938  11.650  10.663  14.381 -0.1741  0.0990 -0.0091
30322W        W45939   4.448   7.220  11.754 -0.1925 -0.0228  0.0047
30323W        W45940  13.489  17.740   6.050  0.2231  0.4240  0.0509
30324W        W45941  12.826   9.358   3.614  0.0484  0.5639 -0.0385
30325W        W45942  16.236   4.671  11.363 -0.0166  0.0334  0.3071
30326W        W45943  13.836   8.630   5.163  0.4122 -0.0863  0.0403
30327W        W45944   3.529  17.755  13.773 -0.0300  0.4290 -0.1202
30328W        W45945   3.443   3.529   5.070  0.1433 -0.2135 -0.1469
30329W        W45946   8.070  13.885  15.330 -0.1005 -0.1485  0.0234
30330W        W45947   7.003  14.620  13.537  0.0920 -0.1176 -0.0110
30331W        W45948  12.723   7.021  14.834  0.1595 -0.2328 -0.1239
30332W        W45949   0.293   7.952   3.869 -0.2389 -0.2318  0.1575
30333W        W45950   0.099   1.846   1.832 -0.1216  0.0014 -0.3382
30334W        W45951   2.974   2.133   3.588 -0.1231  0.0436  0.0739
30335W        W45952  14.441  18.034  15.539 -0.0009  0.0531 -0.1809
30336W        W45953  11.677   1.549   3.446 -0.0881 -0.0533  0.1930
30337W        W45954  15.736  11.069  14.082  0.1370  0.0972 -0.0111
30338W        W45955  12.964  18.231   0.992 -0.1641 -0.1470  0.0155
30339W        W45956   7.422  15.714  12.953 -0.1035  0.1031 -0.0250
30340W        W45957   1.285   5.870   6.210 -0.1207  0.2033 -0.0764
30341W        W45958   3.591  16.378   5.121  0.0122  0.2834 -0.0443
30342W        W45959   6.251  10.804  15.639  0.0378  0.1933  0.3724
30343W        W45960   8.220   5.465  15.354 -0.0963 -0.1018  0.1454
30344W        W45961   5.494   9.544  13.976 -0.1319  0.2568  0.3532
30345W        W45962  10.376   3.102   3.284  0.5360  0.1549  0.0729
30346W        W45963  18.150   1.805   0.528 -0.0721  0.0667 -0.2180
30347W        W45964   3.483  10.854  12.186 -0.1309 -0.2041 -0.1537
30348W        W45965  18.077  13.116  13.666  0.1776  0.0337  0.0891
30349W        W45966   0.575   5.133   1.401  0.1449 -0.0581 -0.0685
30350W        W45967   8.298   5.432   2.707 -0.0777 -0.1564 -0.0524
30351W        W45968   3.340  12.675   1.983 -0.1035 -0.0416 -0.3104
30352W        W45969   7.000  14.514  11.765 -0.1386  0.2844  0.1614
30353W        W45970   8.996   4.094   3.176  0.2656  0.2324 -0.3693
30354W        W45971   6.079  16.642  10.273 -0.3099  0.1282  0.0307
30355W        W45972   4.876   0.536  11.976  0.0041 -0.1758  0.1993
30356W        W45973  18.525   6.396   1.818 -0.0940  0.0730  0.0223
30357W        W45974   4.102   4.073   3.756  0.2363  0.1624  0.1342
30358W        W45975   8.499  15.654  11.313 -0.0768 -0.0690  0.2247
30359W        W45976   3.407  16.312  12.255 -0.2668  0.1027  0.1821
30360W        W45977   0.233  10.476   4.188 -0.1572 -0.1650  0.2008
30361W        W45978   0.408  10.626   5.204  0.0017 -0.0796  0.3590
30362W        W45979   8.899   0.992   2.400  0.2525  0.2295  0.0740
30363W        W45980   3.584   0.863  10.070 -0.1194  0.1108  0.6408
30364W        W45981  16.833   8.160  14.769 -0.2376 -0.0835  0.1843
30365W        W45982   6.802   1.836   0.316  0.2327  0.2564  0.1552
30366W        W45983   7.574   9.136   5.468 -0.0272  0.1298 -0.2150
30367W        W45984   8.201   3.413   2.462 -0.2261 -0.3152 -0.0489
30368W        W45985  10.838   5.066   0.710  0.2008  0.1477 -0.1916
30369W        W45986   2.684  10.019  11.464 -0.0976  0.2960  0.3395
30370W        W45987  15.139   4.782  13.351 -0.1826  0.1740  0.0192
30371W        W45988   7.444   9.255  15.611 -0.2684 -0.2436  0.2359
30372W        W45989   6.440   6.761   4.806 -0.2052 -0.1902 -0.0387
30373W        W45990  14.441  13.183  15.427  0.3037  0.2496 -0.0101
30374W        W45991   9.073  11.740  13.014 -0.2377 -0.0559 -0.0263
30375W        W45992   3.235   2.714  11.927  0.0310  0.3715 -0.1452
30376W        W45993  15.255  15.438  11.559  0.1387  0.0181 -0.1885
30377W        W45994   8.677   4.574   3.702 -0.0676  0.0747  0.2411
30378W        W45995  10.002   4.104   5.140 -0.0924 -0.2150  0.1224
30379W        W45996   9.906  10.636   5.869  0.0585 -0.1717 -0.0026
30380W        W45997   4.710  17.611  10.656  0.0544  0.1622 -0.1653
30381W        W45998  15.762   0.082  12.464 -0.1497  0.1217 -0.0629
30382W        W45999  16.463   9.466   2.867  0.2311  0.0279 -0.0851
30383W        W46000  16.694  11.948   2.982 -0.0350  0.0058 -0.4497
30384W        W46001   0.316   0.995  11.882  0.1315  0.5036  0.0299
30385W        W46002  15.822   7.367   3.655  0.1875  0.0614  0.0080
30386W        W46003   6.880   3.527   0.028  0.3594 -0.1199  0.0650
30387W        W46004  16.649   0.616  12.522  0.3694 -0.2866  0.1041
30388W        W46005   5.276   0.458   0.820  0.2609 -0.0566 -0.0955
30389W        W46006  13.234  13.825   3.466 -0.2154 -0.0294  0.0998
30390W        W46007  15.574   2.076   3.405 -0.1315  0.0730  0.3632
30391W        W46008  14.036  17.696   0.375  0.1658  0.0260 -0.1758
30392W        W46009   1.857   5.776  13.606 -0.2655  0.0801 -0.1735
30393W        W46010   5.601  10.244   3.868  0.2923  0.1526 -0.1777
30394W        W46011   9.952   0.860   0.579 -0.0529  0.0538 -0.2933
30395W        W46012  12.418   7.962   3.704 -0.0395 -0.2496 -0.5152
30396W        W46013   4.715   1.583   1.863  0.3527  0.1728 -0.2877
30397W        W46014  13.251  17.434   2.914  0.3290  0.1947  0.0097
30398W        W46015   1.406   6.102  12.834 -0.0634 -0.0325 -0.0559
30399W        W46016  12.687   1.218   0.150 -0.2388 -0.0592  0.1778
30400W        W46017  18.262   3.120   1.450  0.2575  0.0592 -0.0182
30401W        W46018  10.897  14.132   0.592  0.0610 -0.0063  0.1477
30402W        W46019   4.805   1.317   0.542 -0.2801 -0.3750  0.0197
30403W        W46020   6.915  17.974   2.291  0.1340  0.3722  0.0456
30404W        W46021  12.027   2.975   5.909  0.0866  0.1728 -0.2499
30405W        W46022   8.901   5.236  14.789 -0.0238  0.2568 -0.0395
30406W        W46023  11.977  16.947   0.205  0.0093 -0.0370 -0.1106
30407W        W46024  17.659  11.810  10.487  0.0553 -0.0834  0.0225
30408W        W46025   4.259   6.089   4.920 -0.1150  0.2838 -0.0951
30409W        W46026  16.325   5.406  14.911  0.2115 -0.0859  0.1264
30410W        W46027  14.032   1.625   3.827 -0.1403 -0.1443 -0.1143
30411W        W46028   5.079   6.058  11.906  0.1028 -0.0742 -0.0873
30412W        W46029  10.018   2.736   3.146  0.2485  0.1715  0.3602
30413W        W46030  15.030   1.241  11.154 -0.0053  0.0017 -0.0803
30414W        W46031  15.520   1.248  11.986  0.1532  0.1339 -0.0180
30415W        W46032   8.230  14.933   9.644 -0.2682 -0.0474  0.1036
30416W        W46033  17.926   0.002   5.299  0.2260  0.0902 -0.3061
30417W        W46034   5.828   3.663   3.828 -0.0645  0.0260 -0.3792
30418W        W46035   3.007   3.840   0.443 -0.0385  0.0553  0.0497
30419W        W46036  11.751  16.231  15.635  0.2508  0.2220  0.0187
30420W        W46037   1.006   9.216   0.360  0.3724 -0.3514  0.1179
30421W        W46038   7.766   8.151   4.325  0.0305 -0.0957 -0.1650
30422W        W46039   1.226   9.302  12.315 -0.3279 -0.2306 -0.0583
30423W        W46040   6.445   5.088   1.375 -0.1167 -0.1263  0.2692
30424W        W46041   2.497   9.519   0.960  0.1712 -0.0577  0.2664
30425W        W46042  15.247   4.813   0.957  0.1338 -0.1783 -0.1528
30426W        W46043   3.154   1.942   1.421 -0.3336 -0.1693  0.0283
30427W        W46044  16.643  17.610   0.858 -0.0165 -0.0666  0.3587
30428W        W46045  18.354  11.022   3.930 -0.0012 -0.1146  0.4618
30429W        W46046  10.628  13.080   4.279  0.0248  0.4182 -0.1347
30430W        W46047  16.615   8.645  14.622  0.1939  0.0290 -0.0496
30431W        W46048   3.975   2.683  14.121 -0.1869  0.3371 -0.1742
30432W        W46049   8.256   8.030   5.082  0.0849 -0.2346 -0.0809
30433W        W46050   4.342   8.435  14.878  0.1765 -0.1526 -0.3963
30434W        W46051  18.589   5.822   0.251 -0.0715  0.1413 -0.2669
30435W        W46052   0.903  14.394  12.631 -0.0725 -0.2815  0.1321
30436W        W46053   8.066  10.242   0.487 -0.0517  0.0350  0.0126
30437W        W46054   9.159   6.320   4.901 -0.0378  0.0687  0.0873
30438W        W46055   4.339   0.855   1.033 -0.1669  0.2592 -0.0969
30439W        W46056   6.015  17.157  14.761 -0.0156  0.0724 -0.2060
30440W        W46057  16.523   6.713  15.679 -0.0969 -0.2263  0.0283
30441W        W46058   3.317   4.422  14.837 -0.1085 -0.4459 -0.1306
30442W        W46059   7.558   8.444   4.671  0.3487 -0.1906  0.2904
30443W        W46060  17.529  14.929  11.778 -0.0754  0.0265 -0.1224
30444W        W46061   5.872   0.199   1.856 -0.2872 -0.0252 -0.0486
30445W        W46062   3.925  14.151   5.126  0.1969 -0.0152 -0.1581
30446W        W46063   7.339   0.090   2.943  0.1011 -0.1471 -0.0451
30447W        W46064  11.936  12.700   1.775  0.1473 -0.1455  0.3321
30448W        W46065  16.345   9.811  12.412 -0.0929  0.1783  0.5186
30449W        W46066   0.718  10.759  12.551  0.3196  0.1195  0.0601
30450W        W46067   4.484   0.390   4.263  0.2261  0.1364  0.0331
30451W        W46068   9.716   1.195  14.591 -0.1633  0.0313 -0.0125
30452W        W46069   3.893  11.098   3.439  0.1970  0.0682 -0.2594
30453W        W46070  17.036   0.999   6.400  0.0253 -0.0924  0.3527
30454W        W46071  15.291   8.007   0.527  0.0601 -0.0225 -0.3051
30455W        W46072   1.634   0.049  13.713 -0.1993 -0.1924  0.2829
30456W        W46073   3.621  13.298  15.479 -0.0239  0.2807  0.0735
30457W        W46074  15.027   2.112   1.280 -0.0334  0.2852 -0.0195
30458W        W46075  13.938  12.859   5.716  0.1042  0.1361  0.1235
30459W        W46076  14.758   3.314   4.267 -0.3175 -0.4006 -0.3569
30460W        W46077   5.648   2.914  11.952  0.0779  0.0636  0.0857
30461W        W46078  15.669   1.109  12.458 -0.0689 -0.0769 -0.1150
30462W        W46079  13.815  14.868  12.964  0.2730  0.1890  0.0606
30463W        W46080  12.811   4.850   0.854 -0.0642  0.0264 -0.4241
30464W        W46081  17.724   8.830   0.288  0.1007  0.5876  0.0957
30465W        W46082   6.034   3.848   9.744  0.1466 -0.3545 -0.1368
30466W        W46083  16.215   1.494  12.556 -0.2458 -0.1292  0.1319
30467W        W46084  10.299  10.906   0.513  0.0005  0.2463  0.3374
30468W        W46085   4.013   1.361  12.433  0.3899  0.2330 -0.1653
30469W        W46086  18.201   8.460  15.045  0.0741  0.0746  0.3823
30470W        W46087   6.781  11.434   2.511  0.0850 -0.2183  0.0394
30471W        W46088   2.354   0.244   4.658 -0.2179 -0.2528  0.0371
30472W        W46089  14.559   6.731   2.442  0.0781 -0.2923  0.0242
30473W        W46090  17.565   2.116   0.145 -0.0224  0.0511  0.0003
30474W        W46091  14.600  17.862   2.433 -0.1083 -0.2358 -0.2111
30475W        W46092  12.762   2.902   0.282  0.2532 -0.0037  0.0154
30476W        W46093   5.245  18.067  12.298  0.0257 -0.0836  0.0154
30477W        W46094   5.152  15.105   4.761  0.3758  0.1131  0.0876
30478W        W46095  14.099   2.407   5.370  0.1378  0.0592  0.1978
30479W        W46096  12.536   9.876  12.482 -0.0772 -0.1225 -0.0113
30480W        W46097   9.212   1.742  12.025  0.0909  0.4989  0.2203
30481W        W46098  10.316  12.411  10.683 -0.0370 -0.1135  0.3095
30482W        W46099   5.892  14.203   0.520 -0.0997 -0.1856  0.2561
30483W        W46100  14.612   4.141   2.840 -0.1243  0.1254  0.1567
30484W        W46101   7.070   3.147   1.553  0.0329  0.0969 -0.0123
30485W        W46102  14.959  14.615   3.543 -0.0028  0.1809 -0.0940
30486W        W46103  18.190  10.634  11.640 -0.0716  0.4797 -0.0546
30487W        W46104  18.006  14.454   0.839 -0.3155 -0.0000 -0.4720
30488W        W46105  16.941  12.066  14.567  0.1411 -0.2122 -0.2493
30489W        W46106   6.991  15.845   1.381 -0.0425  0.0354  0.0298
30490W        W46107   5.204  12.278   2.634  0.0176  0.0030 -0.0091
30491W        W46108  12.112   3.207  14.619  0.1236 -0.3869  0.0458
30492W        W46109   4.729   6.733   6.136  0.1749 -0.0776 -0.2453
30493W        W46110   2.678   7.065  11.645  0.1083  0.0509  0.0710
30494W        W46111   4.336   6.771  13.143  0.1384  0.0784  0.1822
30495W        W46112   2.200   7.787  11.881  0.1157 -0.0887  0.2175
30496W        W46113  13.515  14.943   3.487  0.1340  0.2860 -0.2567
30497W        W46114   0.805   9.071  15.248  0.0224 -0.0825 -0.1500
30498W        W46115   7.580  13.621  12.746  0.4013 -0.0616 -0.3430
30499W        W46116  16.873  13.096   2.032  0.0654  0.1020  0.0190
30500W        W46117  16.725   6.109   4.583 -0.2419 -0.0576 -0.0952
30501W        W46118   6.217   8.308   1.861  0.1219 -0.1968 -0.0957
30502W        W46119   8.569  17.203  10.793  0.0525 -0.0747 -0.0481
30503W        W46120   7.620   7.196   4.402  0.0208 -0.0501 -0.0672
30504W        W46121  18.418   3.046  13.999  0.0935  0.0109  0.0641
30505W        W46122   0.688   3.908  11.276 -0.1093 -0.0127 -0.0027
30506W        W46123   0.156  17.102  14.808  0.2134  0.1170  0.0246
30507W        W46124  11.072  15.798  12.910  0.1840 -0.1065  0.1027
30508W        W46125   3.166   4.063  14.367  0.1036 -0.2048 -0.2409
30509W        W46126   4.133   2.968   4.043 -0.0075 -0.0279  0.1690
30510W        W46127  14.387  11.846   3.988  0.1535  0.0645  0.0425
30511W        W46128   9.376  18.415   3.065  0.0766  0.0652 -0.0837
30512W        W46129   8.027   5.478  14.525 -0.0050  0.1933  0.1011
30513W        W46130   6.809   3.579  12.630  0.1612 -0.3430 -0.1445
30514W        W46131  12.530  18.383   3.459  0.1385  0.0892  0.1378
30515W        W46132   2.545  11.695   2.657 -0.0066  0.2305  0.0017
30516W        W46133  14.081   5.093  14.226  0.2065  0.0716 -0.0921
30517W        W46134  11.857  10.716  12.442 -0.1968  0.2048  0.1540
30518W        W46135  12.330   5.841   3.722 -0.0122  0.0222 -0.4170
30519W        W46136  15.895  16.409  14.990  0.1420 -0.0884  0.3006
30520W        W46137   5.636   1.401  11.546 -0.1549  0.0126  0.2760
30521W        W46138   2.553   2.978   0.804 -0.1520  0.0911  0.2010
30522W        W46139   0.937  14.960  12.726  0.1096 -0.0831 -0.1063
30523W        W46140  13.096   6.282  13.260 -0.3666 -0.0410  0.0465
30524W        W46141   7.748   1.845   3.778 -0.1550  0.2752  0.1521
30525W        W46142   6.684   4.226  14.542  0.0316  0.0018  0.0508
30526W        W46143  18.020   9.108  15.719  0.2508  0.1873  0.0016
30527W        W46144  11.440  17.545   1.829 -0.0295  0.3840  0.3189
30528W        W46145   7.948  17.580  14.501  0.2094  0.3434 -0.1623
30529W        W46146   5.084   4.914   3.698 -0.3092 -0.1163 -0.0564
30530W        W46147  10.761   9.843   4.511 -0.0303 -0.0816 -0.4713
30531W        W46148   4.175   9.079   2.212 -0.2365 -0.1469 -0.0706
30532W        W46149   6.626   8.440   2.939  0.1290 -0.2585  0.1873
30533W        W46150   4.571  14.681   3.893  0.1155  0.0439  0.1277
30534W        W46151   0.362  15.720  15.348  0.3243  0.1139 -0.1642
30535W        W46152   7.106  13.262   0.128  0.0714  0.0288  0.1234
30536W        W46153   3.222   1.242  14.872 -0.1025 -0.2755  0.0158
30537W        W46154   4.073  13.829  11.268 -0.0384  0.2437 -0.1869
30538W        W46155  18.606  13.774  12.928  0.1285 -0.0944 -0.0185
30539W        W46156  13.469  12.570   4.640 -0.4116  0.1236  0.0367
30540W        W46157   7.019   7.746   3.973 -0.3008 -0.3984  0.0109
30541W        W46158   1.151  16.019   3.135 -0.0862 -0.1332 -0.0050
30542W        W46159   3.193  15.936  14.351  0.0050 -0.1098  0.0539
30543W        W46160   5.285   2.962   3.245 -0.0924 -0.2881  0.0104
30544W        W46161  11.175   5.151  11.774  0.1814  0.6070 -0.0502
30545W        W46162   3.283   6.232   2.581 -0.1184 -0.0915 -0.0424
30546W        W46163  11.910  14.138  13.408  0.2442  0.2802 -0.0608
30547W        W46164  10.076   5.116   0.082  0.0197 -0.1709  0.4452
30548W        W46165  10.043  18.594   1.681  0.0709 -0.0036  0.3097
30549W        W46166   2.159  14.870  13.473  0.0060  0.0379 -0.1706
30550W        W46167   8.014   3.008   5.309 -0.2647 -0.0109 -0.2308
30551W        W46168  13.953  13.515  13.996 -0.2626 -0.1507 -0.3816
30552W        W46169  16.420   8.649   1.103  0.2130  0.1079 -0.3151
30553W        W46170  14.339  17.137  15.708 -0.1966  0.0967  0.1471
30554W        W46171   7.501  12.925  11.558 -0.0396  0.1661 -0.2997
30555W        W46172   8.808  12.605   1.975 -0.0610  0.3564 -0.0491
30556W        W46173  16.000   7.717   2.125  0.0735  0.0212  0.1229
30557W        W46174  12.897   5.379  15.085 -0.2119  0.6252  0.3207
30558W        W46175  16.714  11.706   2.583  0.3189 -0.2653 -0.2432
30559W        W46176  10.131  17.907   4.297 -0.4259 -0.1480  0.0365
30560W        W46177   7.937  10.931  10.548 -0.0222  0.1390  0.0276
30561W        W46178   6.774   4.714   1.777 -0.2881  0.2961 -0.1198
30562W        W46179   1.559   3.719   2.215  0.0192  0.1532  0.3728
30563W        W46180  17.255  16.333   2.829  0.2739 -0.0022 -0.1694
30564W        W46181   8.485  16.544   4.272 -0.0517  0.0931  0.2463
30565W        W46182   0.331  16.893   0.615 -0.1367  0.1914  0.0570
30566W        W46183  10.170   7.594   4.875 -0.0756 -0.0633 -0.1719
30567W        W46184  15.736  16.585   5.618 -0.0532  0.2172 -0.0758
30568W        W46185  13.189   2.173  15.309 -0.0694  0.2768  0.1199
30569W        W46186   5.141  11.043  13.016 -0.0576 -0.1958 -0.2982
30570W        W46187   1.847   9.545   3.432  0.0204  0.1447 -0.0047
30571W        W46188   7.401  14.959  14.337  0.1167  0.2071  0.0315
30572W        W46189   0.905  16.331   0.053 -0.0166  0.2883 -0.3590
30573W        W46190  11.960  14.129  11.764 -0.1252  0.1776 -0.0147
30574W        W46191   5.884   2.348  12.503  0.2445 -0.1565  0.1625
30575W        W46192  17.935  18.129  13.841 -0.1171  0.1276  0.0038
30576W        W46193  15.466  16.953  11.422  0.1070 -0.0176 -0.0296
30577W        W46194   3.861  13.016   3.415 -0.0390  0.2409  0.2118
30578W        W46195   2.107   1.854   1.638 -0.1002  0.1518 -0.1354
30579W        W46196   1.752   3.740  11.065 -0.1068  0.1951 -0.0475
30580W        W46197  16.434  11.944   0.240  0.0168 -0.0328 -0.2855
30581W        W46198  16.029  11.492  13.972 -0.1949 -0.0105 -0.0523
30582W        W46199  11.321   3.928   5.014 -0.1467 -0.0880 -0.3690
30583W        W46200  11.437  18.262   0.464 -0.1180  0.1448 -0.4944
30584W        W46201  14.453  16.459  15.164 -0.4899  0.0472  0.0714
30585W        W46202   7.147  10.774  10.729  0.2552 -0.2857  0.1147
30586W        W46203   4.473  10.078   1.631 -0.1801  0.1409 -0.2995
30587W        W46204  12.867  11.512  13.661  0.1226 -0.2666  0.1049
30588W        W46205   3.221  13.605   1.837  0.0281 -0.1168  0.0516
30589W        W46206  16.513  16.516  12.296  0.2422 -0.2345 -0.4942
30590W        W46207  10.440   8.421  14.792  0.1755  0.0601 -0.1200
30591W        W46208   8.010  12.848   1.428 -0.0465  0.0476  0.0416
30592W        W46209  18.561   7.428   1.688 -0.1282  0.3187 -0.2633
30593W        W46210  11.559   1.299  15.175 -0.0338  0.0832 -0.0748
30594W        W46211  12.481   5.845   4.162 -0.0042  0.1654 -0.4805
30595W        W46212  12.886   3.114   6.491  0.0476  0.0970 -0.0374
30596W        W46213  13.031  17.596   0.237  0.0430 -0.0748 -0.1114
30597W        W46214   9.580  14.057  13.606  0.3021  0.1489 -0.1652
30598W        W46215  15.462   4.211   3.174  0.0471  0.1619 -0.0995
30599W        W46216  11.968  10.879   1.567  0.2250 -0.0195 -0.1234
30600W        W46217  13.627  16.426  10.105  0.3811 -0.1120  0.1666
30601W        W46218  17.226   8.233  10.528 -0.5048  0.4355 -0.0891
30602W        W46219  13.175  13.737  14.174  0.0126  0.1719 -0.0490
30603W        W46220  10.956   0.512  15.273  0.0052 -0.1234 -0.3511
30604W        W46221   4.820  12.527  10.900 -0.0438 -0.1889 -0.1382
30605W        W46222   2.611  15.352  14.018 -0.3683 -0.0004  0.0706
30606W        W46223  15.237   2.757   2.121 -0.1093 -0.0614  0.1357
30607W        W46224   7.444   6.258   4.755 -0.2365 -0.0083 -0.0675
30608W        W46225   1.931   7.765   4.687  0.0873  0.0362 -0.0176
30609W        W46226  10.510   3.131   3.933  0.1617 -0.1152  0.1680
30610W        W46227  14.651   3.388   2.018 -0.1146 -0.1790 -0.0076
30611W        W46228   0.219   8.096   4.339  0.0981 -0.2631 -0.3005
30612W        W46229  16.911  17.404   3.135  0.1559 -0.0650 -0.0387
30613W        W46230   8.296   2.761   2.446 -0.0755  0.2034  0.0212
30614W        W46231  17.361  10.322  14.332 -0.1221  0.0267 -0.1534
30615W        W46232   3.975  12.943  15.512  0.2196  0.1724 -0.0116
30616W        W46233  14.458   0.737   0.934  0.0844  0.0112 -0.1133
30617W        W46234   5.894  15.135  11.011 -0.0675  0.1586 -0.0441
30618W        W46235   8.939   5.888   2.663 -0.1701 -0.0127 -0.0577
30619W        W46236   7.173  10.772  13.647 -0.4160 -0.0806 -0.1597
30620W        W46237  12.974   6.662   0.355  0.2305 -0.2095  0.0226
30621W        W46238   9.955   6.180  15.248  0.0956  0.0179 -0.1101
30622W        W46239  15.950   5.341  13.658  0.0433 -0.0562  0.0623
30623W        W46240  15.993   9.473   0.809  0.1269  0.1137  0.1035
30624W        W46241   1.109  12.133   3.853 -0.1158 -0.1141  0.2372
30625W        W46242  17.197   6.142  10.826  0.0163 -0.0742  0.1276
30626W        W46243   7.915  17.648   1.683 -0.0355 -0.0433 -0.0347
30627W        W46244  11.316  18.415   1.911 -0.1254 -0.0913 -0.2083
30628W        W46245   1.896   2.404   5.167  0.0581 -0.0024 -0.0315
30629W        W46246  12.242   9.708  13.395 -0.0916 -0.1627 -0.3643
30630W        W46247   0.372  15.994  11.376 -0.2404 -0.3189 -0.3821
30631W        W46248  10.133   6.512  15.678  0.0333  0.1295 -0.0536
30632W        W46249   7.418   2.313   5.275  0.1889  0.0303  0.2645
30633W        W46250   6.560   4.440   3.306 -0.0460 -0.1296 -0.1833
30634W        W46251   9.913   8.108   2.775  0.1192  0.0532  0.0844
30635W        W46252   5.917   0.997  14.197  0.2307  0.3502  0.0712
30636W        W46253  18.441  14.476  13.799  0.0176  0.1114  0.1045
30637W        W46254   8.931  16.762   2.715  0.0383 -0.0910  0.0453
30638W        W46255   2.307   9.126   1.290 -0.2321  0.0259  0.2149
30639W        W46256  13.159  17.779   2.276 -0.1887  0.0919 -0.3547
30640W        W46257   2.679   4.533   0.328 -0.4114 -0.1529  0.3165
30641W        W46258   4.376  12.088   3.776 -0.0319  0.3798 -0.3109
30642W        W46259  13.199  17.778   5.622 -0.1534 -0.1271 -0.1698
30643W        W46260   5.267  16.653  10.334 -0.1566  0.1374  0.1762
30644W        W46261  13.493  12.531  14.996 -0.1280  0.0319  0.3976
30645W        W46262  16.168  10.278   1.733 -0.1085 -0.0856  0.3711
30646W        W46263  11.678  11.729   0.413  0.0365  0.1458 -0.0232
30647W        W46264   9.374   8.519   3.905 -0.0600  0.1294 -0.2134
30648W        W46265  18.307  15.775   9.907 -0.3410  0.1154 -0.0776
30649W        W46266  17.960   1.795  14.792  0.3666 -0.2778  0.0375
30650W        W46267  16.594  15.317  14.995 -0.0087  0.0225 -0.1876
30651W        W46268   6.529  15.387   2.750 -0.0398 -0.1673  0.5318
30652W        W46269  12.401   5.975  11.396 -0.1885  0.1339 -0.2974
30653W        W46270   3.684   0.237  12.876  0.1839  0.1747 -0.1452
30654W        W46271  10.361   2.101  12.983  0.1660 -0.1619  0.0222
30655W        W46272   4.412   4.694   5.407 -0.1933 -0.1806  0.2547
30656W        W46273  12.098   9.523  10.904  0.2807 -0.1473  0.1517
30657W        W46274  11.800  16.420  11.865 -0.2740  0.0530 -0.1686
30658W        W46275  13.460   2.551  15.553  0.3826  0.1388  0.1173
30659W        W46276   0.883   7.076   4.736  0.0460  0.0951 -0.0425
30660W        W46277  16.093   8.326  11.506 -0.0617  0.0653  0.0576
30661W        W46278  12.399  15.034  12.734  0.0328  0.1601 -0.1694
30662W        W46279  10.013  17.016   1.040 -0.4115 -0.1597 -0.0277
30663W        W46280   7.086   7.723   3.113 -0.0097  0.2255 -0.4885
30664W        W46281   6.020  12.845   2.267 -0.1924  0.0639 -0.2562
30665W        W46282   2.121  18.242  14.573  0.0195 -0.2495 -0.1044
30666W        W46283  16.542  13.144  14.921 -0.3422 -0.1104 -0.0118
30667W        W46284  12.072  17.960   2.128  0.1008 -0.1203 -0.2452
30668W        W46285  13.554   9.146  13.809 -0.3113 -0.1909 -0.1532
30669W        W46286  14.243   1.510  13.123 -0.1761  0.0032  0.2216
30670W        W46287   4.055   1.931   2.575  0.0126 -0.0419  0.2696
30671W        W46288  16.475   6.500   1.894  0.0715  0.1581 -0.3370
30672W        W46289   6.752   1.097  13.169  0.0598  0.0666  0.1205
30673W        W46290  14.522  12.983   2.324  0.0878  0.1914  0.0537
30674W        W46291   4.506  18.074   3.995  0.0115  0.3432 -0.0338
30675W        W46292   5.645   1.689  15.513  0.2132 -0.4637  0.0666
30676W        W46293   2.064   0.052   0.760  0.3721  0.3193  0.0301
30677W        W46294  12.356   8.705   4.974  0.0986  0.2234 -0.3003
30678W        W46295   3.015   6.251  14.739  0.0289 -0.2306 -0.1416
30679W        W46296  15.930   2.559  11.120  0.1153  0.0586  0.1123
30680W        W46297  15.609   2.175   6.412  0.1210 -0.0616 -0.0789
30681W        W46298  17.438  18.265  14.706 -0.0157 -0.2470  0.1016
30682W        W46299   4.541  17.321   3.316  0.1552  0.4548 -0.0783
30683W        W46300   3.656  13.746  14.188 -0.2508 -0.1556 -0.1399
30684W        W46301  14.389  18.156   1.631 -0.1112  0.2273 -0.0444
30685W        W46302  17.403   8.500  11.553  0.1092  0.0588 -0.2094
30686W        W46303  14.999  16.717  15.142  0.1634 -0.2833  0.0209
30687W        W46304  12.507   7.614   1.501 -0.0472  0.0261  0.1542
30688W        W46305  10.845  10.206  13.736  0.5421 -0.2686  0.1536
30689W        W46306  18.569  11.641  11.264  0.1283 -0.0167  0.0678
30690W        W46307   3.646   2.621  12.508 -0.2200  0.0555  0.1548
30691W        W46308   5.869  11.663  12.268  0.2331 -0.4577 -0.1052
30692W        W46309  18.381  16.589   3.360  0.1243  0.3483  0.0912
30693W        W46310  15.635   3.005   3.019 -0.1496 -0.0590  0.0894
30694W        W46311  15.013   4.780  11.722  0.4826  0.0289 -0.1936
30695W        W46312   1.115   4.291  11.437  0.0532 -0.2785  0.0715
30696W        W46313   4.515  16.875  15.570 -0.0097  0.0641 -0.0120
30697W        W46314  13.612   7.383   0.737 -0.0785 -0.0010 -0.2853
30698W        W46315   0.357   2.240   0.699  0.2073  0.4795  0.3427
30699W        W46316  10.620  15.604  15.484 -0.3215  0.3340  0.3663
30700W        W46317   4.537  12.837  14.064 -0.4155 -0.0469  0.3096
30701W        W46318   1.867   5.000   0.858  0.2927  0.0567  0.0946
30702W        W46319   2.056  17.436  13.504 -0.4562 -0.0055 -0.0504
30703W        W46320  14.143   6.569   0.110  0.2529  0.1820 -0.4764
30704W        W46321   9.443  10.848   1.358 -0.3107  0.0461 -0.1701
30705W        W46322   6.670  16.623   1.276  0.2179  0.1522  0.2676
30706W        W46323  14.442  17.304   1.130 -0.1043 -0.1304 -0.3055
30707W        W46324  18.024  10.217  13.579 -0.1159  0.0218  0.3365
30708W        W46325  14.333   0.333   6.741  0.0679  0.0519 -0.2280
30709W        W46326   1.747  12.304  14.769 -0.2101 -0.3887 -0.0440
30710W        W46327   3.157   4.205   3.305  0.0217  0.1739  0.0033
30711W        W46328   8.085   0.919  12.915  0.0656  0.3325  0.0043
30712W        W46329   8.113   1.835  14.247  0.2335  0.0475  0.0055
30713W        W46330  16.348  18.419  15.692 -0.0405  0.0376  0.1875
30714W        W46331   5.194  15.069  14.209  0.1544  0.2781 -0.2148
30715W        W46332   6.674  16.300   4.077  0.0919  0.3476 -0.2440
30716W        W46333   9.815   8.593  12.131  0.1154 -0.2541  0.4313
30717W        W46334   2.912   5.138   3.625 -0.1835 -0.0438  0.0299
30718W        W46335  15.218   0.888  13.390  0.3344 -0.2032 -0.1016
30719W        W46336  15.193   3.461   0.118 -0.0996  0.0768 -0.2321
30720W        W46337   8.897   8.531   1.625  0.0885 -0.2719 -0.4366
30721W        W46338   1.536   3.525   4.931 -0.0716  0.2228 -0.0046
30722W        W46339   7.894   5.088  13.943  0.0913  0.2236 -0.0840
30723W        W46340  18.513  13.344  13.651  0.0765  0.1033 -0.2293
30724W        W46341   1.506   9.685  14.644  0.1916 -0.0504 -0.2072
30725W        W46342   4.274  10.056  13.622  0.1922 -0.1359 -0.3064
30726W        W46343  13.418  17.875  11.731 -0.3055  0.0926  0.0487
30727W        W46344  13.893  12.155   1.183  0.3405  0.1831  0.1846
30728W        W46345  13.839   0.284   5.687 -0.1718 -0.1683  0.0591
30729W        W46346   4.580   0.902   0.576 -0.0164  0.0478  0.1485
30730W        W46347   7.244   2.014   3.057  0.0088  0.2596  0.0740
30731W        W46348  12.853   8.082  11.973 -0.0057  0.0597  0.2182
30732W        W46349  15.274  14.292  14.611 -0.2936  0.2816  0.0752
30733W        W46350  10.819   0.961   3.193  0.0911 -0.0561  0.1740
30734W        W46351   2.798   5.712  11.305 -0.2683 -0.3591 -0.0367
30735W        W46352   5.609   3.159  12.827 -0.0994  0.0494  0.0702
30736W        W46353   8.522   2.679   4.343 -0.0324  0.1214 -0.1677
30737W        W46354  12.293  15.752   4.089  0.0718 -0.2650  0.1905
30738W        W46355   0.994   6.813  11.160  0.0566  0.0282 -0.2290
30739W        W46356  14.149  16.873  14.947  0.1298 -0.0335 -0.0281
30740W        W46357  12.915   4.506   3.289  0.0636  0.0875  0.3070
30741W        W46358   2.209   0.158   1.266 -0.2017 -0.0253 -0.0004
30742W        W46359   4.627  15.009  13.685  0.2239  0.0260 -0.2081
30743W        W46360  10.331   8.930   3.076 -0.0954 -0.1028  0.2425
30744W        W46361   2.424  12.650   3.894  0.1432 -0.2104  0.2827
30745W        W46362  17.987  16.452   4.338  0.2778 -0.1769 -0.1720
30746W        W46363   6.193  16.704  14.629  0.1933 -0.1459 -0.0303
30747W        W46364   1.201  15.473   2.949  0.1396 -0.0169  0.0187
30748W        W46365  10.041   4.896   3.176  0.0230 -0.5182  0.1029
30749W        W46366   0.176   2.235  11.676 -0.0411 -0.1727  0.4454
30750W        W46367  11.153   0.649   2.969 -0.0499 -0.2648 -0.0730
30751W        W46368  18.516   5.952  12.835  0.0448 -0.0605 -0.0854
30752W        W46369   8.137   7.792  12.307  0.1367 -0.0456 -0.0843
30753W        W46370  10.377   3.318  11.508  0.1134  0.2638  0.1043
30754W        W46371  14.676   9.760   3.263 -0.3148  0.1497 -0.0226
30755W        W46372  18.352   3.144  11.533  0.2133  0.2361  0.1526
30756W        W46373   1.626  10.426   4.510 -0.1757 -0.1760  0.1562
30757W        W46374   0.418  12.180   3.332 -0.5248  0.0723 -0.2214
30758W        W46375   0.759   2.461   4.852 -0.5273  0.1161  0.0658
30759W        W46376  11.715  13.802  11.377  0.0307  0.0044 -0.0033
30760W        W46377   6.453  14.664  11.892 -0.2316  0.1272 -0.0446
30761W        W46378   6.943   7.454  13.773 -0.4841  0.1932  0.0017
30762W        W46379   4.190   2.783   0.393 -0.1664 -0.0084  0.1683
30763W        W46380  15.461   2.608  13.927 -0.0904 -0.0066  0.0812
30764W        W46381  14.517   9.281  11.347 -0.0970 -0.0607 -0.0549
30765W        W46382   1.232   7.381   4.051  0.1019  0.2857  0.0352
30766W        W46383   2.215   8.870   3.501  0.0816  0.1824  0.0135
30767W        W46384   2.070  17.070   1.260  0.3887  0.0167 -0.1135
30768W        W46385   6.703   0.280   2.100  0.1189 -0.0909 -0.4045
30769W        W46386   5.227   7.584  10.279  0.1103 -0.2624 -0.0964
30770W        W46387   2.819   0.510   1.253 -0.1843  0.2623 -0.1341
30771W        W46388   2.591   5.132   0.350  0.2144  0.4887 -0.0170
30772W        W46389   5.623  16.981  14.499  0.1107  0.0087  0.4483
30773W        W46390   2.665   5.338  14.276 -0.2439 -0.3458  0.1542
30774W        W46391   9.098  11.076   0.414  0.3567 -0.0060  0.2905
30775W        W46392  13.281  15.235   0.553 -0.1684 -0.0931  0.2390
30776W        W46393  15.247  12.961   3.876  0.0373 -0.1797  0.2419
30777W        W46394  13.585   7.917   5.053 -0.0013 -0.0011 -0.0340
30778W        W46395   0.309  14.880   2.663  0.1672  0.2399 -0.3951
30779W        W46396   2.314   9.059  15.188  0.0228 -0.2408 -0.2485
30780W        W46397   9.642   9.836   3.635 -0.0893 -0.0896  0.2302
30781W        W46398   2.863  10.453   4.649 -0.0741  0.0210  0.0613
30782W        W46399   7.387   9.515   4.662  0.1635 -0.3401  0.0256
30783W        W46400   9.204  16.274  11.598  0.0835  0.2882  0.0228
30784W        W46401   7.597   3.956   1.842  0.3083  0.0637 -0.1797
30785W        W46402   6.344   8.810  14.746  0.0466  0.1274 -0.0355
30786W        W46403  14.250   1.464  15.446 -0.1352 -0.0353  0.0436
30787W        W46404   6.181   0.917  10.983  0.0916  0.0585  0.1757
30788W        W46405   8.775   3.808   2.343 -0.0531 -0.2681  0.0314
30789W        W46406  16.988   5.181   3.025  0.1688  0.1162  0.0409
30790W        W46407  12.967  14.244  14.255  0.3393 -0.1057 -0.2845
30791W        W46408  12.464   2.936  14.252  0.0127 -0.1347  0.1967
30792W        W46409   3.051  16.368  14.605  0.0292  0.1219  0.1773
30793W        W46410   8.862  17.319  14.214  0.0479  0.0631 -0.2861
30794W        W46411   9.264   2.466  14.474  0.1831  0.0964 -0.1081
30795W        W46412  15.359   8.256  12.647  0.2284  0.1480  0.0852
30796W        W46413   1.844   6.999  14.407 -0.1140  0.0440 -0.1044
30797W        W46414   8.121   9.262   2.212 -0.0764  0.0067 -0.0607
30798W        W46415  13.551  10.101   1.494 -0.2741 -0.1402  0.3322
30799W        W46416   2.350  17.752   0.825  0.1448  0.1170  0.0804
30800W        W46417   6.283   3.790  10.742 -0.3145 -0.4228  0.1237
30801W        W46418   9.395  16.279   0.659 -0.2745  0.0134  0.0496
30802W        W46419   2.351   2.678  14.828  0.1424 -0.0717  0.3036
30803W        W46420  13.666   0.060   2.179 -0.2586 -0.0877  0.0761
30804W        W46421   8.843   5.344  12.297  0.0119  0.0904 -0.0708
30805W        W46422  15.337   3.769  13.183 -0.0108 -0.1486 -0.1691
30806W        W46423  11.215  17.762  10.890  0.0031  0.2495 -0.0426
30807W        W46424  15.687   6.100   4.616  0.1430 -0.0894  0.1968
30808W        W46425   4.113   4.128  14.549 -0.0279 -0.0341  0.0269
30809W        W46426   5.130   1.613   0.780 -0.1403  0.0664  0.0261
30810W        W46427  12.635   5.322   1.165  0.1464  0.1192 -0.1356
30811W        W46428  10.549   9.824  12.620 -0.3021  0.1720  0.0002
30812W        W46429  15.603  17.059   2.170 -0.2285 -0.1113  0.0553
30813W        W46430  12.428  18.637   1.662  0.1063 -0.1208 -0.0685
30814W        W46431   1.001  12.607   3.700  0.0275 -0.2475 -0.0076
30815W        W46432  15.185  12.437  15.112 -0.0445  0.1308  0.1598
30816W        W46433  15.921   9.924   5.159 -0.1542 -0.1932  0.4108
30817W        W46434   4.286  13.912  15.075 -0.0184  0.1070  0.1047
30818W        W46435  13.119   8.372   4.763 -0.0380 -0.3180  0.2226
30819W        W46436  15.325  13.432  13.567 -0.1988  0.0569 -0.0880
30820W        W46437  17.266  14.311  13.241  0.1993 -0.2951  0.2564
30821W        W46438  12.615   8.900  12.084  0.0681 -0.0226 -0.1142
30822W        W46439   4.539   8.336   1.253  0.0921 -0.0338  0.0358
30823W        W46440   3.744  11.146   1.699  0.0073 -0.2078 -0.0460
30824W        W46441  13.756  18.073  12.077 -0.3205 -0.1564  0.3179
30825W        W46442  13.789   5.650   0.137  0.1375  0.1371 -0.1220
30826W        W46443   6.544  10.922   4.724 -0.0695  0.0420 -0.1293
30827W        W46444  14.854   2.735   2.426 -0.1028 -0.1397 -0.0980
30828W        W46445   3.314   8.923  14.267 -0.0575 -0.1427  0.0864
30829W        W46446  11.987   3.167   2.310 -0.1602  0.2481 -0.0560
30830W        W46447   5.758  18.394   2.042 -0.1745  0.6084 -0.2935
30831W        W46448   1.980   3.138   5.053 -0.0010 -0.2345  0.2659
30832W        W46449   0.447  14.778  11.465  0.2124 -0.0123 -0.1960
30833W        W46450  15.815  15.065  15.370  0.1634 -0.0085  0.0631
30834W        W46451  12.174  11.644   0.340 -0.0201 -0.1578 -0.1493
30835W        W46452  12.681   2.786  11.696 -0.0666 -0.1581 -0.0834
30836W        W46453   5.096  13.541   1.744 -0.2363  0.2777 -0.2930
30837W        W46454  17.999  12.060   2.458 -0.0718  0.3785  0.1750
30838W        W46455   8.645   8.794   0.430  0.0866 -0.1518  0.0033
30839W        W46456  17.471  12.925   5.658 -0.2151 -0.1730 -0.2298
30840W        W46457   2.304   9.730   4.788  0.1521 -0.1188  0.2242
30841W        W46458   0.991   1.721   4.112  0.1229 -0.0687 -0.3320
30842W        W46459  17.636   1.382  14.876 -0.1163  0.3909 -0.1658
30843W        W46460  11.640   4.141  14.557  0.0050 -0.1542  0.4198
30844W        W46461  13.825   3.363  14.215 -0.2245  0.2200  0.1295
30845W        W46462   3.794  15.857  15.125 -0.2000 -0.1580  0.0342
30846W        W46463   3.773   0.325   5.937  0.1238  0.2133  0.2717
30847W        W46464  17.614   9.173  15.133  0.0448  0.0952 -0.2456
30848W        W46465  15.928   3.153  14.268 -0.0769 -0.3584 -0.0355
30849W        W46466   1.613   1.380  13.255 -0.1756  0.0733  0.2531
30850W        W46467  14.643  10.003   4.172  0.2724 -0.1511  0.1260
30851W        W46468  10.372  14.680  12.478 -0.5540  0.1602  0.1576
30852W        W46469   7.065  13.161   1.439 -0.1583 -0.2324  0.3960
30853W        W46470  13.181  11.627  13.289 -0.1060  0.0788  0.1736
30854W        W46471   2.870   5.002  13.653 -0.1723 -0.0029 -0.0327
30855W        W46472   2.430   9.924  13.837 -0.0791 -0.0848  0.0664
30856W        W46473   3.609   0.592  11.821  0.0931  0.0118  0.0517
30857W        W46474  18.028  11.861  14.637  0.1962 -0.3112 -0.1281
30858W        W46475   5.212   2.071   0.873  0.1540 -0.0918 -0.0164
30859W        W46476  13.101   0.959  10.187 -0.0462 -0.0290 -0.0499
30860W        W46477   1.319   8.491  14.495  0.1413 -0.1015  0.1506
30861W        W46478  12.647   1.305   3.500 -0.1089  0.0602 -0.1477
30862W        W46479  16.223  14.390   3.670  0.2529 -0.1568  0.1294
30863W        W46480   4.412  15.981  14.080  0.1971  0.0174 -0.2670
30864W        W46481   0.392   3.915  12.479 -0.0654  0.1321 -0.1985
30865W        W46482   2.208  14.917  15.769 -0.0497 -0.2368 -0.2704
30866W        W46483   3.000  15.316   3.512  0.1790  0.0292 -0.0664
30867W        W46484  17.565  17.694   0.335 -0.0833  0.2333 -0.1893
30868W        W46485  17.616  16.355  11.268  0.1451  0.2935 -0.0270
30869W        W46486  11.593   5.189  15.453 -0.1548  0.2374 -0.1962
30870W        W46487   5.044   3.123   0.802  0.1647  0.1312  0.0027
30871W        W46488  18.109  13.066   4.637  0.1261 -0.3808 -0.2419
30872W        W46489   1.200  11.786  14.413  0.0960 -0.1636 -0.0427
30873W        W46490   5.138   7.314   3.320 -0.3430 -0.1569  0.2364
30874W        W46491  11.395  12.038   0.743  0.1806  0.2250 -0.0441
30875W        W46492   5.061   9.017   2.380  0.5013 -0.1765 -0.0955
30876W        W46493  14.122   0.324  12.843  0.3153 -0.0972 -0.1230
30877W        W46494  18.252  13.002   1.716  0.3016  0.0401 -0.0090
30878W        W46495   5.607  11.142  14.257 -0.1430  0.0281  0.2418
30879W        W46496   6.777   4.334   4.064 -0.0714  0.2416 -0.1816
30880W        W46497   2.742  18.132   4.981 -0.0446  0.2528 -0.1100
30881W        W46498  14.875  11.249   0.520 -0.3015 -0.0300  0.3355
30882W        W46499   6.960  18.139  10.862  0.0371 -0.0935 -0.1972
30883W        W46500   9.971  13.345  12.642  0.0398 -0.2011  0.1240
30884W        W46501  15.945   8.608   0.909  0.1327 -0.1753  0.0927
30885W        W46502  10.163  17.533  12.322  0.0296 -0.1100 -0.0449
30886W        W46503  17.852   7.612   4.548  0.1922 -0.2687 -0.2294
30887W        W46504   7.350  12.708  13.672  0.0969 -0.2033  0.2042
30888W        W46505  16.287   9.247   4.716 -0.0981  0.1145  0.1283
30889W        W46506  12.173  10.756  15.665  0.0377 -0.2135 -0.1603
30890W        W46507  14.914   1.387   4.970 -0.2547 -0.0769 -0.2517
30891W        W46508  18.581  11.670   5.225  0.1339 -0.2677  0.0899
30892W        W46509  14.254   8.303   3.210 -0.1078  0.4018 -0.2384
30893W        W46510  14.613   0.095   2.161 -0.2575 -0.2881 -0.0220
30894W        W46511  16.374  17.700  15.050  0.2226 -0.0713 -0.0576
30895W        W46512  17.696  16.298   5.293 -0.0333  0.0350  0.0309
30896W        W46513   6.378  12.104   5.162  0.1291  0.2340 -0.0114
30897W        W46514   5.822   9.227  11.815  0.1097  0.3618  0.1000
30898W        W46515   0.957  14.695  11.798 -0.2149  0.3268  0.0558
30899W        W46516  16.553  11.097   3.197  0.0468 -0.1204  0.1087
30900W        W46517   1.709   7.718  12.185 -0.0554  0.3119  0.0502
30901W        W46518   1.015  14.038  13.994 -0.0149 -0.0458 -0.2833
30902W        W46519  11.174   5.064   1.627  0.1933  0.3305  0.0635
30903W        W46520  13.724  17.847   3.554 -0.0017 -0.3056 -0.0183
30904W        W46521  13.805  11.466   1.819 -0.0830 -0.0416 -0.0649
30905W        W46522  16.054  11.186  15.763  0.0911 -0.2515  0.1284
30906W        W46523  15.773   8.625  15.139  0.3104  0.0993 -0.0165
30907W        W46524  14.400  17.449  12.460 -0.1399  0.1916  0.1925
30908W        W46525  16.183   1.690   3.095 -0.0352  0.2117 -0.1004
30909W        W46526   5.647  10.044   4.785  0.1143 -0.1717  0.0106
30910W        W46527   7.781   0.668   4.052 -0.3060  0.0624  0.0613
30911W        W46528  14.257   8.022   1.841  0.0156 -0.1571 -0.1618
30912W        W46529   7.199   0.736   3.044 -0.2400 -0.1453 -0.1322
30913W        W46530  18.407   5.222   4.205  0.0689 -0.1301 -0.4974
30914W        W46531   7.688  18.657  11.188  0.2784  0.1661  0.1306
30915W        W46532   4.163   5.366   0.891 -0.1009 -0.0950  0.1681
30916W        W46533  10.356   7.707   2.052  0.2774 -0.1606 -0.0562
30917W        W46534   2.220   7.117   2.343  0.1995  0.1014  0.1229
30918W        W46535   7.087   5.710   4.059  0.1629  0.3269 -0.1407
30919W        W46536  10.995   2.618  13.743 -0.1619 -0.2133  0.0613
30920W        W46537   6.204   2.311  14.582  0.0632  0.0913  0.2374
30921W        W46538  18.650  14.867   0.527  0.2161 -0.1073 -0.3060
30922W        W46539   8.307   4.856   4.600 -0.1019  0.1140  0.1226
30923W        W46540   8.153  18.275   4.764  0.2874  0.1322  0.3964
30924W        W46541   8.838   2.063   5.541  0.1471  0.0994  0.0074
30925W        W46542  13.112   3.747  15.581 -0.1654  0.2011  0.1323
30926W        W46543   1.712   6.393   4.340  0.0751  0.2980  0.2819
30927W        W46544  17.708  15.897   3.469  0.0057 -0.0674 -0.1335
30928W        W46545  15.976   1.550  14.979 -0.0409  0.1985  0.0006
30929W        W46546  15.865   8.025   1.526  0.3666 -0.0509  0.0794
30930W        W46547  10.596  12.452   2.292 -0.2568 -0.0272  0.0206
30931W        W46548   3.941   0.830   5.544  0.0434 -0.0426  0.1612
30932W        W46549  17.856  15.000  15.305 -0.1427 -0.0017 -0.1537
30933W        W46550   9.502   0.475  11.875  0.1015  0.2297 -0.0143
30934W        W46551   6.426   0.952  12.786 -0.3141  0.1587 -0.4139
30935W        W46552   2.319  10.706   1.834 -0.2155  0.1269  0.0429
30936W        W46553   3.384   0.076  14.793  0.0550 -0.1613 -0.2994
30937W        W46554  10.492   2.221   3.119  0.0909 -0.0463  0.0566
30938W        W46555  16.530  17.469   2.092  0.1653  0.1928 -0.0723
30939W        W46556  14.809   8.535  12.309  0.0969 -0.0382  0.1187
30940W        W46557   9.463   6.664  13.005  0.1883 -0.0921  0.0802
30941W        W46558   9.987  10.309   9.861 -0.1755  0.0954 -0.0899
30942W        W46559  14.968   7.618  14.786  0.3113  0.3980  0.0142
30943W        W46560  16.150   0.939   0.973  0.1340  0.2720 -0.0083
30944W        W46561  16.240   5.962  12.172  0.3333 -0.2056 -0.0995
30945W        W46562   3.243   4.099  13.867 -0.2767  0.3260 -0.0629
30946W        W46563  17.838   2.081   4.714 -0.0559  0.3111 -0.1952
30947W        W46564   4.943  17.714   4.412 -0.0275 -0.2551  0.2364
30948W        W46565   7.124  17.172   3.993  0.0324  0.0746 -0.0793
30949W        W46566   8.238  13.607  11.033 -0.1041  0.0580 -0.0060
30950W        W46567  17.547  14.227  12.400 -0.0173  0.0891 -0.1450
30951W        W46568  10.602   5.038  14.339  0.0385  0.1481 -0.0166
30952W        W46569  15.644  13.494  14.253  0.0782 -0.2261 -0.2587
30953W        W46570  12.392  17.673  15.566 -0.3162  0.0553 -0.1181
30954W        W46571  17.982   1.420  14.037 -0.2712  0.4217  0.2328
30955W        W46572   0.578   5.518  15.144  0.1121 -0.1329  0.0017
30956W        W46573   9.467  18.287  15.544 -0.0347 -0.0917  0.0600
30957W        W46574  11.455   1.977  11.542 -0.4163  0.0717  0.0337
30958W        W46575   7.671  17.490  15.464 -0.0929  0.0843  0.0588
30959W        W46576   1.957  12.400  11.584  0.0379 -0.4248  0.1837
30960W        W46577   9.391   4.685  11.656 -0.1094  0.2745 -0.3440
30961W        W46578  14.665  16.659  14.284  0.3209  0.0471 -0.1408
30962W        W46579  10.712   6.386   1.911  0.1986  0.1782  0.0907
30963W        W46580  12.790   3.547   4.666  0.0716  0.1456 -0.1010
30964W        W46581   6.546   1.502  11.851  0.0100 -0.0038  0.0294
30965W        W46582  13.386  13.824   1.668 -0.0645  0.2649  0.0809
30966W        W46583  10.285  13.194   3.019  0.2063 -0.1786  0.1342
30967W        W46584   2.148  15.526  12.030 -0.0902  0.1616  0.0845
30968W        W46585  10.267   1.163   5.611  0.1198 -0.1235  0.2838
30969W        W46586  18.398   8.333  10.712 -0.2472  0.2533  0.3801
30970W        W46587  12.151   8.727  14.377  0.1200  0.0698 -0.0095
30971W        W46588   1.671  11.651  12.066 -0.0895  0.0013  0.4227
30972W        W46589   8.271  11.698  10.272  0.0797  0.1379  0.1329
30973W        W46590  13.253   6.330  11.881  0.1361 -0.0720  0.1043
30974W        W46591   8.054  10.149   1.007 -0.1973 -0.1239  0.1495
30975W        W46592   7.275  11.370   3.719  0.1224  0.1790  0.0928
30976W        W46593  11.723   6.326   2.232 -0.1278  0.1501  0.1543
30977W        W46594   5.510   5.493  15.514 -0.2113 -0.2004 -0.0640
30978W        W46595  16.885   9.183   1.837 -0.0504  0.0584 -0.0583
30979W        W46596   1.671  15.463  15.347 -0.0164  0.0423 -0.0569
30980W        W46597  17.364  10.582  10.667  0.0474 -0.1348  0.0271
30981W        W46598  17.260   9.600   5.199  0.1876  0.1669 -0.1747
30982W        W46599  17.222  17.867  15.699 -0.2971  0.3302 -0.0406
30983W        W46600   8.114   0.787  13.459  0.2091  0.2078 -0.2302
30984W        W46601   6.252   7.257  14.219  0.2237 -0.2079  0.1125
30985W        W46602   8.242   9.733   3.630  0.0687 -0.0666  0.1613
30986W        W46603   2.397  14.330   0.554 -0.0049  0.0763 -0.1419
30987W        W46604  12.710  12.277   3.897 -0.2730  0.0672  0.2065
30988W        W46605   5.796  17.540   3.168 -0.2747 -0.3017  0.0283
30989W        W46606   6.307   5.097  13.801  0.1854  0.3071  0.0253
30990W        W46607  16.030   8.168   2.437 -0.0900  0.1171 -0.0068
30991W        W46608  10.718  10.944   0.874  0.3013 -0.0748  0.0480
30992W        W46609  18.341  12.141   1.337 -0.4505  0.0225 -0.0031
30993W        W46610  17.940  17.147   3.947 -0.4328 -0.0457 -0.1892
30994W        W46611  15.539  10.325  13.007  0.3597 -0.0713  0.2836
30995W        W46612   7.723  11.383   2.568  0.1412  0.0383 -0.1674
30996W        W46613   9.148   7.414   1.143  0.2048 -0.0362 -0.0591
30997W        W46614  17.984   2.250  11.801 -0.0681 -0.0282 -0.2999
30998W        W46615  12.849  14.172  13.437  0.1081 -0.1016  0.0239
30999W        W46616  16.415   9.412   4.078  0.0839 -0.1714 -0.0844
31000W        W46617  12.997  11.058   1.228  0.0661 -0.0926  0.0031
31001W        W46618   7.289   0.950  11.275  0.0201  0.2100  0.2470
31002W        W46619   7.645  10.930   1.380 -0.1036  0.2255 -0.2249
31003W        W46620   1.886  10.569   2.805  0.1649  0.3668 -0.2045
31004W        W46621   3.360   7.611  14.571  0.1404 -0.0731  0.2924
31005W        W46622   1.740   8.169  11.119  0.1858  0.0809  0.0001
31006W        W46623  13.252   4.637  14.924 -0.0331 -0.0279  0.1674
31007W        W46624  11.970  15.506   5.937  0.1240 -0.0323 -0.3095
31008W        W46625  12.853  18.600  14.724  0.0324  0.0700 -0.1078
31009W        W46626   2.235  10.935   2.975  0.0449  0.2084  0.0354
31010W        W46627  17.317  15.223  11.075  0.2159  0.1871  0.1117
31011W        W46628  12.915   7.960   3.730  0.1959 -0.0203  0.3428
31012W        W46629   4.235   9.755   3.693 -0.2636 -0.3557 -0.2112
31013W        W46630   0.919  10.274  12.414 -0.2518 -0.0029 -0.1047
31014W        W46631   0.438   8.378   3.577 -0.2957  0.2965 -0.2849
31015W        W46632  11.036   6.814  12.787 -0.3801 -0.2233 -0.0541
31016W        W46633   8.519   2.230  15.018  0.3757  0.3904 -0.0697
31017W        W46634  14.233  16.916   0.833  0.0077 -0.0838 -0.0020
31018W        W46635   5.318  17.121  10.508  0.0343  0.1460  0.1260
31019W        W46636   6.752  14.431   3.650 -0.0318  0.0726 -0.3615
31020W        W46637   2.325   0.958  14.583 -0.0298 -0.1719  0.1109
31021W        W46638  11.570   0.374   4.777  0.0982 -0.2327 -0.1216
31022W        W46639   1.091   9.491   1.764 -0.1357 -0.2004 -0.0641
31023W        W46640  12.438   4.372   0.089  0.1505  0.1065 -0.4010
31024W        W46641  16.509   7.949   2.869  0.1734  0.0023 -0.0073
31025W        W46642  11.453   5.848   3.782  0.2107 -0.2586  0.1401
31026W        W46643   0.397   5.558   0.330 -0.0802  0.0988 -0.2221
31027W        W46644   2.159  16.264   4.727  0.0811  0.0927 -0.1226
31028W        W46645   3.039  10.964  14.634 -0.0064  0.1240 -0.1949
31029W        W46646   9.154   0.537   3.708 -0.0901  0.0179  0.0658
31030W        W46647  10.481   4.730   4.617 -0.4998  0.1207  0.1145
31031W        W46648   7.083  18.298   0.773  0.0620  0.1026  0.0343
31032W        W46649  11.633  13.733   2.682 -0.0206 -0.1247  0.0522
31033W        W46650   5.494   3.310  12.375  0.0999 -0.0219  0.0146
31034W        W46651   4.830  10.908   1.447 -0.1188 -0.0328  0.0142
31035W        W46652  14.295  16.807   3.564  0.3867 -0.0864  0.1324
31036W        W46653  12.660   4.023   4.792  0.1744  0.0098  0.1440
31037W        W46654   4.618   3.822  11.758 -0.1261  0.0213  0.2289
31038W        W46655  12.985  17.808  14.834  0.2994 -0.1008  0.0475
31039W        W46656   0.529  10.877   3.842 -0.1377 -0.0105 -0.2962
31040W        W46657  18.461   1.886  13.589  0.0616 -0.2262 -0.2804
31041W        W46658  11.038  13.121   4.680 -0.0927 -0.0862 -0.0852
31042W        W46659   4.920  10.963  12.498 -0.2686 -0.1122 -0.1645
31043W        W46660  11.517   0.263   2.877  0.2741  0.0793 -0.0861
31044W        W46661  16.235  17.017   3.826  0.0126 -0.0212  0.1637
31045W        W46662  17.493   4.974  10.771  0.1524  0.1774  0.2073
31046W        W46663   8.426   9.900   2.759  0.0343  0.0750 -0.0321
31047W        W46664  13.212   4.998  15.785  0.1716 -0.0706  0.2354
31048W        W46665   6.498   5.241   1.951  0.1230 -0.1393  0.0369
31049W        W46666   6.260   2.401   3.931  0.2949 -0.0161  0.0144
31050W        W46667   9.164   7.535   3.347  0.1033  0.2800 -0.0105
31051W        W46668   6.623  17.295  14.223 -0.3460  0.2837  0.2327
31052W        W46669   7.646  17.372  10.726 -0.0358  0.2181 -0.0794
31053W        W46670  10.643  10.709   0.180 -0.1689  0.2268 -0.1946
31054W        W46671   0.224   6.216  10.938  0.1599 -0.0197  0.2200
31055W        W46672   0.096   0.192  15.091  0.1237 -0.3760  0.2686
31056W        W46673   1.437   1.851   0.857  0.0563  0.0402  0.2603
31057W        W46674   0.817  10.924   1.519 -0.0087 -0.2851 -0.2766
31058W        W46675  14.528   2.042   3.258  0.2011  0.2132  0.2069
31059W        W46676  10.954   1.121   2.696 -0.0382 -0.0934 -0.1104
31060W        W46677   0.274   8.346  15.414 -0.0850  0.0813 -0.1975
31061W        W46678  10.739   2.955   0.837  0.0307  0.0125  0.1883
31062W        W46679   6.403   1.533   1.805  0.0184  0.0169 -0.2062
31063W        W46680  10.171  15.517  12.797  0.0769  0.0704 -0.1013
31064W        W46681   5.412  10.291  10.910 -0.1770  0.0135 -0.1180
31065W        W46682   3.170   0.455   3.176 -0.0907  0.0914  0.0720
31066W        W46683  11.701  16.522  14.188  0.0093 -0.0935 -0.0171
31067W        W46684   6.214   9.313   2.303  0.0354  0.1093  0.1372
31068W        W46685   1.188   3.177   5.757  0.2691  0.2117  0.1208
31069W        W46686  16.329   5.595   2.294 -0.0595 -0.1871  0.3993
31070W        W46687   0.485  17.315   4.806 -0.1976  0.1247  0.1750
31071W        W46688   1.814  15.154   1.469  0.2145 -0.1109 -0.1594
31072W        W46689   4.886  12.631   1.904 -0.3034 -0.1957  0.0067
31073W        W46690   7.057   0.395   3.394 -0.2232  0.1362  0.0628
31074W        W46691   6.179   9.085  14.385 -0.1061 -0.1403  0.0789
31075W        W46692   9.867  16.167   0.988  0.1169 -0.1243 -0.0676
31076W        W46693   1.630   4.718  12.860 -0.1410  0.2691  0.0055
31077W        W46694  16.946   8.705   1.257 -0.0096 -0.4826  0.3293
31078W        W46695  13.929  11.866   3.795  0.1290  0.0891 -0.1903
31079W        W46696   4.763   1.046   4.866 -0.0183  0.0701  0.0728
31080W        W46697  15.993   2.612   4.369 -0.1938 -0.1633  0.0360
31081W        W46698   0.563   0.935  12.789 -0.0758  0.0465  0.2298
31082W        W46699   1.791   8.801   3.979 -0.2104 -0.1015  0.0117
31083W        W46700   6.483  15.303  10.813  0.0929 -0.2195  0.0250
31084W        W46701   9.083  14.159  12.767 -0.2667 -0.1526  0.3390
31085W        W46702  13.969  14.046  14.146 -0.1668  0.0347 -0.0903
31086W        W46703  10.075   0.264   5.693 -0.1329 -0.0209 -0.0984
31087W        W46704  17.503   1.545   6.685  0.1869  0.0966 -0.1036
31088W        W46705   5.475   6.294  11.930  0.0339 -0.1004 -0.1910
31089W        W46706  10.076  18.517   0.347  0.0882 -0.0413  0.0283
31090W        W46707   5.336   5.249  12.607  0.3809  0.1078 -0.1357
31091W        W46708  16.967  14.911  12.031  0.1392  0.0895  0.1736
31092W        W46709  15.667  10.607  13.814 -0.0074  0.0227 -0.2540
31093W        W46710   5.982  12.829  13.469 -0.2909 -0.2831 -0.0250
31094W        W46711  12.430   5.096  15.175  0.0097 -0.0907 -0.1437
31095W        W46712   1.223  14.080  14.611 -0.3143  0.0373 -0.2754
31096W        W46713  16.947   5.977  13.729 -0.0671  0.3562 -0.1792
31097W        W46714   4.719  16.042  15.468 -0.1985 -0.4211  0.3033
31098W        W46715   2.160   7.024   5.268  0.2408  0.0619 -0.0151
31099W        W46716  16.704   3.874   0.356 -0.1496  0.1640  0.1124
31100W        W46717  16.078  15.911  11.067 -0.1046 -0.3511  0.0492
31101W        W46718   8.439   9.081  11.985 -0.1384 -0.3616 -0.1330
31102W        W46719   9.482   1.194   1.506 -0.2348  0.1975 -0.0644
31103W        W46720   6.074   9.366  15.215 -0.0303 -0.0686 -0.0397
31104W        W46721   9.701  17.362   0.855  0.0163  0.3123 -0.2397
31105W        W46722  15.398   6.419  12.069  0.0409 -0.1346 -0.0180
31106W        W46723  11.005   4.016  13.602  0.1833  0.1022  0.2713
31107W        W46724   6.265   5.184  14.337  0.2084 -0.0057 -0.2016
31108W        W46725  10.577   7.194   4.954  0.1300 -0.1072 -0.1676
31109W        W46726   9.271  17.192   1.169 -0.0683  0.0688 -0.0486
31110W        W46727   5.384  11.605  12.222 -0.3066 -0.0967  0.2042
31111W        W46728   8.022  17.683  15.076  0.1919  0.2860 -0.0210
31112W        W46729  17.759   5.878  11.408  0.0837 -0.5428  0.1059
31113W        W46730  17.277  12.281  14.204  0.0245  0.0190  0.0970
31114W        W46731   8.727  14.649   0.938 -0.0432  0.2437  0.2538
31115W        W46732  11.016   5.700   3.296 -0.3219 -0.2086 -0.2099
31116W        W46733  11.384   5.783   5.323 -0.2653  0.1430 -0.2074
31117W        W46734  17.194  13.507  10.711  0.0359  0.0041 -0.0587
31118W        W46735  10.118  14.889  15.219 -0.3412 -0.0319 -0.1756
31119W        W46736   5.719  17.328  15.080 -0.0553  0.0057 -0.0790
31120W        W46737   7.148   6.113   5.331 -0.0955 -0.1244 -0.0458
31121W        W46738   5.639   2.290  11.286 -0.0714 -0.2544 -0.0570
31122W        W46739  11.205   1.906  12.589 -0.0365  0.2104  0.5182
31123W        W46740  10.738  12.711   1.905  0.0591  0.0442 -0.0239
31124W        W46741   0.836  15.657   4.276  0.0992  0.0596  0.1382
31125W        W46742   3.343   8.966  12.193  0.3661 -0.5048  0.1027
31126W        W46743   3.585   1.505   4.200  0.2369  0.1758 -0.2074
31127W        W46744  11.224   6.119  15.577 -0.0172  0.0465  0.1041
31128W        W46745  13.166  12.626   2.251  0.1797  0.1110 -0.1467
31129W        W46746   8.822  14.701  10.560 -0.0379  0.1166 -0.0293
31130W        W46747   5.021   0.708   1.679  0.0022 -0.0869 -0.1401
31131W        W46748   3.011  17.265  14.296  0.2508 -0.1360 -0.0883
31132W        W46749   9.909  11.843   3.560 -0.2408 -0.3056 -0.2583
31133W        W46750  10.123  13.387  11.021 -0.2484 -0.0052  0.0370
31134W        W46751  18.288   1.775  13.120  0.0365 -0.1044  0.1737
31135W        W46752  15.652  11.615  11.376  0.3308  0.1297 -0.0121
31136W        W46753  14.279  12.696   4.777  0.0015  0.2209  0.1239
31137W        W46754  10.110   5.043  14.356  0.0699  0.1060  0.0781
31138W        W46755   4.636  14.020  12.253  0.1771 -0.0702  0.2432
31139W        W46756   1.789   5.909   2.693 -0.1929 -0.0879  0.2219
31140W        W46757  11.628  10.803  15.793  0.2906 -0.0616  0.0163
31141W        W46758   8.429  17.358   0.896 -0.4164 -0.1600 -0.3714
31142W        W46759   5.572   0.619  15.161 -0.2159 -0.2392 -0.2599
31143W        W46760   9.585   0.829  14.917  0.2463  0.0977 -0.1452
31144W        W46761   3.861   7.049   4.118 -0.0350  0.0254 -0.2286
31145W        W46762   2.176   8.551   0.685 -0.0240 -0.0778  0.0529
31146W        W46763   0.927   0.438  15.186  0.0185 -0.0010 -0.1214
31147W        W46764   4.056   5.876   3.428  0.2378 -0.2832  0.2755
31148W        W46765  14.941  16.769   5.448 -0.0550 -0.4068  0.2288
31149W        W46766   8.482   6.726   6.556  0.0692 -0.4185  0.0424
31150W        W46767  18.305   9.381   1.096  0.0829 -0.0556  0.0771
31151W        W46768   4.650   9.336  15.351  0.4229  0.1950 -0.0328
31152W        W46769   1.286  13.736  11.961  0.0101 -0.0141  0.1060
31153W        W46770   8.379   1.130   0.294 -0.0490  0.0500 -0.2510
31154W        W46771   0.755  12.995  12.553  0.2696  0.3660 -0.2369
31155W        W46772   2.119  15.248  13.819 -0.0489  0.2807 -0.1427
31156W        W46773  15.958   3.027  12.974 -0.1758  0.0054  0.0212
31157W        W46774  16.131   2.056  15.601 -0.3740  0.1369  0.1904
31158W        W46775  18.491  17.922  15.755  0.2395 -0.0442  0.0204
31159W        W46776   3.238  16.158   3.687  0.3877 -0.2364  0.0848
31160W        W46777   1.131  10.703  12.217  0.0832 -0.2504  0.1458
31161W        W46778   9.393   8.057  11.441  0.2868 -0.1601 -0.1237
31162W        W46779  17.050   0.034  14.688  0.3644 -0.4379  0.1608
31163W        W46780   6.487  12.734   3.111 -0.2540  0.2503 -0.1895
31164W        W46781  15.198  15.563  12.048 -0.0054 -0.0525  0.2112
31165W        W46782  14.034   8.170  15.482  0.0866  0.0169  0.4068
31166W        W46783  15.590  13.687  15.771  0.1324  0.0439 -0.1489
31167W        W46784   3.537   8.139   4.761  0.1660  0.1613 -0.2594
31168W        W46785   7.938  11.606   0.150  0.0037  0.1275 -0.1151
31169W        W46786  11.260  16.601  13.511 -0.0951 -0.0344  0.0648
31170W        W46787   7.478   1.795   4.630  0.0864  0.1638 -0.0959
31171W        W46788  11.428  12.469  11.221 -0.0169 -0.0310  0.0548
31172W        W46789   5.971   2.841   1.947  0.1977  0.0598  0.2501
31173W        W46790   7.651  15.253  14.933 -0.3197 -0.0679 -0.0640
31174W        W46791   6.332  11.013   1.718 -0.2405  0.0972  0.3909
31175W        W46792  10.693   4.382  14.980 -0.2035  0.1641 -0.0293
31176W        W46793  15.576  11.090  11.256  0.0862  0.1892  0.2611
31177W        W46794  14.712  11.590   3.293  0.0948 -0.1362 -0.1345
31178W        W46795   8.814   7.086  14.550  0.0949  0.0487 -0.0581
31179W        W46796  12.266  13.304  11.226  0.0190 -0.2562 -0.0298
31180W        W46797  12.066   1.229   5.110  0.1439  0.0496  0.1092
31181W        W46798   4.695  11.026   2.697  0.1427  0.0628 -0.3376
31182W        W46799   6.380   6.026   0.388 -0.1583  0.2310  0.0557
31183W        W46800   6.404   3.586  15.516 -0.4224 -0.0371 -0.1265
31184W        W46801   1.126  16.740  14.811  0.0402 -0.0187 -0.0268
31185W        W46802   0.398   7.779  15.478 -0.0684  0.0799  0.0399
31186W        W46803   1.576  17.150   0.802  0.1776 -0.4200 -0.0545
31187W        W46804   8.462  14.731   3.427 -0.1041  0.0099 -0.1160
31188W        W46805   1.847  17.701  10.802  0.0596  0.0885 -0.0560
31189W        W46806  10.170  13.719   1.773 -0.1223  0.0800 -0.2404
31190W        W46807   0.607   8.702   2.431  0.0431 -0.2289 -0.0353
31191W        W46808  12.633  16.719  11.544 -0.3179  0.1067 -0.1308
31192W        W46809  12.779   4.348  15.416  0.0738 -0.0812  0.2854
31193W        W46810   7.512   9.685   4.147  0.1781  0.1797 -0.0399
31194W        W46811  14.631   2.545   1.347  0.1610 -0.0805  0.4552
31195W        W46812   8.537   9.645  11.270  0.0723 -0.1295  0.2749
31196W        W46813  17.160  17.981  11.314  0.0186  0.1199 -0.1460
31197W        W46814   7.288  15.196  15.263  0.1137  0.0688  0.0001
31198W        W46815  11.146  16.171   4.387 -0.0967  0.3198 -0.0804
31199W        W46816   9.969   0.996  12.169 -0.1582  0.1235 -0.1101
31200W        W46817  14.409  15.346  14.786 -0.1702  0.1077  0.4034
31201W        W46818  13.078  11.955   4.228  0.0625 -0.1784 -0.1192
31202W        W46819   7.661  18.494   1.898  0.2049 -0.3694  0.0728
31203W        W46820  12.234  10.455  10.665 -0.2400  0.0442  0.0734
31204W        W46821   0.891   4.541   5.898 -0.3450  0.0438 -0.2702
31205W        W46822  17.912   3.667  14.964 -0.2175  0.1040 -0.3079
31206W        W46823   2.900  10.770   1.592 -0.3726  0.1551  0.2000
31207W        W46824  17.867   0.353   0.667 -0.2279  0.0594  0.1594
31208W        W46825   8.801  14.675  11.035  0.0844 -0.1129  0.0532
31209W        W46826  12.157   2.521   5.495 -0.2718 -0.0149  0.0828
31210W        W46827  11.467  12.931   1.472  0.2491 -0.1653  0.1338
31211W        W46828  14.378   9.819   2.330 -0.0852  0.3286 -0.2305
31212W        W46829   0.106   8.649  10.398  0.0829 -0.4220 -0.1674
31213W        W46830   5.409   5.445   5.125 -0.0959 -0.1764 -0.1688
31214W        W46831   1.834   5.390   4.470 -0.0184 -0.0555  0.0859
31215W        W46832  17.948  14.519  13.929 -0.3021 -0.3528  0.5228
31216W        W46833   0.746   8.714   3.821  0.0682  0.3474 -0.1774
31217W        W46834  12.438  12.943   1.800  0.1786  0.2130  0.0978
31218W        W46835   8.882  16.735  10.984 -0.0534  0.0023 -0.2855
31219W        W46836  11.457   3.034   5.296  0.0613 -0.2690  0.0771
31220W        W46837   7.039   1.805  14.945  0.1951  0.3395  0.0089
31221W        W46838  12.868  14.687   3.124 -0.0676  0.2778 -0.0120
31222W        W46839   0.160   8.792   4.193 -0.0419 -0.0783  0.3290
31223W        W46840   6.751  12.440   2.769  0.2284 -0.4200  0.3509
31224W        W46841   0.316   9.852   2.759  0.0629 -0.0349 -0.3267
31225W        W46842   8.459  17.267   0.240 -0.0738  0.2151 -0.0598
31226W        W46843   5.542   8.592   3.192 -0.0853 -0.1122 -0.0233
31227W        W46844   4.122  12.991  13.798 -0.2252  0.1221 -0.4656
31228W        W46845   2.418  17.044  14.451 -0.1330 -0.1784 -0.2945
31229W        W46846   7.672  11.819   2.164 -0.0090  0.0965 -0.1746
31230W        W46847  18.362   6.609  13.838  0.0195  0.1162 -0.0315
31231W        W46848  10.599  12.933  14.151  0.0124  0.1084  0.0251
31232W        W46849   5.558  16.411   3.504 -0.0117  0.3391  0.1676
31233W        W46850   0.652  13.402  14.037 -0.0779  0.0846  0.1016
31234W        W46851   9.516  16.614  14.109  0.0799  0.0486 -0.4119
31235W        W46852   5.074  13.136  14.075 -0.1796  0.1432  0.1683
31236W        W46853   7.244   5.128   6.232  0.0605  0.1055 -0.1711
31237W        W46854   1.023   2.066  12.651  0.0317 -0.2288 -0.3000
31238W        W46855   1.805   3.508   5.473  0.4682  0.0556 -0.0568
31239W        W46856   6.432   2.010   0.625 -0.1394  0.1338  0.0269
31240W        W46857  11.544  10.085   2.602  0.2525 -0.1070  0.2822
31241W        W46858   8.840   5.670  14.037  0.0077 -0.1850 -0.3233
31242W        W46859   2.061  13.265   2.762  0.0930  0.1889  0.0674
31243W        W46860   5.916  17.599   4.755 -0.5554  0.2353 -0.0611
31244W        W46861  12.786  13.750   5.306 -0.1285 -0.0956  0.0571
31245W        W46862   2.297  14.536  15.044 -0.3169  0.2943  0.2038
31246W        W46863   8.748   9.352  14.327  0.1416  0.0021 -0.0550
31247W        W46864   0.854   3.166  15.745  0.0479 -0.1972  0.1723
31248W        W46865  10.141   7.382   2.351  0.2512  0.0693  0.1155
31249W        W46866   1.981   4.138   2.031 -0.4883 -0.2563 -0.0261
31250W        W46867   9.685  12.010  14.396 -0.2651 -0.0640  0.0737
31251W        W46868  17.849  12.971   3.232 -0.0581 -0.2358 -0.0547
31252W        W46869  16.080  13.320  15.180 -0.0333  0.0370 -0.4138
31253W        W46870   8.984  14.252   1.728  0.2419  0.0464  0.2192
31254W        W46871   6.801  11.264   4.499 -0.1984 -0.2951  0.0182
31255W        W46872   8.901   5.504   3.425  0.0192  0.0586 -0.4980
31256W        W46873  11.183   9.803  10.644  0.1680  0.0719 -0.1717
31257W        W46874  17.633  16.919   2.915  0.2821 -0.2139  0.1235
31258W        W46875  14.173  10.536  14.795  0.3203  0.1201 -0.0862
31259W        W46876   2.707  14.868  11.726 -0.2004  0.0130 -0.3866
31260W        W46877  14.502  13.727  14.940 -0.0502  0.0438  0.0334
31261W        W46878   6.196  13.770   0.632 -0.0933 -0.0523 -0.1563
31262W        W46879   5.974   5.740   1.214 -0.0159 -0.1771 -0.2047
31263W        W46880   6.536   4.838   0.579  0.1209  0.0342  0.0636
31264W        W46881  13.055   2.600   3.046 -0.1869  0.6502 -0.3501
31265W        W46882   7.794  13.939   4.289 -0.0227 -0.1553  0.0926
31266W        W46883  11.341   7.273   0.753  0.1854 -0.0680 -0.3164
31267W        W46884  10.645   5.052   5.486 -0.0924 -0.2557  0.1250
31268W        W46885  12.125  12.290  15.269  0.0165  0.0169 -0.0102
31269W        W46886  14.488   3.893  14.567  0.3856 -0.0291 -0.2538
31270W        W46887   1.350  13.153   2.199 -0.0408 -0.1264 -0.2300
31271W        W46888  10.367   5.964   3.887 -0.1674 -0.0184  0.0042
31272W        W46889   8.369   9.231  11.034 -0.1405 -0.1046 -0.4708
31273W        W46890   1.505  15.020  15.203 -0.1294 -0.1903  0.1901
31274W        W46891   3.201  12.890   5.350  0.0413  0.0440  0.1749
31275W        W46892   8.571   0.125   1.796 -0.0355  0.0584 -0.1091
31276W        W46893  13.796  17.236  15.735 -0.2974  0.0808 -0.0560
31277W        W46894  13.970   8.052   2.904 -0.0761  0.0430  0.1358
31278W        W46895   4.797  12.498   0.846  0.1336  0.1360 -0.1498
31279W        W46896  16.430   8.442   5.142  0.1017 -0.1919  0.2643
31280W        W46897  15.402   2.921  15.000 -0.2774  0.0041  0.1942
31281W        W46898  16.087   3.535  14.632  0.0923 -0.2901  0.0721
31282W        W46899   1.030  17.754  14.886 -0.0433 -0.0157 -0.2391
31283W        W46900   8.314   5.589   0.164  0.0475  0.1990 -0.3028
31284W        W46901   3.869  15.483  12.069 -0.1720  0.1037 -0.0946
31285W        W46902  17.595  13.813   5.182  0.0160 -0.2658  0.2646
31286W        W46903  17.768   6.281   0.431 -0.1007 -0.2112 -0.1631
31287W        W46904  13.914   4.878   3.858  0.1461 -0.2131  0.1958
31288W        W46905   4.084   3.585  14.079 -0.6500  0.1120 -0.3006
31289W        W46906   7.768   5.909  12.106  0.0138  0.0416 -0.4272
31290W        W46907  11.774  11.962  15.160  0.0075 -0.0704 -0.1258
31291W        W46908  12.429   1.798   5.595  0.0297 -0.3030  0.0143
31292W        W46909   0.570  10.077  14.011  0.0176 -0.1827  0.2943
31293W        W46910  10.420  15.871   5.441  0.0273  0.0934  0.0542
31294W        W46911  11.097  17.501  11.772 -0.1294  0.5765  0.0816
31295W        W46912   5.748   1.153  11.107  0.0248  0.0473 -0.2449
31296W        W46913  15.528   9.063  15.113 -0.0544  0.1152  0.2021
31297W        W46914   7.595   6.792   1.722  0.0955 -0.1449  0.1685
31298W        W46915   0.419  15.135  14.069 -0.2449 -0.1660  0.0230
31299W        W46916  15.418  17.630   4.967 -0.0258  0.3669  0.4311
31300W        W46917   5.620   4.090   0.935  0.2580  0.1279 -0.0203
31301W        W46918   4.757  15.263  11.097 -0.1006  0.0682  0.0877
31302W        W46919  18.207  17.591  12.180 -0.0968  0.1679  0.1790
31303W        W46920   8.514  14.231  14.195 -0.0084  0.0320  0.1283
31304W        W46921  16.172  12.056   4.195  0.0110 -0.0449 -0.0487
31305W        W46922  10.174  14.820   3.819  0.1251  0.1888  0.2376
31306W        W46923  14.245  10.242  15.584  0.0321 -0.0078 -0.0476
31307W        W46924   4.596  14.643   2.495  0.0085 -0.0316  0.0760
31308W        W46925  12.409   7.872  12.756  0.2687  0.0139 -0.0368
31309W        W46926   5.561  11.834   4.580 -0.1212  0.2076  0.0301
31310W        W46927   2.199  12.062   1.808  0.2427 -0.0933 -0.1212
31311W        W46928   9.387   7.323  10.949  0.0006  0.1574  0.1374
31312W        W46929   8.856  17.487   4.738 -0.3880 -0.0215  0.2200
31313W        W46930   3.107   2.937  15.446 -0.1001  0.3752  0.3555
31314W        W46931  18.007  11.336  12.218  0.3356 -0.0240 -0.3363
31315W        W46932   5.160   8.515  15.452 -0.0035  0.0956 -0.0613
31316W        W46933   5.910   9.557  14.761 -0.0458  0.2726  0.2760
31317W        W46934   6.787   9.930  10.844 -0.1247 -0.0811  0.0468
31318W        W46935  13.368  10.083  15.157 -0.0723  0.2692 -0.1013
31319W        W46936  13.886   1.735   0.263 -0.0509  0.2107 -0.0166
31320W        W46937  16.079  16.907  15.088 -0.0066  0.2891 -0.0132
31321W        W46938  16.563   2.878   3.898  0.1494  0.0910 -0.1318
31322W        W46939   1.321  15.826  15.336  0.2568 -0.2474  0.4982
31323W        W46940  14.684  11.522  10.769 -0.1699  0.1338  0.1773
31324W        W46941  11.731   4.314   1.486  0.1222  0.3366  0.1443
31325W        W46942   9.656  12.515   4.006 -0.0962  0.3763  0.0291
31326W        W46943   9.940   9.138  12.405 -0.0641 -0.0083 -0.1652
31327W        W46944  14.033  11.575   0.547 -0.0630  0.1586  0.1998
31328W        W46945  18.207   8.696  14.524 -0.2292  0.3211 -0.2239
31329W        W46946  16.333   7.256  14.862  0.2887  0.0387 -0.1236
31330W        W46947   7.758  10.142  12.143 -0.1698  0.0632 -0.1748
31331W        W46948  15.420   2.092   0.381  0.0578  0.2702 -0.3642
31332W        W46949  15.038  14.508  11.457 -0.3402 -0.0765 -0.3071
31333W        W46950   4.435   3.484   2.052  0.2651 -0.0816 -0.0295
31334W        W46951  11.472  14.247   1.485  0.1828  0.1771  0.0118
31335W        W46952   8.385  13.191   2.387 -0.1018 -0.1251  0.3172
31336W        W46953   2.620  18.656   5.050  0.0587 -0.1007 -0.1398
31337W        W46954   9.935  18.175   2.475 -0.0451  0.4105 -0.1867
31338W        W46955  13.488   9.825   4.277 -0.1672 -0.0067 -0.2253
31339W        W46956   6.965   7.699   2.640 -0.1610 -0.0204  0.1803
31340W        W46957   7.557   5.957   3.621 -0.1411  0.2512 -0.2515
31341W        W46958  11.164  17.678  13.225 -0.1594  0.0723  0.1454
31342W        W46959  18.189   8.139   2.470 -0.1559 -0.2632  0.0743
31343W        W46960   9.787   7.937   1.124 -0.2633  0.1315  0.1436
31344W        W46961   6.365   2.995  14.993  0.0063  0.0464  0.2302
31345W        W46962  15.398   3.717  11.972 -0.0869  0.1599 -0.0170
31346W        W46963  15.634   3.804  14.980  0.4548 -0.0135 -0.0289
31347W        W46964   1.221  14.568  12.260 -0.0595  0.0745 -0.0545
31348W        W46965   1.613  17.359  15.299  0.0277  0.2041  0.1961
31349W        W46966   2.060  16.214   3.978  0.1617 -0.0754 -0.0183
31350W        W46967  16.210   0.472   2.660 -0.0506 -0.1251 -0.0840
31351W        W46968  11.339   1.698   4.890 -0.1356 -0.3804 -0.0297
31352W        W46969   6.391   5.125  15.361 -0.0257 -0.2408 -0.4622
31353W        W46970   4.702  13.261   1.047  0.0350 -0.1175  0.2709
31354W        W46971  15.359  17.448  13.326 -0.3357 -0.2636  0.0844
31355W        W46972  11.733  16.936  12.072 -0.1941  0.0874  0.3099
31356W        W46973  14.034  14.366  12.957  0.0664  0.4379  0.0963
31357W        W46974  17.188  14.717   1.756 -0.1030 -0.0095 -0.0748
31358W        W46975   8.175   4.504  12.701  0.2030 -0.2138  0.3157
31359W        W46976  17.165   0.260  15.518  0.0873  0.3049  0.2382
31360W        W46977   5.127   9.005  15.377 -0.4094 -0.1150  0.2827
31361W        W46978  14.076  11.314   3.722  0.0870 -0.0227  0.2065
31362W        W46979  14.138   6.381  10.683 -0.2729 -0.1170  0.1910
31363W        W46980   1.748  16.606   3.797 -0.4078 -0.2251 -0.1946
31364W        W46981   7.967   8.403   3.186 -0.4693  0.3172  0.0487
31365W        W46982  17.811   2.148   2.630  0.0262  0.0466  0.0184
31366W        W46983  13.321  17.124   2.574 -0.0255 -0.0972  0.4179
31367W        W46984  14.306   4.635   2.020 -0.2297 -0.0597  0.0786
31368W        W46985   1.813   8.967   1.143  0.1106 -0.0399  0.0607
31369W        W46986  12.743   8.611   0.961  0.2292  0.0263 -0.0837
31370W        W46987   2.777   0.665  12.199 -0.0739  0.2413 -0.1792
31371W        W46988  13.991  11.092  15.118 -0.1393 -0.0209 -0.0890
31372W        W46989  16.874  12.573   3.856  0.0364  0.1218  0.0091
31373W        W46990  16.669   2.633   0.664  0.0988 -0.0924 -0.1125
31374W        W46991   4.265  12.655  12.675 -0.4101 -0.3245 -0.0134
31375W        W46992   0.258  16.830   1.867 -0.0342 -0.0025 -0.4329
31376W        W46993   4.789   4.382  11.733  0.1066  0.1560  0.1078
31377W        W46994   5.916  14.711   4.101  0.3461  0.1447 -0.0264
31378W        W46995  17.474   9.856   4.439  0.1551  0.1445  0.2636
31379W        W46996   1.996  13.249   5.728 -0.0973 -0.0862  0.1469
31380W        W46997   1.211   0.129  15.582  0.4621  0.1060  0.1148
31381W        W46998   2.657   5.733  12.221 -0.1158 -0.2381  0.1959
31382W        W46999  15.481   9.165  12.564 -0.2620 -0.1730 -0.0131
31383W        W47000   4.870  10.373  15.422  0.0287  0.1064  0.1166
31384W        W47001   4.825   5.921  13.751  0.2789  0.1218  0.4179
31385W        W47002   6.266   6.419  14.787  0.0986 -0.0595 -0.0173
31386W        W47003  10.297   8.695   4.169  0.2067  0.3055 -0.1390
31387W        W47004  17.003   8.597  14.926  0.0377  0.0980 -0.3817
31388W        W47005   7.166  15.098   3.438  0.2128 -0.1550 -0.0522
31389W        W47006   5.506   4.743   5.957 -0.4179  0.0215  0.1378
31390W        W47007   8.902  14.401  12.337 -0.1420 -0.0878  0.2051
31391W        W47008  15.126  11.766   2.377 -0.2562 -0.1790 -0.1676
31392W        W47009  17.112  17.127  11.877  0.1811  0.1274 -0.1175
31393W        W47010   3.545   2.875   3.357  0.0597 -0.0163  0.0717
31394W        W47011   3.251   9.149   1.586  0.3226 -0.1467  0.2930
31395W        W47012  13.815  18.297  12.533 -0.0338 -0.0196  0.0585
31396W        W47013   7.239   1.180  14.003  0.0151 -0.0646 -0.1451
31397W        W47014   8.460  11.219  13.947 -0.0233 -0.0387 -0.1335
31398W        W47015   0.934   0.798   1.871 -0.0312  0.1350  0.1190
31399W        W47016   5.808   5.237   4.856  0.1357  0.3115 -0.1055
31400W        W47017  17.915   2.096   3.442 -0.0051 -0.2224  0.3098
31401W        W47018  11.187  18.473   3.262 -0.0922  0.2802  0.0845
31402W        W47019  13.509   6.006   1.360  0.0634  0.0864 -0.0889
31403W        W47020  18.106   2.285   3.852  0.1400  0.0484 -0.0685
31404W        W47021   6.003   0.775  15.475 -0.2970 -0.0865 -0.2883
31405W        W47022  13.274   3.941   2.826  0.2531 -0.2217  0.3700
31406W        W47023  10.548  10.319  12.684 -0.0890  0.2155  0.0338
31407W        W47024   7.506  14.466  13.565 -0.3658 -0.1660 -0.0351
31408W        W47025  17.415   6.042   3.292  0.1460  0.1741  0.0197
31409W        W47026   5.472  10.986   1.966 -0.0646  0.0372 -0.0576
31410W        W47027   2.132  11.706  10.437  0.0680  0.5057  0.2994
31411W        W47028  12.368  14.474  11.797  0.1761  0.2191 -0.0912
31412W        W47029   5.910   6.371   1.945 -0.2515  0.0404  0.1723
31413W        W47030  17.398   6.772  12.818  0.1601  0.0921 -0.1944
31414W        W47031   2.493  18.537   0.582 -0.0059  0.0233 -0.3205
31415W        W47032   2.050   8.030   1.937 -0.1414 -0.0559 -0.0360
31416W        W47033   8.054   7.891  15.261  0.1556 -0.0864 -0.0364
31417W        W47034  12.005  16.872  14.359  0.0511 -0.0266  0.0394
31418W        W47035   7.058  18.135  11.402 -0.2736  0.2066  0.2240
31419W        W47036   1.073  13.236   0.834  0.1914 -0.0472 -0.2554
31420W        W47037   0.100   9.327  10.970 -0.0575 -0.0558  0.0696
31421W        W47038  17.055  11.329   3.517 -0.3766 -0.5490 -0.2257
31422W        W47039  11.509  18.179  12.754 -0.2365 -0.1071 -0.2527
31423W        W47040   6.629   6.997   1.532 -0.1048 -0.0846  0.0233
31424W        W47041  15.326  11.994  12.140  0.0927 -0.0260 -0.2719
31425W        W47042  15.745  13.484  14.731 -0.2068 -0.1636  0.2841
31426W        W47043  17.453   3.860  14.424 -0.2172 -0.0863  0.0379
31427W        W47044  16.912   5.035  15.494 -0.3089  0.0632  0.0065
31428W        W47045   9.756  16.905  13.693  0.2086  0.0903  0.0098
31429W        W47046  14.825  15.058  10.742 -0.1325 -0.2545  0.0609
31430W        W47047  15.084  13.726   5.195  0.0946 -0.1724  0.0079
31431W        W47048  14.405  16.950  12.344 -0.2500 -0.0200  0.0375
31432W        W47049  12.735   3.564  12.872 -0.2425 -0.0972  0.1639
31433W        W47050   1.356   1.399   4.654 -0.0536 -0.1122 -0.0301
31434W        W47051  16.701  16.328   0.868 -0.1942  0.2364  0.1313
31435W        W47052  12.292  13.007  12.892  0.3144  0.0908  0.0974
31436W        W47053  17.728   7.743   4.049  0.0295 -0.3881 -0.0672
31437W        W47054   6.229   8.816  10.854 -0.0566 -0.0474 -0.1810
31438W        W47055  17.102  17.438   1.065 -0.0049 -0.1389  0.0717
31439W        W47056  17.500  18.042  11.680 -0.1919  0.0453 -0.2734
31440W        W47057  16.050   0.501  11.612 -0.0640 -0.1690  0.0551
31441W        W47058   3.303   5.190   4.434  0.0682 -0.1891  0.1999
31442W        W47059  18.549  11.874  15.429 -0.5999  0.0162  0.1119
31443W        W47060   5.999   9.308  13.207 -0.0408 -0.0577 -0.0943
31444W        W47061   4.169  13.715   1.709 -0.0744  0.0342 -0.0456
31445W        W47062   2.908   1.330   3.137 -0.2486 -0.0222  0.2596
31446W        W47063  18.060  13.750   2.120 -0.0002  0.0849  0.2321
31447W        W47064   5.306  12.654  11.169  0.0715 -0.3230  0.0603
31448W        W47065   1.634   6.508   5.266 -0.0707  0.1567 -0.0968
31449W        W47066   1.826  18.246  15.786  0.2432 -0.1365 -0.0725
31450W        W47067  11.532   2.955   0.085 -0.0420 -0.0470 -0.3368
31451W        W47068   5.197   2.010  14.264 -0.1467  0.0329  0.1380
31452W        W47069   7.751   2.938  12.294  0.1825 -0.0739 -0.1084
31453W        W47070  13.878   7.571   5.616  0.0219  0.3078  0.0841
31454W        W47071   6.871  11.830   0.789  0.0913  0.0977  0.0523
31455W        W47072   4.804   8.555   5.741 -0.0560 -0.1592 -0.0502
31456W        W47073   3.061  15.784  12.016 -0.0308  0.3394 -0.0513
31457W        W47074   6.072   9.059   4.355  0.0727 -0.1938 -0.1688
31458W        W47075  10.533   4.095  14.557  0.1529 -0.0647  0.0292
31459W        W47076  14.155   5.866  14.690  0.0094 -0.0552 -0.0883
31460W        W47077   4.675   5.198  13.296 -0.1762  0.1138 -0.0015
31461W        W47078  13.763   4.558  14.729 -0.1241 -0.0603  0.0613
31462W        W47079   6.712  14.150  12.396  0.0171  0.1464 -0.3823
31463W        W47080  17.023   0.032  13.153 -0.1003  0.0896  0.0795
31464W        W47081   1.248  11.583   3.969  0.0005 -0.2628 -0.1422
31465W        W47082  18.339  10.432  14.470  0.0115 -0.1538 -0.0010
31466W        W47083  16.562  16.769   1.319 -0.3180  0.2018  0.0009
31467W        W47084   7.019   0.737   1.127  0.1364  0.1177  0.2067
31468W        W47085  13.349   8.493  14.591 -0.0482 -0.2171  0.2280
31469W        W47086  12.840   0.755   0.042 -0.1718 -0.0771  0.1657
31470W        W47087   0.843  16.546   2.840 -0.0078 -0.2205 -0.1114
31471W        W47088  16.559  12.744   5.228 -0.1783  0.1920  0.0209
31472W        W47089   0.544   1.203   2.474  0.0987 -0.0075  0.3655
31473W        W47090  16.371  15.740  15.116  0.1121  0.0462  0.0703
31474W        W47091  12.028   8.449   1.973  0.0224 -0.1232 -0.0312
31475W        W47092  16.284  16.393   0.577  0.1850  0.0514 -0.0768
31476W        W47093   5.420   2.703  13.485 -0.0040  0.1384  0.1027
31477W        W47094  11.820   5.366   1.493  0.0228 -0.3140 -0.1973
31478W        W47095   6.569   3.856   3.185 -0.0301  0.1066 -0.1373
31479W        W47096   4.941   2.839  13.150 -0.0526 -0.0459 -0.2380
31480W        W47097   4.224   9.084  15.132 -0.1009  0.2544 -0.0861
31481W        W47098  11.527   5.544   0.524  0.1022  0.2847  0.0392
31482W        W47099  13.167   6.101  15.364  0.2362 -0.2685 -0.0248
31483W        W47100  11.923  16.613  12.522  0.4535 -0.4008 -0.1250
31484W        W47101  13.951   3.628  15.196  0.1731 -0.0356  0.3186
31485W        W47102  14.890   0.968   1.737  0.2170  0.1973 -0.3048
31486W        W47103   6.130  12.642  12.508  0.1858 -0.1066 -0.1023
31487W        W47104  16.261  13.845   0.687  0.2757  0.1453  0.2231
31488W        W47105   9.517  16.603  11.335 -0.0671  0.0661  0.1126
31489W        W47106  14.116  12.346   0.290 -0.0410 -0.1963 -0.0817
31490W        W47107   0.806   2.550  11.215  0.4188  0.1103  0.2623
31491W        W47108  18.558  17.326   5.017 -0.2520  0.0401 -0.5982
31492W        W47109   7.406   0.877   5.430  0.0206 -0.1225  0.0174
31493W        W47110  14.810  14.777   1.620 -0.1050 -0.0721  0.1012
31494W        W47111   3.434  10.390  11.629  0.0467 -0.1171 -0.0126
31495W        W47112  17.948  10.767  15.366  0.0286 -0.6184 -0.1136
31496W        W47113  13.809  13.677   3.241  0.5176  0.2968 -0.2084
31497W        W47114   2.936  11.085   0.741  0.0841  0.0162  0.0843
31498W        W47115   2.915   5.552   1.452  0.0138 -0.0673  0.0317
31499W        W47116  12.161   3.493   1.892 -0.0579 -0.0978  0.0214
31500W        W47117   8.110   9.893  12.455 -0.0868  0.3464 -0.2656
31501W        W47118  12.859  17.595  15.310 -0.0915  0.0535 -0.1688
31502W        W47119  16.732   7.723  15.068  0.1711  0.1223 -0.1035
31503W        W47120   7.232  11.713   2.368 -0.2497  0.0844 -0.1943
31504W        W47121  11.963  15.132  13.823 -0.2354  0.0829 -0.0075
31505W        W47122   0.248   4.348  14.568 -0.1889  0.0304  0.2874
31506W        W47123  13.451  16.653   0.508 -0.1793 -0.0950 -0.2614
31507W        W47124  14.765  18.260   2.069  0.0885  0.0236  0.2678
31508W        W47125  17.623  13.780  15.229 -0.1740 -0.0455  0.0837
31509W        W47126   5.183  12.172  14.333  0.4822 -0.3031  0.1339
31510W        W47127  14.000  14.758   0.501  0.4694  0.0182 -0.0748
31511W        W47128  11.117   1.826   3.576  0.1502 -0.2815 -0.2297
31512W        W47129   2.135  11.192  14.251 -0.1537  0.0791 -0.1997
31513W        W47130  11.649  16.088   5.161 -0.3277  0.5444  0.1964
31514W        W47131  10.876   4.797  13.132  0.0631  0.0075 -0.0996
31515W        W47132  12.550   8.644   1.824 -0.2002 -0.0881 -0.2723
31516W        W47133   3.542  12.065   3.247 -0.0979  0.0078  0.0893
31517W        W47134  16.609   8.911  12.146 -0.0953 -0.0597 -0.0210
31518W        W47135   6.840  13.717   2.056 -0.1263  0.1026  0.0136
31519W        W47136   8.180   6.144  12.346 -0.1145  0.0991 -0.0501
31520W        W47137   7.870   2.390   6.531  0.0206 -0.0336  0.1655
31521W        W47138  16.023   6.612  11.534  0.1399  0.3005  0.4366
31522W        W47139   6.878  14.070  14.312 -0.0681 -0.1583 -0.1241
31523W        W47140   8.686  12.772   1.330 -0.0369  0.2537  0.0663
31524W        W47141   5.407  15.120  13.145 -0.1899 -0.2150 -0.2195
31525W        W47142   3.350   0.396  13.597 -0.2262  0.1077  0.1514
31526W        W47143  14.081  17.415   4.665  0.2501  0.0182  0.0710
31527W        W47144   6.486  16.282  14.697  0.0885  0.1214 -0.0787
31528W        W47145   7.855   0.779   0.855 -0.1369 -0.0586 -0.5904
31529W        W47146   8.699   4.111   4.476  0.0739  0.0535  0.2052
31530W        W47147   1.378  14.404  13.950 -0.2992 -0.3490 -0.0030
31531W        W47148  11.695  13.749   1.157  0.0221 -0.1128 -0.0594
31532W        W47149  18.468  13.807   1.013  0.0506  0.2533 -0.1698
31533W        W47150   4.487  18.085  13.298 -0.2920  0.1889  0.0310
31534W        W47151  11.468   6.896   0.473  0.3729 -0.0997 -0.3031
31535W        W47152   6.459   6.945   0.416 -0.0059  0.0714  0.2309
31536W        W47153   7.606   1.841  14.341  0.1181 -0.1938 -0.1825
31537W        W47154  10.609   2.600   4.682 -0.0191  0.3740 -0.2527
31538W        W47155   0.432  16.449  14.255 -0.1059 -0.1679  0.0775
31539W        W47156  14.692  15.354   1.475 -0.2387  0.0441 -0.1236
31540W        W47157   3.328   9.064  10.556  0.2025 -0.0766 -0.0476
31541W        W47158   5.157   8.144  14.927 -0.0955  0.1341 -0.1035
31542W        W47159  10.949   8.587  14.721  0.4651 -0.3668 -0.1098
31543W        W47160  12.663   7.626  13.105  0.0608  0.1752  0.1971
31544W        W47161   3.294  15.322   1.708 -0.2225 -0.4338  0.2645
31545W        W47162  12.986   3.583  14.959 -0.1778  0.0212  0.0500
31546W        W47163  17.446  10.359   1.456 -0.5289  0.0221 -0.2695
31547W        W47164  11.386   8.343   1.402 -0.1432 -0.3067 -0.1864
31548W        W47165  17.065  10.739   9.551  0.0916  0.3048  0.1548
31549W        W47166   9.523  14.974   1.874  0.0576  0.0725 -0.2212
31550W        W47167   9.003   7.572   4.149  0.1406  0.0354 -0.1277
31551W        W47168  16.483  10.677   1.980 -0.1613  0.2477  0.1392
31552W        W47169   2.881  18.341  14.237  0.0818  0.1540  0.1161
31553W        W47170  15.667   8.434   3.886  0.1518  0.2728  0.1949
31554W        W47171  18.511  13.294  15.061  0.0124 -0.5364 -0.0831
31555W        W47172  18.545   5.595   4.784  0.2440  0.0917 -0.1225
31556W        W47173  17.868   2.578  15.157  0.0351  0.1201  0.2082
31557W        W47174  12.467  11.944   2.062  0.0662 -0.0048 -0.0726
31558W        W47175   5.107   3.417  14.380  0.0145 -0.0332 -0.1119
31559W        W47176  12.522   1.986  14.555 -0.0172 -0.6358 -0.1234
31560W        W47177  12.505  12.671  13.179 -0.1355  0.0408 -0.1990
31561W        W47178   1.902   7.192  11.055 -0.3817 -0.2083 -0.1993
31562W        W47179   1.483   5.429  14.333  0.0325 -0.0894 -0.0802
31563W        W47180   7.592  17.372   9.763  0.1967  0.0802  0.1005
31564W        W47181  11.350   7.177   1.604  0.1362 -0.2248 -0.0091
31565W        W47182  17.421   0.257  11.947 -0.1214  0.0141 -0.0272
31566W        W47183  10.802  18.064  12.929  0.2222  0.1966 -0.2144
31567W        W47184  11.722   8.250  15.159  0.2036  0.0404  0.1585
31568W        W47185  11.616   4.800   2.461  0.3110  0.3374  0.1384
31569W        W47186  16.099  13.429  12.339  0.0971 -0.1359  0.0867
31570W        W47187   8.087  11.632   1.423 -0.1434 -0.1148 -0.2972
31571W        W47188   8.716   2.961  14.229 -0.2646 -0.0944  0.1009
31572W        W47189  15.091   5.628  13.296 -0.0982 -0.0894 -0.0381
31573W        W47190  10.438  15.573  14.014 -0.0095 -0.1357  0.0736
31574W        W47191  11.802  18.209  11.317 -0.1321  0.1109 -0.3032
31575W        W47192   4.899  11.587   4.318 -0.4803  0.1994 -0.0668
31576W        W47193  13.187   9.117  12.817 -0.2495  0.1477 -0.1100
31577W        W47194  12.638   0.523   5.144 -0.0808  0.0312 -0.1276
31578W        W47195  17.639  15.702  15.366  0.2439  0.3311 -0.1077
31579W        W47196   2.441  16.967  10.882 -0.0865 -0.1286 -0.0470
31580W        W47197   2.636   1.723  13.329  0.2094  0.0237 -0.0559
31581W        W47198   0.236  11.204   3.606  0.0124  0.0889 -0.1512
31582W        W47199   5.700  12.411   2.380 -0.1108  0.0278 -0.0065
31583W        W47200  11.457   1.223  10.281 -0.0808 -0.0125  0.2643
31584W        W47201   7.072  16.938  11.800 -0.1983  0.2984 -0.4125
31585W        W47202  11.862  12.726  11.415 -0.1368 -0.1984  0.1180
31586W        W47203  14.893   2.071   0.056  0.1689 -0.1786  0.1073
31587W        W47204   4.582  13.869  15.773  0.3601  0.2881 -0.1324
31588W        W47205  16.825   4.440  12.887  0.1019 -0.2671  0.2243
31589W        W47206  17.028  17.522   4.022 -0.0334 -0.1618  0.0605
31590W        W47207   4.847   4.840   6.307  0.0531  0.1248 -0.0541
31591W        W47208   8.712   6.240  12.388 -0.2111 -0.1927  0.1934
31592W        W47209   7.986  16.467   4.978  0.0211  0.2849 -0.2955
31593W        W47210  16.233   1.369   1.467 -0.0083  0.0749 -0.3337
31594W        W47211  10.668   2.351   5.137 -0.0253 -0.1927 -0.3019
31595W        W47212  13.207   6.977   2.196  0.0446 -0.1303  0.0640
31596W        W47213   8.906  18.300   5.713 -0.1005  0.3259 -0.1116
31597W        W47214   9.022   5.051   3.871  0.0182 -0.1092 -0.1541
31598W        W47215   5.613   3.302  14.447 -0.2591  0.2360  0.2295
31599W        W47216  13.122  10.018  11.809  0.3114  0.3687  0.0558
31600W        W47217   6.050   6.188   1.457  0.2160 -0.2748 -0.1798
31601W        W47218  15.244  17.208   1.108  0.0043  0.0061  0.2341
31602W        W47219   5.457   1.522  12.031  0.4468  0.0919  0.0416
31603W        W47220   5.985   4.553   5.089  0.2133  0.1190 -0.0396
31604W        W47221  12.746  11.257  14.071 -0.0520  0.1136  0.0797
31605W        W47222  16.498   4.576  11.968  0.2479  0.0901  0.0061
31606W        W47223  16.938  10.236   9.528  0.1210  0.0887  0.0139
31607W        W47224   8.728  17.648  10.921  0.2580  0.0140  0.1931
31608W        W47225   3.683   2.815   3.929  0.0825 -0.4266 -0.0975
31609W        W47226  10.770  10.213   3.098 -0.0921  0.0807 -0.2194
31610W        W47227  13.419   7.387   2.477  0.2070  0.1015 -0.0779
31611W        W47228  11.817  11.169  15.488  0.1859  0.0891 -0.0196
31612W        W47229   6.907   0.741   1.930 -0.0472 -0.0052 -0.0716
31613W        W47230  11.488   1.753  15.620 -0.0216  0.0737 -0.2919
31614W        W47231  12.879   4.759   2.490 -0.0415 -0.0476  0.0038
31615W        W47232  14.240   4.813  11.376 -0.1399  0.0550  0.0161
31616W        W47233  18.414   0.188  12.490 -0.0843  0.2333 -0.1113
31617W        W47234   5.742  11.639  15.131  0.0290 -0.0210 -0.1032
31618W        W47235  18.159   5.892   4.771  0.3670  0.0754 -0.0376
31619W        W47236  14.216  18.230  14.228 -0.1844 -0.1100  0.0988
31620W        W47237  18.569  14.873  11.488 -0.3211  0.2427 -0.2821
31621W        W47238  16.648   0.369  13.407  0.0994 -0.0297  0.0994
31622W        W47239   6.936   4.439  14.121  0.1097 -0.1311 -0.1505
31623W        W47240  12.727  10.582  14.038  0.0440 -0.0975  0.0015
31624W        W47241   3.721   6.375   1.481  0.0392 -0.1994 -0.2701
31625W        W47242   6.289   3.661   1.538  0.3880 -0.1298 -0.2274
31626W        W47243   4.059   0.639   4.378  0.2377  0.0484 -0.2345
31627W        W47244   0.690   9.284   1.269 -0.1120 -0.3739 -0.0603
31628W        W47245  11.634  15.279   0.965  0.1036  0.0716 -0.1810
31629W        W47246   2.355   9.602   2.870  0.0791 -0.2076 -0.1712
31630W        W47247  16.497   2.452   5.389  0.3442 -0.0224 -0.3200
31631W        W47248   6.761   0.176  10.950  0.2773  0.0796 -0.0118
31632W        W47249  12.567  17.060  11.971  0.1188 -0.0393  0.1458
31633W        W47250  14.970   2.049   2.642  0.0111 -0.0084 -0.0901
31634W        W47251  12.731   6.876   2.967  0.2559  0.2960 -0.2494
31635W        W47252  10.541  17.890  15.238 -0.0903  0.1361 -0.0176
31636W        W47253  15.763   9.023   4.657 -0.1248 -0.2204  0.0583
31637W        W47254   1.458   6.195   1.025 -0.0546 -0.1471 -0.1023
31638W        W47255   4.957  14.411   4.131 -0.0650 -0.2305  0.0127
31639W        W47256   4.152   2.688  11.484 -0.3339  0.2018 -0.0101
31640W        W47257  13.073   1.326  14.023  0.3035 -0.0245  0.1272
31641W        W47258   9.310   4.142  14.704 -0.0052 -0.0159  0.0119
31642W        W47259   0.007  15.468  12.754  0.0579  0.1647  0.0635
31643W        W47260  12.574  16.438  15.530 -0.0186  0.2068 -0.1308
31644W        W47261  14.848  13.875  12.821 -0.0798 -0.0224 -0.0237
31645W        W47262   6.623   9.807   1.396  0.1406  0.0218 -0.4152
31646W        W47263   5.496   3.571  15.729 -0.0344  0.1050  0.1607
31647W        W47264   2.079   8.874  14.784 -0.1943  0.1261 -0.1144
31648W        W47265   3.849   0.750   1.084  0.0416 -0.0187 -0.2693
31649W        W47266   6.128  14.035   4.832  0.3457 -0.2499 -0.0217
31650W        W47267   9.013   6.689  15.315 -0.0623 -0.1743  0.0026
31651W        W47268  16.618  11.736   3.442 -0.0148  0.0603  0.0024
31652W        W47269  12.035  10.655  13.564  0.2186  0.2593  0.0236
31653W        W47270   3.782   7.850  11.941 -0.2357  0.0459 -0.3256
31654W        W47271  11.838  10.250   2.954  0.0826  0.0150 -0.0271
31655W        W47272   1.244   3.982   0.944 -0.2578  0.0019  0.2340
31656W        W47273  11.856  14.220   5.470 -0.2152  0.0947  0.0666
31657W        W47274  11.077   4.648   0.788 -0.1257 -0.2269 -0.0274
31658W        W47275   8.740   0.028  14.614  0.1999 -0.1707 -0.0227
31659W        W47276  15.553  15.808   5.032 -0.1585  0.0769  0.3588
31660W        W47277  15.241   7.536   2.204 -0.0431  0.0742  0.1173
31661W        W47278  11.062   6.933  14.235 -0.1690 -0.0085 -0.2487
31662W        W47279  14.970  12.290   5.604  0.1004  0.0113  0.3724
31663W        W47280  14.199   8.115  10.754 -0.3156 -0.0141 -0.0556
31664W        W47281  11.779  15.574  13.889  0.0123 -0.1294 -0.0437
31665W        W47282  17.471   5.059   0.837 -0.0922 -0.4528 -0.0823
31666W        W47283   3.901  17.492   0.814  0.1646  0.2528 -0.1061
31667W        W47284   2.241  14.559   2.424  0.1395 -0.2016  0.0616
31668W        W47285   5.817  16.088  11.100 -0.2576 -0.0602 -0.2687
31669W        W47286  18.247  17.861  13.043  0.0615 -0.1710  0.0964
31670W        W47287  15.314   8.723   4.782 -0.0052  0.3740 -0.1392
31671W        W47288   7.377   3.370   1.228  0.0759 -0.4119 -0.0875
31672W        W47289   8.102   4.172  13.862 -0.0321  0.0407 -0.0133
31673W        W47290   3.172   7.076  12.835 -0.1768  0.0447 -0.4288
31674W        W47291   7.833   2.285  13.065  0.0297  0.4083 -0.1731
31675W        W47292  14.600  18.472  15.188  0.0330  0.0382 -0.1903
31676W        W47293   1.982   1.871   0.773  0.0558  0.4604  0.1009
31677W        W47294  12.760  11.903  11.731 -0.1604 -0.1582  0.2004
31678W        W47295   7.694  12.397   1.268  0.0440 -0.1329  0.1136
31679W        W47296  14.248   6.912  13.904 -0.0139 -0.1027 -0.0955
31680W        W47297   8.443   9.759  11.730  0.1828  0.0410  0.5374
31681W        W47298   5.309  11.056   4.985 -0.1453 -0.4081 -0.0832
31682W        W47299   7.822  18.010  13.129  0.1680 -0.3857 -0.1110
31683W        W47300   8.174   5.187   0.950  0.3859  0.0366 -0.0279
31684W        W47301  15.578   4.397  15.675 -0.0036 -0.2851 -0.0712
31685W        W47302   6.128   1.105   0.314 -0.0627  0.0798  0.2384
31686W        W47303   5.773  11.844  15.557  0.0087 -0.1379 -0.1482
31687W        W47304   3.736  12.593   2.328 -0.1688 -0.2756 -0.0009
31688W        W47305  18.384  10.061  11.295  0.2962 -0.1826  0.0512
31689W        W47306   5.538   5.918   1.032 -0.0665 -0.0369  0.0539
31690W        W47307   3.764   2.249  11.627 -0.2058  0.0462 -0.2763
31691W        W47308   5.362   0.893  13.270  0.1985 -0.1038 -0.1729
31692W        W47309   4.900   4.722   4.706  0.2006 -0.1100 -0.0546
31693W        W47310  14.947   1.776   3.683 -0.2127  0.2563  0.1635
31694W        W47311   5.781   2.718   0.401 -0.2298  0.1130  0.0698
31695W        W47312   1.941  15.239  14.951  0.1522 -0.1140  0.1559
31696W        W47313   9.699   6.647  12.453  0.1250  0.1761 -0.0256
31697W        W47314  13.271   4.119   3.320 -0.0318 -0.0782  0.0911
31698W        W47315   3.644  10.712   3.074  0.0506  0.2105 -0.3704
31699W        W47316  18.450   1.476   2.745  0.1013  0.1242  0.0763
31700W        W47317  11.140   5.142  15.210 -0.0883  0.0481 -0.0736
31701W        W47318   4.152   2.994  13.721  0.2357  0.1092 -0.1737
31702W        W47319   2.285  14.676  10.718  0.0475  0.1891  0.1950
31703W        W47320   3.125  13.707   3.195  0.0278 -0.2059 -0.3256
31704W        W47321   2.349  15.655  11.196  0.0933 -0.0838  0.3537
31705W        W47322   1.199   6.521  10.693 -0.1472 -0.1094 -0.2897
31706W        W47323  12.742   0.435  14.574 -0.1443 -0.0421  0.3779
31707W        W47324  11.440   0.741   3.802  0.1447  0.1913  0.4795
31708W        W47325   5.233   2.478  14.969  0.0726  0.4146  0.1464
31709W        W47326  10.397  13.250   1.840  0.0719 -0.1517  0.0782
31710W        W47327   3.431  12.031   0.797 -0.2645 -0.1907 -0.2999
31711W        W47328  18.241   6.537  15.751  0.2403  0.0544 -0.0803
31712W        W47329   3.613   8.504  15.571  0.0471 -0.1859  0.0758
31713W        W47330  15.063  16.394  11.662  0.0824 -0.2202  0.1521
31714W        W47331  12.196  18.508   4.726  0.1257 -0.0202 -0.0305
31715W        W47332  17.038  11.303  15.647 -0.0848 -0.0620  0.1817
31716W        W47333   3.853  16.968   0.989 -0.4612  0.1211 -0.0404
31717W        W47334   3.223  11.418  12.324  0.0722  0.1015  0.0196
31718W        W47335  13.073   9.896  12.351  0.2221 -0.3373 -0.2898
31719W        W47336   6.699  17.104   2.274 -0.0434 -0.3419  0.1110
31720W        W47337   7.927   8.447  12.927  0.1321  0.0811 -0.2830
31721W        W47338   7.220  16.490   1.350  0.1082  0.1641  0.4707
31722W        W47339  11.059   9.371  14.917 -0.3658  0.0389  0.1828
31723W        W47340  12.920  12.604   0.174  0.1164  0.0813  0.4580
31724W        W47341   0.597   2.091  11.925 -0.0712  0.0657 -0.1994
31725W        W47342  15.891   7.680   2.649  0.2957  0.2406  0.2482
31726W        W47343  17.804   0.593   4.877  0.3785 -0.0740 -0.0857
31727W        W47344  16.925  11.382  10.390 -0.1757  0.0743 -0.0269
31728W        W47345  11.480  13.996   0.406 -0.0277 -0.2761  0.0084
31729W        W47346   7.974   7.968  11.830  0.1121  0.0085  0.0022
31730W        W47347   5.688   1.982  12.280 -0.1676  0.5203  0.0132
31731W        W47348  15.238   4.434   0.217  0.0889  0.2590 -0.1427
31732W        W47349   3.269  12.384  12.127  0.1619  0.1195  0.0355
31733W        W47350  18.201   9.401   0.312 -0.1479 -0.1440  0.1733
31734W        W47351  16.806  14.267   4.115 -0.1432  0.0905  0.0894
31735W        W47352  13.743  15.130  15.496 -0.1824 -0.0108  0.3346
31736W        W47353   1.416  12.644  14.552  0.0875 -0.0643 -0.1812
31737W        W47354  16.551   7.154  13.967  0.1325 -0.1475 -0.3707
31738W        W47355  13.751  13.327  14.823 -0.1779 -0.1375 -0.0500
31739W        W47356   9.063   0.286   1.624  0.1239 -0.0226 -0.0244
31740W        W47357   2.691  12.752  11.078  0.2370 -0.1192  0.2561
31741W        W47358   4.120   1.434   1.042  0.1510  0.0982 -0.0743
31742W        W47359  16.966   8.029  13.130  0.0541 -0.6682  0.0510
31743W        W47360   4.699   6.094  13.254 -0.0623  0.1238 -0.0971
31744W        W47361   1.132   4.348   0.017  0.0584  0.2590 -0.0238
31745W        W47362  16.722  14.128  12.628  0.0679  0.1679  0.0368
31746W        W47363  11.051   3.492   5.010  0.1602 -0.1371 -0.0447
31747W        W47364   4.524   9.666  14.994  0.2899 -0.0234  0.0619
31748W        W47365  17.995  15.880   4.652  0.0755 -0.0959  0.0913
31749W        W47366  14.561   2.825  13.794  0.0649 -0.0973  0.1032
31750W        W47367   4.608  13.980   0.493  0.1811 -0.4204  0.0304
31751W        W47368   7.623   5.346   4.366 -0.2319 -0.0415 -0.1160
31752W        W47369   2.300   9.776  15.019  0.0381  0.0475 -0.3502
31753W        W47370   7.227   3.851   2.344  0.3264  0.0255 -0.1973
31754W        W47371  12.687  13.346  11.459  0.0210  0.0548 -0.2975
31755W        W47372   5.449  11.434  14.751  0.1165 -0.2223  0.0575
31756W        W47373   3.389  17.207   4.714  0.0792 -0.2360  0.2849
31757W        W47374   1.969   7.382   2.021 -0.1242 -0.1360 -0.1185
31758W        W47375  11.119   1.586  12.182  0.1993 -0.1288  0.1315
31759W        W47376  16.362  15.452   4.331  0.1034  0.1563 -0.0541
31760W        W47377   7.468   9.491   2.688  0.1440  0.0319 -0.1785
31761W        W47378  12.908  16.392   2.335  0.1855  0.0966 -0.2092
31762W        W47379   1.725   8.113   0.196  0.1381 -0.0734  0.0896
31763W        W47380  12.809   8.075  12.564 -0.0164 -0.0418  0.2726
31764W        W47381   2.215  17.033   2.609  0.0016  0.0890  0.2032
31765W        W47382  13.451   7.152  14.268  0.2769 -0.2590 -0.2214
31766W        W47383  14.646   0.400   6.189 -0.0565  0.4680 -0.1171
31767W        W47384   6.798  10.871  11.076 -0.0514  0.2134  0.0572
31768W        W47385  17.462   1.490   4.038 -0.3078 -0.2643  0.0343
31769W        W47386  11.322  12.239  15.309  0.1080 -0.2166 -0.1660
31770W        W47387  12.649   7.729   5.901 -0.3544 -0.2713  0.2153
31771W        W47388   4.381  16.678   2.246  0.0202  0.0334  0.1605
31772W        W47389  11.455   6.661  15.431  0.2367  0.2252  0.4252
31773W        W47390   7.968   7.954   0.169  0.2044  0.1566 -0.2301
31774W        W47391   9.031   5.351  15.267 -0.3213  0.0731  0.1117
31775W        W47392   2.656  16.424  14.280  0.3676  0.1661  0.2021
31776W        W47393  11.431   7.793   3.168  0.0649 -0.0884  0.2174
31777W        W47394  12.383  12.435   1.941 -0.1943 -0.2782  0.1964
31778W        W47395  16.467  15.930   4.714  0.1226 -0.0931 -0.1507
31779W        W47396   6.357  10.529  14.219  0.2002 -0.0693  0.0389
31780W        W47397  10.797   6.808   5.147  0.2205 -0.0023 -0.1802
31781W        W47398  14.753  14.408   2.574 -0.0739 -0.0692  0.1304
31782W        W47399   6.162   9.366   3.758  0.0779 -0.0034 -0.2570
31783W        W47400   1.574   0.091   2.521 -0.0315 -0.2991  0.1455
31784W        W47401   9.231   9.216  10.816 -0.1395 -0.0783 -0.0303
31785W        W47402   8.051   5.898  13.467  0.2184 -0.2096 -0.0310
31786W        W47403   8.951   4.645   2.848 -0.1534  0.0474 -0.1205
31787W        W47404  18.262  15.588   0.970 -0.2399  0.0181  0.1202
31788W        W47405  16.157   8.547  10.978 -0.1846 -0.0132 -0.1888
31789W        W47406   7.454  17.929   4.235  0.2261 -0.0051 -0.4060
31790W        W47407  14.141  17.284  15.244  0.2314  0.1001  0.0701
31791W        W47408   7.452   9.644  14.710 -0.0458  0.0346  0.0611
31792W        W47409  17.834  10.976   3.772 -0.1926  0.0570 -0.0913
31793W        W47410   9.541   8.438  12.536  0.0448  0.2176  0.2439
31794W        W47411   4.643   0.628  13.818  0.5222  0.0306  0.0960
31795W        W47412  16.590  10.944  13.554  0.2648 -0.2090  0.1168
31796W        W47413   8.306  11.680   4.188  0.2597  0.2299 -0.0096
31797W        W47414   8.103   0.519   3.447  0.0551  0.0370 -0.0550
31798W        W47415  14.966   3.603  10.760 -0.0956  0.0102 -0.2293
31799W        W47416   3.124  14.383   2.014 -0.1235 -0.3229 -0.2073
31800W        W47417   7.761  10.618  12.230 -0.3044 -0.1645 -0.1628
31801W        W47418  11.571  14.588   3.086 -0.1197 -0.2350 -0.0204
31802W        W47419   0.383   6.797   2.363 -0.1562  0.0604 -0.0478
31803W        W47420  14.323   1.670   5.557  0.1207  0.0394 -0.2388
31804W        W47421  15.816   5.900   2.123 -0.1120 -0.0272 -0.0006
31805W        W47422  10.759  14.345   5.593 -0.2385 -0.0244  0.2906
31806W        W47423   9.576   2.622  13.916  0.0155  0.0883 -0.0624
31807W        W47424  12.845   4.176   5.512  0.1186 -0.0386  0.1428
31808W        W47425  13.175   3.339   3.698 -0.1729 -0.0279 -0.0283
31809W        W47426   5.062  15.845   2.019  0.1194 -0.3341 -0.2092
31810W        W47427   5.870   5.253   3.571 -0.1813 -0.0388  0.0491
31811W        W47428  10.670  13.093  14.950 -0.0489  0.0103  0.1058
31812W        W47429   8.797  16.731   3.210  0.1649 -0.2629 -0.1876
31813W        W47430   1.103  14.377  15.726 -0.0631 -0.2135  0.1943
31814W        W47431  15.369   4.270   2.682 -0.1179 -0.2678  0.0633
31815W        W47432  14.409  11.188   1.600 -0.1826  0.0097 -0.0528
31816W        W47433   7.071  17.023  15.056 -0.3754  0.0424  0.0331
31817W        W47434   6.417   7.845   1.725 -0.0675 -0.0861  0.1822
31818W        W47435  16.993  13.779   4.105  0.4402 -0.0936 -0.1318
31819W        W47436   2.965  10.534  15.785 -0.4318  0.0254 -0.1910
31820W        W47437  13.499   2.587   1.305 -0.0772  0.0904  0.0704
31821W        W47438   3.311  13.614  13.242 -0.2163 -0.1730 -0.0966
31822W        W47439  15.224  10.127  12.702 -0.0789  0.0746  0.0780
31823W        W47440   2.090   8.854  13.894  0.1644 -0.1372  0.0154
31824W        W47441   8.379  17.257   2.458 -0.0057 -0.0172  0.0714
31825W        W47442   7.446   3.748  15.357  0.1677  0.0209 -0.0503
31826W        W47443  18.540  13.097  15.699  0.2409 -0.0832 -0.0341
31827W        W47444  11.982  10.125   0.610 -0.1176  0.3117  0.0784
31828W        W47445   8.729  17.882  12.320 -0.1716 -0.2001  0.1300
31829W        W47446   4.274  14.380   5.753 -0.0795 -0.0374  0.4387
31830W        W47447   7.895  10.736  15.443 -0.0630  0.0904 -0.1894
31831W        W47448   0.758  11.987  14.540 -0.2803 -0.2087 -0.1426
31832W        W47449  17.775   4.113   4.819 -0.1951  0.0551 -0.2314
31833W        W47450   6.347   7.713  14.522 -0.1007  0.2351 -0.4016
31834W        W47451  11.922   5.828  14.975  0.0505 -0.3291 -0.0054
31835W        W47452   6.644   3.975  12.934 -0.0207  0.1524 -0.4279
31836W        W47453   3.373   7.454   1.617  0.1809 -0.1855  0.0486
31837W        W47454   8.880  13.326   2.792  0.3874  0.2661  0.2228
31838W        W47455   3.776  16.113  14.688 -0.0394 -0.0256  0.2803
31839W        W47456   9.063  10.453   4.104 -0.1597 -0.0190 -0.2314
31840W        W47457   6.027   7.482   4.172  0.0743 -0.0541  0.0781
31841W        W47458  12.234   3.945  12.345  0.3866  0.0739  0.0719
31842W        W47459  17.289  12.730   2.154  0.2073 -0.1754 -0.3887
31843W        W47460  13.708   8.546   2.003 -0.2772 -0.1246 -0.1502
31844W        W47461  12.754   7.523  12.560  0.0188 -0.0847  0.2254
31845W        W47462   0.248   2.598   1.222  0.1184 -0.2437  0.2706
31846W        W47463  12.957  10.302  11.221  0.0380 -0.0440 -0.0826
31847W        W47464  14.680  11.215   4.870 -0.1477  0.0979  0.2267
31848W        W47465  13.067  17.699  13.757  0.1643  0.0650  0.1183
31849W        W47466   6.113  17.356  10.929 -0.1128  0.0065  0.3880
31850W        W47467  16.526  10.724  15.079  0.1736 -0.2363  0.3240
31851W        W47468  18.243  17.548   5.447 -0.1246  0.1862  0.1603
31852W        W47469  12.562  17.861   3.582  0.0557  0.3331 -0.3951
31853W        W47470   1.319  13.239   3.947 -0.5666 -0.2803 -0.1906
31854W        W47471  16.515   6.455  11.497  0.0915  0.0528 -0.2243
31855W        W47472  11.071   8.060   1.156 -0.0745  0.2454 -0.3991
31856W        W47473   3.380  18.236   1.350  0.3003  0.1737  0.0339
31857W        W47474   3.192  15.561  13.334  0.0872 -0.0556  0.0302
31858W        W47475   3.208   0.360   2.263  0.0860 -0.2111 -0.1230
31859W        W47476  14.170  15.570  11.419 -0.0042 -0.0673  0.2917
31860W        W47477  13.820  13.810  12.210 -0.0849  0.0437  0.0819
31861W        W47478  14.873   2.987   1.847  0.3199 -0.5333 -0.0454
31862W        W47479  15.317   4.872  12.295 -0.2514 -0.4493 -0.5176
31863W        W47480   0.338   5.453  13.977 -0.1794 -0.3217 -0.1362
31864W        W47481  14.667   4.370   3.314 -0.0952  0.1431 -0.3154
31865W        W47482  14.252   0.644  14.322  0.2366  0.3481  0.2067
31866W        W47483  13.487   3.381   0.076 -0.0995 -0.1629 -0.2758
31867W        W47484   4.855   2.699   0.683 -0.2737 -0.0464  0.0526
31868W        W47485  15.432  14.455   3.804 -0.3658  0.1077 -0.1854
31869W        W47486  16.829   4.860  14.622 -0.1564 -0.1588  0.2293
31870W        W47487  14.959  16.559   3.344  0.3948  0.0001 -0.1632
31871W        W47488   7.787   7.470  12.167 -0.1778  0.0222  0.1282
31872W        W47489  11.445   5.046   1.236 -0.0823  0.1234  0.0336
31873W        W47490  16.193  12.355   1.178  0.1856 -0.0559 -0.0989
31874W        W47491  16.523  16.765   0.359  0.2589  0.0594  0.0143
31875W        W47492  10.980  12.653   5.392 -0.0532 -0.0234 -0.0058
31876W        W47493   0.609   6.767  13.989 -0.1183  0.0735  0.0969
31877W        W47494   8.111  16.650  11.751 -0.0327  0.3415  0.1466
31878W        W47495   2.482  13.792   4.744 -0.1239 -0.0896 -0.2021
31879W        W47496  15.051  12.545  12.876 -0.0541  0.0478 -0.0818
31880W        W47497  11.947  17.049  15.319 -0.2312 -0.2859 -0.2051
31881W        W47498   3.196   6.349  14.099 -0.0680 -0.3909  0.3172
31882W        W47499  11.624   8.801   5.755 -0.2488 -0.4036  0.1174
31883W        W47500   1.060   4.698  15.409  0.0856  0.0911 -0.1258
31884W        W47501  12.748   3.272  14.615  0.1451 -0.0118  0.2259
31885W        W47502  18.009   8.487   0.557 -0.0269 -0.0226 -0.2885
31886W        W47503  18.190  16.467  11.067 -0.0059 -0.1789  0.0479
31887W        W47504   2.127   2.238  15.460  0.3213 -0.0909 -0.2465
31888W        W47505   2.789   5.926   2.488 -0.2235  0.0803 -0.0347
31889W        W47506   2.034   7.650  15.352  0.0013  0.1225 -0.1274
31890W        W47507  14.681   7.978   1.645  0.0993  0.2995  0.0014
31891W        W47508   1.209   5.527  11.226  0.0490 -0.1986  0.1603
31892W        W47509  13.437   7.407  12.587 -0.1013  0.0913  0.1704
31893W        W47510   9.615   1.919   6.533  0.2231  0.1441  0.0760
31894W        W47511   9.663  13.981   4.160  0.2046  0.1139 -0.0370
31895W        W47512  16.597   8.949  11.612 -0.0390 -0.1453 -0.0060
31896W        W47513  13.545  11.287  15.169  0.0105 -0.1147 -0.1813
31897W        W47514   0.704  11.080  13.515 -0.3266 -0.4036  0.3659
31898W        W47515  11.084   3.275   2.175  0.1955 -0.0021 -0.3441
31899W        W47516  16.203   3.142   4.935  0.0114  0.0771  0.2570
31900W        W47517  11.268   4.631   6.136 -0.0207 -0.2136  0.4263
31901W        W47518  10.785   6.424  14.165  0.3183 -0.0025  0.0384
31902W        W47519  17.215   9.377  15.416  0.3443 -0.1605  0.1632
31903W        W47520   8.999  18.358  15.764  0.2420 -0.0371 -0.2436
31904W        W47521   4.346  13.474   0.105 -0.1652 -0.4813 -0.0254
31905W        W47522  17.683  15.129   3.011  0.2062 -0.4332 -0.3309
31906W        W47523   1.831  13.672  13.506 -0.1629 -0.3025 -0.0881
31907W        W47524  14.623   4.441  15.223  0.0168  0.2149  0.0251
31908W        W47525   5.238   5.687  12.748  0.0556 -0.1327 -0.3076
31909W        W47526   3.879   8.022   3.498 -0.0707 -0.0122  0.1923
31910W        W47527   0.008  15.005  12.583 -0.0820 -0.0894 -0.1942
31911W        W47528  16.662   2.012   2.859  0.2519  0.2813 -0.0002
31912W        W47529   3.518  18.537  13.784 -0.3219  0.2006  0.4338
31913W        W47530   1.284   1.379   1.068  0.1291 -0.0876 -0.1220
31914W        W47531   9.859   9.627   0.845 -0.1933 -0.1684  0.5007
31915W        W47532  16.745  11.873  11.711 -0.0154  0.1458 -0.0719
31916W        W47533  12.289   9.217   0.262  0.2584 -0.3658  0.3008
31917W        W47534  16.349   4.244  14.293 -0.0535  0.0750  0.0860
31918W        W47535   9.115  13.092   1.768 -0.0685  0.1014 -0.1149
31919W        W47536   1.258  14.451   2.930  0.1973  0.0031  0.0929
31920W        W47537   4.712   5.183  15.285  0.0338 -0.1606  0.1498
31921W        W47538  14.078  11.631  11.383 -0.3229 -0.1286 -0.1222
31922W        W47539   3.232   0.320  15.288  0.2784 -0.0784  0.0219
31923W        W47540   7.555   2.801  15.594 -0.1255 -0.0393 -0.0637
31924W        W47541   7.567  16.542   0.334  0.2777  0.4247 -0.0764
31925W        W47542  13.036   5.782   4.151  0.3132  0.2111 -0.1725
31926W        W47543   1.795  11.487   2.451  0.2656  0.0824 -0.4131
31927W        W47544   2.995   7.477  12.384  0.0791 -0.0776  0.0635
31928W        W47545  18.349  11.029  10.701 -0.2463 -0.0265  0.1423
31929W        W47546   4.994  11.449   4.806  0.4208  0.0395 -0.1600
31930W        W47547   9.873  13.960   5.598 -0.3098  0.3188 -0.1940
31931W        W47548  13.600  14.414   0.445 -0.2178 -0.1076 -0.3194
31932W        W47549   4.077   1.045   4.725 -0.0429 -0.0513 -0.1778
31933W        W47550   0.532   0.569   1.778  0.1767  0.1160  0.0743
31934W        W47551  14.507  13.409   2.656  0.1247 -0.3085  0.2367
31935W        W47552   4.921   1.554   0.011 -0.1351 -0.0245  0.2220
31936W        W47553  16.060   1.562  13.245 -0.4028 -0.1802  0.0821
31937W        W47554   3.912  16.200  11.701  0.2937 -0.3027  0.3039
31938W        W47555  11.010   4.221   0.449 -0.1056 -0.0695  0.0901
31939W        W47556   6.088   0.025  12.983  0.1640 -0.2174  0.0890
31940W        W47557   2.668  17.244  12.245 -0.2216 -0.0594 -0.0202
31941W        W47558  16.187  14.156  14.423  0.1591 -0.4463 -0.1355
31942W        W47559   8.467  16.354  11.974 -0.1722  0.0573 -0.0217
31943W        W47560  18.259  13.166   4.160  0.0799  0.1320 -0.0470
31944W        W47561   2.477   0.791   9.825 -0.2641  0.2433  0.1577
31945W        W47562   2.325  18.033  14.983 -0.0503  0.3394 -0.0734
31946W        W47563   9.737  13.081  10.801 -0.0159  0.0241 -0.0752
31947W        W47564   8.687   8.204   4.934  0.1865  0.3959  0.1654
31948W        W47565  18.093   0.279   2.301  0.1566 -0.3418 -0.0023
31949W        W47566  11.163   9.490  15.412  0.0996  0.0964 -0.3727
31950W        W47567  10.636  14.301  12.548 -0.1114  0.0257  0.1707
31951W        W47568  18.415  17.666   1.873  0.0038 -0.0002 -0.0896
31952W        W47569  10.563  14.421   5.099 -0.2605  0.0060  0.0295
31953W        W47570  11.786  15.938   5.694  0.1543 -0.1795  0.2104
31954W        W47571  16.869  12.116  11.057  0.1614 -0.0495 -0.2388
31955W        W47572  12.717   1.789   4.583  0.2968 -0.2739  0.1812
31956W        W47573  17.591   3.128   5.688  0.0410 -0.0082  0.2871
31957W        W47574  11.102   9.754   0.255 -0.1566  0.1131  0.2738
31958W        W47575  10.730  11.834  10.567 -0.2374  0.1716  0.2868
31959W        W47576  13.787  17.718   2.082 -0.0864  0.2612 -0.2757
31960W        W47577  17.577   4.716  14.757  0.0885 -0.1090 -0.1042
31961W        W47578   9.470   7.610   0.809 -0.2278 -0.2554 -0.2716
31962W        W47579  11.302   8.941  14.042 -0.0290 -0.1577  0.0539
31963W        W47580  12.089  11.909  14.746  0.2592 -0.1375  0.0175
31964W        W47581   4.514   3.526  13.778 -0.0798  0.0027  0.2654
31965W        W47582  16.235  13.562  14.297 -0.0191 -0.0595 -0.0781
31966W        W47583   7.310   0.786  15.532 -0.1104  0.1179 -0.2168
31967W        W47584   9.184  15.681  14.666  0.0627 -0.1758  0.0841
31968W        W47585   2.760   4.971   1.386  0.0857 -0.2965  0.2688
31969W        W47586  16.824   3.158  13.324  0.1025 -0.1992 -0.1227
31970W        W47587   7.595   4.006  10.132 -0.0048  0.0718 -0.1419
31971W        W47588  18.568  15.969  13.730 -0.0985 -0.0529 -0.1074
31972W        W47589  14.697  15.499   2.414  0.0718  0.0104 -0.0227
31973W        W47590   3.510  18.408   3.020 -0.1772  0.0974 -0.0608
31974W        W47591   8.991  16.117   2.438 -0.2489 -0.0750  0.0671
31975W        W47592  12.195  16.901  13.363 -0.1214 -0.4113 -0.0212
31976W        W47593   8.439   7.300   0.101  0.0622  0.4777 -0.1941
31977W        W47594   8.389  15.262   4.635  0.1913  0.0623 -0.0125
31978W        W47595   2.236   7.430  13.164  0.0334 -0.1267  0.0399
31979W        W47596   4.918   4.305   0.894  0.1622  0.1725  0.2936
31980W        W47597   7.899  12.026   5.403  0.1319 -0.0883 -0.1656
31981W        W47598   6.171   5.538   1.678 -0.2673 -0.1824 -0.1830
31982W        W47599  17.846  13.401  12.882 -0.1045 -0.0012  0.1510
31983W        W47600   8.950  14.388  14.053  0.0499  0.4092  0.2153
31984W        W47601   8.498   1.936   3.093  0.2623  0.0879 -0.2267
31985W        W47602   1.922   9.791  11.661 -0.1299  0.1348  0.1788
31986W        W47603   8.815   6.631   3.225  0.1061 -0.4326 -0.0807
31987W        W47604  13.594   6.302   3.666  0.0587 -0.1556  0.1097
31988W        W47605   9.660   3.372  13.390  0.2034 -0.3213  0.1706
31989W        W47606   5.787  15.008   3.717  0.0792  0.0408  0.0354
31990W        W47607   9.529   9.245   5.420  0.0331  0.0736  0.0178
31991W        W47608  17.739  18.213   4.181 -0.0233 -0.2008  0.2965
31992W        W47609  12.252   3.226   1.176  0.0564 -0.1585 -0.0218
31993W        W47610  18.093  11.121  12.731  0.0289  0.0059 -0.2367
31994W        W47611  17.146   5.218  14.779  0.0568 -0.1174  0.3029
31995W        W47612  12.577   2.390  14.942  0.3056 -0.0568 -0.2694
31996W        W47613  12.271  13.788  13.605  0.0358  0.2785  0.2975
31997W        W47614   1.440   8.348   3.276  0.0205  0.2213 -0.3511
31998W        W47615  15.953   7.252  12.538 -0.4149  0.1661 -0.5874
31999W        W47616  10.449   2.028  14.806 -0.1397  0.1565 -0.1788
32000W        W47617  14.693   4.349  11.320  0.1132 -0.2402 -0.4559
32001W        W47618   2.746  10.687   3.029 -0.0444 -0.2086 -0.1080
32002W        W47619  10.425  10.671  13.608 -0.1499  0.0879 -0.1217
32003W        W47620  11.636  16.191   4.095 -0.1806  0.0502  0.1286
32004W        W47621   8.247  16.177  11.380 -0.1600  0.1092 -0.0758
32005W        W47622  17.176  15.794  12.301  0.2700 -0.2836 -0.0673
32006W        W47623   8.812   5.313   0.213 -0.0713 -0.0060  0.2123
32007W        W47624   2.287   5.419  10.653 -0.1810  0.0321 -0.0323
32008W        W47625   2.952   8.353   5.386 -0.0444  0.0216 -0.0525
32009W        W47626   8.364   0.490  10.800  0.2880  0.1806 -0.0232
32010W        W47627  13.792  11.239   2.314  0.0185 -0.1795  0.0946
32011W        W47628  13.123  16.596   1.437 -0.1458 -0.2213 -0.0378
32012W        W47629   9.255   2.000   5.130  0.1961  0.1612 -0.1166
32013W        W47630  14.024   1.932   5.842  0.1047 -0.3273  0.1854
32014W        W47631   3.361   7.385   0.252  0.2606 -0.1284 -0.1184
32015W        W47632   7.249  18.387  13.166 -0.3725  0.0279  0.1928
32016W        W47633   2.522  13.933   4.165  0.2258  0.1592  0.2214
32017W        W47634   5.422  15.974  14.914 -0.2584  0.3003 -0.0791
32018W        W47635  12.848   3.237   4.262 -0.1641  0.0464  0.3683
32019W        W47636  15.987  11.547   1.451 -0.1481  0.3287 -0.0532
32020W        W47637   3.888   1.800   0.350 -0.0961 -0.0396  0.1920
32021W        W47638  12.036  10.245  13.176  0.1762 -0.0646 -0.3553
32022W        W47639  17.756   4.899  10.336 -0.1695  0.1381  0.1194
32023W        W47640   1.591  11.979   3.818 -0.0541 -0.0230 -0.0293
32024W        W47641   4.562  11.237  12.805 -0.2680  0.5271  0.3056
32025W        W47642  14.158   3.210   3.813  0.2551  0.1676 -0.3412
32026W        W47643   2.663   4.329  15.494  0.2656  0.1609  0.0723
32027W        W47644  10.886   6.106  12.326  0.0491 -0.0931  0.0285
32028W        W47645   6.901   2.680   1.358 -0.1552 -0.4917 -0.1737
32029W        W47646   7.708   6.398  14.404  0.1197 -0.0244 -0.2269
32030W        W47647  15.802  10.124   1.976 -0.0758 -0.0522 -0.2499
32031W        W47648   5.522   9.596  11.976 -0.1850  0.2501 -0.1084
32032W        W47649   2.452   7.904   4.977  0.3196  0.1999 -0.1938
32033W        W47650   2.485   0.173   2.788  0.0174 -0.0466 -0.0421
32034W        W47651  15.023  11.244   3.033  0.0773 -0.0918  0.0283
32035W        W47652  12.214  13.545  11.624  0.1190  0.1899 -0.1826
32036W        W47653   0.615   9.332   1.843 -0.0771 -0.1401  0.0603
32037W        W47654  15.430   9.099   2.626  0.2228 -0.1672  0.0027
32038W        W47655   7.649  15.702   2.363  0.1247 -0.0743  0.0698
32039W        W47656   8.885  11.918  15.542 -0.1931 -0.0825  0.0909
32040W        W47657  18.339  16.896   1.645 -0.2505  0.1886 -0.1078
32041W        W47658  16.027   7.307   4.548  0.0242 -0.0225 -0.0917
32042W        W47659  15.002  10.285   2.256  0.1646  0.1486 -0.1578
32043W        W47660  14.464   9.442   1.294  0.4058 -0.1336 -0.0595
32044W        W47661   4.380   7.008  12.225  0.0434  0.3152  0.1150
32045W        W47662   2.217  14.235   2.796  0.3411  0.2304 -0.1352
32046W        W47663  15.234  10.851   0.676 -0.0773  0.2669 -0.3568
32047W        W47664  18.508   6.153  11.831 -0.1572 -0.0707  0.0909
32048W        W47665   2.218   3.249   2.359 -0.0854  0.0430  0.1611
32049W        W47666   6.532  16.502   0.310  0.2573 -0.2743  0.2306
32050W        W47667   4.689  10.704   3.798 -0.1783  0.0926 -0.0007
32051W        W47668  13.672  13.099   0.085 -0.0319 -0.1174 -0.0453
32052W        W47669  15.296  17.550   3.062  0.0475  0.3868 -0.0580
32053W        W47670   0.677  16.880  15.717 -0.1414  0.0463  0.0791
32054W        W47671   3.271   5.758  11.569  0.1054 -0.4462 -0.1967
32055W        W47672  14.138   4.840   1.590 -0.1684 -0.2975  0.4054
32056W        W47673   8.951   9.820   2.418  0.1716 -0.0925  0.2991
32057W        W47674   8.841  10.604  10.277  0.1093  0.0376  0.0156
32058W        W47675   6.297  14.079  14.510 -0.2870  0.2977 -0.1713
32059W        W47676   8.307   7.625   1.500 -0.0822  0.1116  0.1385
32060W        W47677   3.609   0.670  12.612  0.0029 -0.0596 -0.0033
32061W        W47678   4.016   1.112   0.721  0.3640 -0.1049  0.2846
32062W        W47679  10.626   4.109  11.469 -0.5164  0.1622  0.3601
32063W        W47680  11.589   2.034  14.710 -0.4387 -0.4351  0.0272
32064W        W47681   3.441   3.366  11.741  0.2450  0.1458  0.0849
32065W        W47682   1.986  17.524   3.853 -0.2289  0.0938 -0.2574
32066W        W47683   1.412  16.915   3.264  0.3070 -0.1430  0.2115
32067W        W47684   3.676  15.257   1.275  0.0017 -0.1657  0.0966
32068W        W47685   2.482   0.022  11.397  0.4830  0.1265  0.0643
32069W        W47686   5.367   9.082  14.880 -0.4452  0.0427 -0.1452
32070W        W47687   1.791  14.472   4.634 -0.3228  0.3892 -0.2069
32071W        W47688   9.940  10.070   1.917  0.1555  0.0931  0.3771
32072W        W47689   0.299   4.980  13.502 -0.0029  0.2310  0.1781
32073W        W47690  13.111   5.137   1.561 -0.2558  0.2828  0.0138
32074W        W47691   5.563   7.101  14.779  0.2339 -0.1420 -0.0115
32075W        W47692   6.363   9.429   4.732  0.4762 -0.1283 -0.2074
32076W        W47693  12.195   6.266   2.018 -0.0956 -0.0933 -0.1026
32077W        W47694   9.990  17.812   2.871 -0.2226  0.0344 -0.0489
32078W        W47695  11.545  17.080  14.432  0.0143 -0.5447 -0.2094
32079W        W47696   6.737   6.726  11.475  0.1438 -0.2434 -0.0649
32080W        W47697  15.282   8.445  14.448  0.0730 -0.1468 -0.1905
32081W        W47698  13.563   2.302   3.834 -0.2838  0.1027 -0.0810
32082W        W47699   1.508   8.091  10.332  0.0882  0.2133  0.1368
32083W        W47700  12.004   4.552   3.671 -0.0939 -0.1635  0.1822
32084W        W47701  18.200  14.447  15.485 -0.0845  0.0148  0.1326
32085W        W47702   6.828   4.165  10.466 -0.3762 -0.2316  0.1580
32086W        W47703   0.082  16.933   3.100  0.3650 -0.0396 -0.0646
32087W        W47704   6.128   7.113   0.977  0.2298 -0.0156  0.1486
32088W        W47705  15.366  14.923   3.685 -0.1099 -0.0904 -0.1925
32089W        W47706   8.960   4.390  14.341 -0.2001 -0.0986 -0.2619
32090W        W47707   5.735  14.898   3.215 -0.0257 -0.2086 -0.0338
32091W        W47708   0.327   0.480   5.880  0.1421 -0.1888 -0.0205
32092W        W47709   3.439   0.330   2.702  0.0816 -0.0987  0.0479
32093W        W47710   5.289   4.844  12.936 -0.0532 -0.2065 -0.1028
32094W        W47711   4.790   6.819  12.529 -0.1096  0.0938 -0.2403
32095W        W47712  16.799  16.305  13.268  0.1808 -0.0432 -0.1696
32096W        W47713   3.552   2.706  15.681 -0.1727  0.1147 -0.3508
32097W        W47714  12.473   9.681   4.411 -0.1462 -0.0604  0.1045
32098W        W47715   4.994  11.241  10.497  0.3211 -0.1632  0.2261
32099W        W47716   2.653  13.781   0.580 -0.2030 -0.5340 -0.1508
32100W        W47717  16.731  18.523   0.862  0.0280 -0.0566  0.1186
32101W        W47718   9.603   5.054  15.551  0.1084  0.3427  0.1805
32102W        W47719   4.745   1.346  13.041  0.2720  0.2924  0.2364
32103W        W47720  16.077  15.007  11.449 -0.3486  0.1966  0.1005
32104W        W47721   1.196   7.571  11.647 -0.2558 -0.0082 -0.1798
32105W        W47722  16.559  18.526   0.346  0.2349 -0.4146 -0.2416
32106W        W47723  10.976  15.717   2.835 -0.0923  0.2872  0.1613
32107W        W47724  17.313  11.137  12.042  0.0262 -0.2811  0.3380
32108W        W47725   6.069   9.158   0.853  0.0741 -0.2618 -0.1254
32109W        W47726  11.345  17.415  14.139  0.2784 -0.1165  0.1281
32110W        W47727  17.166  16.090   1.720 -0.0337 -0.0501  0.1620
32111W        W47728   0.334   9.897  15.737  0.0016 -0.3781 -0.0747
32112W        W47729  15.308   0.901   0.470  0.1961  0.0367  0.0477
32113W        W47730  17.533   1.454  13.605 -0.3742 -0.2160  0.1086
32114W        W47731   3.541   6.733  15.098  0.1643 -0.1510 -0.1631
32115W        W47732   7.822  13.716   4.810  0.3793  0.0447  0.3003
32116W        W47733   8.232  13.515  10.365 -0.1904 -0.2530 -0.1989
32117W        W47734   0.238  17.813   0.129  0.2131  0.0806  0.0128
32118W        W47735  15.536   4.973  13.700  0.3235  0.2244 -0.2779
32119W        W47736  17.287  16.623  11.904  0.4208 -0.0894  0.0870
32120W        W47737  15.907  16.649   4.488  0.2383 -0.1097 -0.2352
32121W        W47738   5.414   6.963  13.010 -0.1686 -0.2658  0.3792
32122W        W47739   1.893   5.941  14.160  0.0915 -0.1862 -0.4017
32123W        W47740   0.090   3.503  14.840  0.0514  0.0850 -0.2468
32124W        W47741  15.897   5.360   1.208  0.3346  0.0047  0.1719
32125W        W47742   6.257  16.963   0.424 -0.1395  0.0536  0.5375
32126W        W47743   1.809  16.316   0.233 -0.2878 -0.0034  0.1311
32127W        W47744  14.591   4.800  14.903  0.2142 -0.2110 -0.0327
32128W        W47745   9.507  14.361   2.647 -0.0663  0.1692 -0.1786
32129W        W47746  12.016   2.956  12.981  0.4300 -0.1497  0.1217
32130W        W47747   9.832  15.173   4.883 -0.0218  0.3667 -0.0451
32131W        W47748  12.312   0.313  14.902 -0.1757  0.2883  0.0095
32132W        W47749   1.319  18.557   2.868 -0.0502  0.0268 -0.1201
32133W        W47750  17.723   5.200  15.587  0.0206  0.0223  0.0929
32134W        W47751  15.901  15.402   5.150 -0.0085  0.0384 -0.2878
32135W        W47752  12.103   4.685  14.009  0.0319 -0.0715  0.1664
32136W        W47753   3.071   8.997   2.011  0.0016 -0.0253  0.0518
32137W        W47754  13.607   0.000  11.260 -0.1057 -0.1293  0.2406
32138W        W47755  12.424   8.206   2.181 -0.1482 -0.0582  0.3562
32139W        W47756  10.738   0.364   2.235  0.0619 -0.3048 -0.2867
32140W        W47757  17.270  11.287   3.970  0.1948 -0.0053 -0.1782
32141W        W47758   8.958   7.060   4.191  0.2745  0.1846 -0.3766
32142W        W47759   2.472   5.359   1.256 -0.1473 -0.0314  0.1769
32143W        W47760   3.900  16.398  15.159 -0.1925 -0.1908  0.0056
32144W        W47761   5.827   7.096   2.265 -0.3211 -0.0666 -0.0275
32145W        W47762   6.988  17.878   1.811 -0.0243  0.0935  0.0381
32146W        W47763   6.750   6.807   4.111  0.0838  0.1583  0.1435
32147W        W47764   8.549   8.448  14.229 -0.2007  0.0231 -0.0825
32148W        W47765  17.310  16.937   0.002 -0.0889  0.2742  0.3030
32149W        W47766  14.796  15.099  13.450 -0.5446 -0.0371 -0.2700
32150W        W47767  10.674   2.084  15.610  0.3926 -0.2921 -0.0292
32151W        W47768  13.246  14.536  14.631  0.1034 -0.3629 -0.0975
32152W        W47769  18.202   0.757   5.328  0.1570  0.2685 -0.1991
32153W        W47770   4.111   8.780   5.027 -0.1700  0.1962  0.2029
32154W        W47771  15.244  14.632   2.672 -0.0549  0.4061  0.5218
32155W        W47772   1.774   2.397  11.040 -0.2778 -0.0095 -0.0173
32156W        W47773   8.731   5.760   0.608 -0.1976 -0.1242 -0.1780
32157W        W47774  13.440  17.725   5.187 -0.0466  0.1387 -0.2529
32158W        W47775   4.598   3.759  13.150 -0.0321  0.0299 -0.0005
32159W        W47776  15.607  13.956  14.391  0.1135  0.1429  0.0597
32160W        W47777  17.757   6.198   4.859  0.0407 -0.2366 -0.0037
32161W        W47778   1.685   7.020   3.002  0.4484  0.1913  0.0068
32162W        W47779   3.709  13.107   0.563  0.0311  0.2171  0.3752
32163W        W47780  11.605  18.507   0.041 -0.0850 -0.0527 -0.1523
32164W        W47781   6.618  16.952  11.581  0.0072 -0.3758 -0.0148
32165W        W47782   9.329  14.834   4.501 -0.1599  0.1131  0.2940
32166W        W47783  15.729  12.106  15.402  0.0363  0.1058 -0.2403
32167W        W47784  16.194   7.959  11.950 -0.2027 -0.0930  0.3119
32168W        W47785   2.684   7.053  12.504  0.0589  0.1873  0.2493
32169W        W47786  18.005   5.758  14.216  0.1393 -0.0927 -0.2554
32170W        W47787  16.779   7.296   0.863 -0.1121 -0.1052 -0.0081
32171W        W47788   7.202  17.526  15.205  0.1273  0.0171  0.1228
32172W        W47789  14.924  12.307  12.384  0.1212  0.1601  0.1916
32173W        W47790  14.355   7.721   0.007 -0.0200  0.0278 -0.1369
32174W        W47791  13.074   9.067   2.714  0.4246 -0.1346 -0.0295
32175W        W47792   4.922  13.220   0.623  0.1570  0.2792  0.1548
32176W        W47793   8.381   3.191   4.265  0.0859 -0.1653 -0.1974
32177W        W47794   1.644  15.919   1.673  0.0815 -0.3460  0.2057
32178W        W47795   9.785   5.760   1.393  0.6549  0.1025 -0.0821
32179W        W47796  18.462   7.132  14.681  0.0828  0.2774  0.0472
32180W        W47797  12.184   9.299  14.338 -0.3232  0.0816 -0.1362
32181W        W47798   6.853  11.266  12.808  0.1768 -0.0437 -0.1392
32182W        W47799   0.415   8.351   0.489  0.4432  0.3449 -0.0731
32183W        W47800   9.399  16.629   1.914  0.0259 -0.1335 -0.1388
32184W        W47801  10.231  13.040   1.006 -0.2210 -0.2603 -0.1277
32185W        W47802   3.335   1.036   5.555 -0.1363  0.1733  0.2835
32186W        W47803   7.294   6.036  12.223 -0.1222  0.3041 -0.1996
32187W        W47804  14.342   5.854   5.562  0.0789  0.0393 -0.1052
32188W        W47805   8.122   5.998  11.760  0.2984  0.0796 -0.0087
32189W        W47806  17.703   9.950  13.228  0.3022  0.0948 -0.2393
32190W        W47807  11.594  14.673   5.569 -0.1344 -0.2793  0.0243
32191W        W47808   3.761  14.254   5.590  0.1619  0.1752  0.0311
32192W        W47809   7.231   2.537   3.947  0.0637  0.0020 -0.0249
32193W        W47810   4.989   9.380  14.574 -0.1489 -0.0881  0.0752
32194W        W47811  16.806  16.545   0.008  0.1597 -0.1914  0.3501
32195W        W47812  10.575   6.113   2.319 -0.1834 -0.2101  0.0139
32196W        W47813  16.247   7.008   0.122  0.3125 -0.3268  0.2926
32197W        W47814   9.449   6.924  14.047  0.0859  0.2629  0.1821
32198W        W47815   7.361   1.106   0.374  0.0702 -0.0473  0.0973
32199W        W47816  10.359  14.057  14.124  0.2540  0.1420  0.0721
32200W        W47817   1.994   5.300  13.456 -0.3482 -0.0488  0.2899
32201W        W47818  13.832  17.979  10.644 -0.3499  0.0443  0.0945
32202W        W47819   8.421  14.618  11.904 -0.2085 -0.3355  0.1515
32203W        W47820   8.252  12.329   2.663  0.2414 -0.2912  0.2582
32204W        W47821  17.174   7.486   0.500  0.2004 -0.2095 -0.3187
32205W        W47822  18.083   8.883   3.122 -0.2950 -0.1136  0.2150
32206W        W47823   3.184   3.370   1.068  0.1244 -0.0382  0.2125
32207W        W47824  14.926  16.488   2.237  0.0479  0.0765  0.5040
32208W        W47825  15.423   7.005  14.471 -0.1945 -0.1450 -0.1628
32209W        W47826  14.514   0.254   1.122 -0.4210  0.0854 -0.2753
32210W        W47827   3.976  11.709  13.142  0.2981  0.0686  0.1165
32211W        W47828   4.137  13.007   4.071  0.2669 -0.0433 -0.2790
32212W        W47829   9.725   7.302  14.172 -0.3056  0.2980  0.2176
32213W        W47830   9.482  11.979  12.310  0.5211  0.2405  0.2290
32214W        W47831   2.053  13.472   1.232  0.0073  0.0839 -0.0110
32215W        W47832   1.984  18.208  12.304  0.0297 -0.2203  0.1439
32216W        W47833  12.442   2.734   5.050  0.1469  0.1227 -0.3138
32217W        W47834   4.878   1.213   3.957 -0.1831 -0.3304  0.1612
32218W        W47835   5.780  10.436   1.441  0.0100  0.1734  0.0327
32219W        W47836  17.985  17.890   4.525 -0.1096 -0.1284 -0.0450
32220W        W47837   9.978  14.450  12.706  0.2410  0.0295 -0.0748
32221W        W47838   9.554   7.071  11.811 -0.0016  0.0727 -0.1771
32222W        W47839   1.150   0.456   4.416 -0.0013  0.3094  0.1273
32223W        W47840   8.447  15.485  12.196  0.0970  0.0840  0.1161
32224W        W47841   7.386   6.578  13.079 -0.0023 -0.0844  0.0280
32225W        W47842  16.033  11.761  15.790 -0.2452 -0.3819 -0.2560
32226W        W47843  15.610   2.297  11.424  0.0498  0.0748  0.1645
32227W        W47844  17.865   7.338   3.772 -0.0159  0.1748  0.0858
32228W        W47845   8.930   4.043   0.431  0.2300  0.1033  0.0009
32229W        W47846  13.382  17.386  13.675 -0.2463 -0.1223  0.1432
32230W        W47847  16.292  16.624  14.651  0.1133  0.1178  0.0864
32231W        W47848  17.700  10.680  11.544  0.6250  0.0204  0.3320
32232W        W47849  13.726   8.313   0.238  0.0207 -0.4054  0.2391
32233W        W47850   5.765  13.265   2.093 -0.1882 -0.0187  0.1485
32234W        W47851   9.034  14.092  13.661 -0.1012 -0.0155  0.0901
32235W        W47852   2.159   1.581  13.139  0.0793 -0.3490 -0.2305
32236W        W47853   1.470   3.689  15.331 -0.1559 -0.1424  0.0767
32237W        W47854  13.212   2.816  14.726 -0.0033  0.0295 -0.1975
32238W        W47855   5.689   5.031  15.363  0.0609  0.1543 -0.1950
32239W        W47856  18.154   3.201   2.732 -0.1179  0.3896 -0.3158
32240W        W47857   3.741   9.798   4.326 -0.0923  0.0780 -0.0528
32241W        W47858   8.497   5.950   2.552 -0.0229  0.0995 -0.1696
32242W        W47859  14.753   0.743  12.485  0.3227  0.0247 -0.2002
32243W        W47860  13.098   4.522   1.562  0.0789 -0.2722  0.2425
32244W        W47861  10.330   5.625  12.786 -0.0458  0.0681 -0.2163
32245W        W47862   2.961  18.129   3.235  0.1524 -0.1290  0.0669
32246W        W47863  14.286   6.336  15.400  0.1872  0.1746 -0.0239
32247W        W47864  16.021   5.909   3.517 -0.0437  0.0124  0.2239
32248W        W47865  11.256  10.592   2.458 -0.0526  0.0582 -0.1596
32249W        W47866   8.848  16.834  15.622 -0.0777  0.0330  0.2855
32250W        W47867   5.757   4.582  12.088  0.2486 -0.0337  0.1455
32251W        W47868   6.191  12.903  10.768  0.2415  0.0742  0.0737
32252W        W47869   8.238   3.464  13.001  0.0941  0.0295 -0.2752
32253W        W47870  17.600   1.226  13.125  0.0911  0.2591  0.0623
32254W        W47871   4.395   6.844  13.623 -0.1774 -0.1461 -0.0984
32255W        W47872  12.220   5.767   3.106  0.1568 -0.3646 -0.0434
32256W        W47873   5.771  11.444  10.847 -0.0906  0.2456 -0.1838
32257W        W47874  14.401  15.724  11.860 -0.0964  0.2941  0.2175
32258W        W47875  10.341  13.487   3.913  0.0607 -0.2164  0.0896
32259W        W47876  14.023   8.916   9.959 -0.1153  0.1792 -0.1560
32260W        W47877   7.295   1.222   5.871 -0.1084 -0.2594  0.3107
32261W        W47878   6.218  14.287   3.603 -0.1474 -0.0627  0.0191
32262W        W47879   1.982   4.815   3.169  0.2614  0.1444  0.0543
32263W        W47880   5.976  11.452   9.867  0.1863 -0.0028  0.0350
32264W        W47881   9.763  13.758  10.413 -0.0953  0.0533 -0.1398
32265W        W47882   6.368  14.647   5.145  0.0205  0.0376  0.0108
32266W        W47883  10.079   5.853  10.494 -0.1146  0.1511 -0.1793
32267W        W47884  12.286   8.485   1.469  0.0722  0.0502  0.0048
32268W        W47885  17.110  10.823   1.325 -0.0485  0.1374 -0.0762
32269W        W47886   2.115  17.248  14.780  0.3386 -0.2174  0.1658
32270W        W47887  16.265  13.044   9.677  0.2032  0.2346  0.1107
32271W        W47888   0.658  17.522  15.153 -0.1121  0.1192 -0.1918
32272W        W47889  18.207  17.687   4.972 -0.0768 -0.3882  0.0815
32273W        W47890   2.528  18.401   5.462  0.2283  0.4442  0.0905
32274W        W47891   1.700   1.930  13.690 -0.2512 -0.0879 -0.2771
32275W        W47892  10.428  12.905  10.333 -0.0778  0.3073  0.5448
32276W        W47893  17.875  15.089   2.351  0.0975 -0.0090  0.0227
32277W        W47894   7.117   5.062   1.146 -0.0590  0.0959 -0.1464
32278W        W47895   8.103   2.738  13.884  0.4465 -0.2434  0.0337
32279W        W47896   7.943  11.671  14.589  0.1407  0.0225  0.2790
32280W        W47897   4.079   4.609  14.380 -0.2228 -0.1981  0.2517
32281W        W47898  15.809  12.301   2.912 -0.0735  0.0205 -0.2185
32282W        W47899   0.436   8.369   1.031 -0.0026  0.2426 -0.1182
32283W        W47900   4.242  16.878   1.805  0.0074 -0.2051 -0.0711
32284W        W47901   8.091  11.446  12.351  0.4195  0.3129  0.0355
32285W        W47902  16.465  13.491   0.360 -0.2653  0.1339  0.5217
32286W        W47903  16.301   5.731   2.763  0.1608 -0.2530 -0.4454
32287W        W47904   5.032   8.682   0.246 -0.3877  0.0445  0.0088
32288W        W47905   6.965  17.768   0.642 -0.0749 -0.1612 -0.2650
32289W        W47906  16.862  15.020   3.562  0.0259 -0.0515  0.2280
32290W        W47907   4.594   5.206   0.060  0.2632 -0.2141  0.2662
32291W        W47908  11.504   5.597   1.121 -0.1205 -0.0523 -0.3273
32292W        W47909   8.927  14.694   4.175 -0.0521 -0.2309 -0.0245
32293W        W47910  11.008   4.753   0.285  0.0776  0.1828 -0.0337
32294W        W47911   4.086  13.864   2.942 -0.0087 -0.0244  0.0038
32295W        W47912   6.682  10.299   2.229  0.0840  0.3859  0.1575
32296W        W47913  13.540   1.537  13.489 -0.0125 -0.3603 -0.1017
32297W        W47914   3.509   5.256   3.041 -0.0107 -0.3687 -0.0605
32298W        W47915   4.703  14.087  13.272  0.0852 -0.1369 -0.1661
32299W        W47916   6.659  11.517  12.336  0.0368 -0.0423  0.0390
32300W        W47917   1.189   3.021  12.289  0.0158 -0.1749  0.0172
32301W        W47918  13.240   4.482   5.614  0.2067 -0.0972  0.0455
32302W        W47919  10.830  18.343   3.699  0.2592 -0.2575 -0.1357
32303W        W47920  11.490   2.274   2.030 -0.0234 -0.1533 -0.0974
32304W        W47921  14.481   9.723   1.827 -0.0787  0.1294  0.0339
32305W        W47922   5.456   1.895  11.638  0.2622 -0.2967 -0.0350
32306W        W47923  13.933   7.079   4.876  0.0096  0.1757 -0.2212
32307W        W47924   3.298   9.793  11.501  0.0770  0.1812  0.0106
32308W        W47925  13.357  17.896  13.360  0.3370 -0.0251  0.0052
32309W        W47926   8.076   7.916   3.018 -0.0490  0.1105 -0.0957
32310W        W47927   3.564   5.398   4.927  0.1120 -0.0214 -0.0188
32311W        W47928  16.337   5.093  13.879  0.2432 -0.2231 -0.0119
32312W        W47929   5.149   3.959   5.018 -0.3378  0.2977 -0.1096
32313W        W47930   0.783   5.707   1.107  0.5265  0.2866 -0.1098
32314W        W47931  12.823   9.753  11.473  0.0306 -0.3829 -0.3145
32315W        W47932   4.069   9.020  12.846 -0.2022 -0.0102 -0.2239
32316W        W47933  12.076   1.241   0.583  0.1329  0.1198 -0.2333
32317W        W47934   2.795  16.636   5.076 -0.1447 -0.0590  0.0386
32318W        W47935  16.402   8.814   4.228  0.0827  0.0768 -0.1827
32319W        W47936   0.955   9.944   1.086  0.1175 -0.1178 -0.1752
32320W        W47937   2.698   6.106  11.037  0.2440 -0.0580  0.3977
32321W        W47938  18.599   8.240   1.176  0.2522  0.0727 -0.1335
32322W        W47939  12.444  10.894   3.510  0.0107  0.2743 -0.0094
32323W        W47940  17.113   2.015   2.348  0.0857  0.2945  0.1523
32324W        W47941   7.592  13.328  14.349 -0.0457  0.0333 -0.0706
32325W        W47942  18.471  17.094   0.545  0.0589 -0.3188  0.1737
32326W        W47943   5.347  18.652  13.539 -0.2494  0.0670 -0.5087
32327W        W47944  13.939   3.463   1.499  0.1510  0.0889 -0.1239
32328W        W47945   6.456   6.164  12.916 -0.0606  0.0122 -0.0975
32329W        W47946  15.227  11.046  12.999 -0.1031 -0.2025 -0.0434
32330W        W47947  17.849  17.572  13.146 -0.2770 -0.1158  0.3021
32331W        W47948   0.926   1.288   3.338 -0.0919 -0.3516 -0.2337
32332W        W47949   1.286   0.627  14.846  0.0706  0.1137  0.2387
32333W        W47950  17.411  10.039  10.755  0.2788  0.0838 -0.0193
32334W        W47951  17.810  13.990  14.609  0.1241 -0.0042  0.2940
32335W        W47952   0.245   1.768  11.599  0.0147 -0.1774 -0.0074
32336W        W47953   4.175  10.381   2.075  0.2713  0.0955  0.0048
32337W        W47954  17.277  16.581  15.429 -0.0502  0.1798 -0.1464
32338W        W47955   0.825  15.960  11.232  0.0313 -0.2633  0.0079
32339W        W47956   9.032  14.105   4.881  0.1556  0.0414 -0.2077
32340W        W47957   1.578   3.641  14.343  0.0885 -0.0015 -0.3543
32341W        W47958  13.435  10.016  12.873  0.0710  0.2772 -0.1396
32342W        W47959  13.947  16.045   1.173 -0.0321  0.1836  0.0525
32343W        W47960  16.920  13.441  12.629 -0.2538  0.0375  0.1912
32344W        W47961   4.558   9.581   0.570  0.2191  0.1375 -0.2944
32345W        W47962   4.702   7.552  14.628 -0.0878  0.0337  0.0315
32346W        W47963  16.595  18.376   5.192  0.0208  0.1711  0.0320
32347W        W47964  15.313   8.080   4.704 -0.1441 -0.3061 -0.3866
32348W        W47965   0.886  17.591   1.991 -0.2159 -0.0155 -0.0006
32349W        W47966   8.208   6.694   4.801  0.2279 -0.4816  0.1755
32350W        W47967   1.361   1.452   3.021 -0.1735  0.2045 -0.1099
32351W        W47968  11.680   9.868  12.949 -0.1349  0.0282 -0.1203
32352W        W47969  18.124  11.904   5.216  0.4781 -0.1522 -0.2024
32353W        W47970   4.304  10.873   3.492  0.2793  0.0329  0.0327
32354W        W47971  18.320   7.094   3.928 -0.3737  0.0386 -0.1381
32355W        W47972  12.057   2.758   1.189 -0.1347  0.1749 -0.1937
32356W        W47973  15.894  16.694   2.040 -0.1618  0.3491 -0.1538
32357W        W47974  12.531  15.530   0.204 -0.0384  0.2327 -0.1947
32358W        W47975  14.524  16.357  12.814 -0.0246 -0.3203  0.4278
32359W        W47976  17.993   3.679  10.821  0.3075 -0.0728 -0.1089
32360W        W47977   1.919  17.951   4.092 -0.0413  0.1173 -0.1564
32361W        W47978  17.396   6.288  11.293  0.2251 -0.4329  0.3607
32362W        W47979  18.195   0.650  14.557  0.0966 -0.2538  0.1205
32363W        W47980  12.828   7.922   4.634 -0.2995 -0.0049  0.3033
32364W        W47981   7.251  14.805   4.507  0.0878  0.0739  0.0408
32365W        W47982  11.717  18.312   3.496  0.0191  0.1763 -0.0233
32366W        W47983  18.069   6.680   0.503 -0.1874  0.1817  0.2865
32367W        W47984  11.316   9.256   4.204 -0.2883  0.0552 -0.3537
32368W        W47985   0.551  15.344   3.557  0.1020  0.0358 -0.0268
32369W        W47986  12.538   9.772  11.994 -0.0407 -0.1299 -0.0128
32370W        W47987  13.370  12.203  12.673  0.1036 -0.0082  0.3439
32371W        W47988  14.282   0.470   5.811  0.2328  0.2261 -0.0041
32372W        W47989  11.343   8.683  14.457 -0.3507  0.0593  0.2258
32373W        W47990  12.156   3.617   0.185  0.2032  0.1620  0.0638
32374W        W47991  11.100  18.535   0.791  0.1992 -0.0323 -0.0697
32375W        W47992  15.321   0.535   1.639  0.0883 -0.1554 -0.1316
32376W        W47993  14.588  12.517   2.863 -0.1533  0.2495  0.1227
32377W        W47994   6.076  13.412  10.613  0.1531 -0.2448 -0.3494
32378W        W47995   1.435   6.961   0.447  0.0603  0.1183 -0.0397
32379W        W47996   5.486   2.534   3.360 -0.0433 -0.0459  0.0214
32380W        W47997   3.725   2.222  15.417 -0.0957 -0.0895 -0.0708
32381W        W47998   5.556  18.358   3.624 -0.1335  0.1411  0.1646
32382W        W47999  16.567  16.348   3.916 -0.0422  0.1078 -0.1155
32383W        W48000  18.144   3.044   0.622 -0.0502  0.2420 -0.1387
32384W        W48001  14.994   9.011  15.193  0.0594 -0.3864 -0.1926
32385W        W48002   9.283   0.921  11.583  0.0372 -0.0251 -0.2615
32386W        W48003  18.573   0.815   5.685 -0.0107  0.1892  0.0572
32387W        W48004   8.350  17.512  13.770 -0.0801  0.3948  0.2162
32388W        W48005  17.627  13.060   2.335 -0.1650 -0.1577  0.2899
32389W        W48006  16.673   5.698  12.330  0.1053 -0.0986  0.1544
32390W        W48007   3.700  14.544   3.690  0.0893 -0.2478 -0.1998
32391W        W48008  10.091   8.429  13.146 -0.0525  0.0690  0.1686
32392W        W48009   3.059   6.060  12.353 -0.0387  0.1615  0.1432
32393W        W48010   3.286   8.223  10.027 -0.0666  0.1116 -0.2774
32394W        W48011  13.921   5.077   1.236  0.0826 -0.1424  0.0874
32395W        W48012  12.836  15.035   2.689  0.0030  0.1861  0.0114
32396W        W48013   0.935  10.394   4.855 -0.1759  0.1660  0.3352
32397W        W48014   2.794   1.879   2.510 -0.0812 -0.1509  0.3609
32398W        W48015   0.657   1.955  15.483 -0.3110 -0.1277 -0.0579
32399W        W48016  10.573  16.615  14.269  0.1369  0.2380 -0.1111
32400W        W48017   9.301   4.407   0.043  0.0812  0.0845 -0.0300
32401W        W48018   3.745   8.404   1.152 -0.3781 -0.1223 -0.0895
32402W        W48019   1.131   9.518   3.649  0.1781 -0.0459  0.0360
32403W        W48020   5.839   0.158   1.329  0.0555 -0.2644  0.0803
32404W        W48021  16.755  18.279  13.442 -0.1286 -0.1530 -0.2909
32405W        W48022   8.394   7.523   2.814  0.2086 -0.0681  0.1946
32406W        W48023  11.596  12.140  12.920  0.0512  0.2699  0.0810
32407W        W48024   3.512  14.738   1.253  0.0323 -0.0258  0.2138
32408W        W48025  14.876   5.288  15.038  0.0662 -0.2045 -0.0227
32409W        W48026   5.508  14.089  11.800  0.1192 -0.1887 -0.1093
32410W        W48027  10.104   4.231  11.270  0.0271 -0.0121 -0.1144
32411W        W48028   8.767   9.116  14.801 -0.3159  0.1483 -0.1603
32412W        W48029  11.622  15.851  13.472 -0.0569  0.0003 -0.1949
32413W        W48030   5.489   9.210   0.967  0.4469  0.0264 -0.0826
32414W        W48031   5.706  15.096  14.660  0.1176  0.2475  0.0796
32415W        W48032  14.939  15.224  12.603  0.2166 -0.0064 -0.3117
32416W        W48033   0.472   7.969   5.173  0.0867 -0.3655  0.1678
32417W        W48034   4.018  12.378   3.072 -0.1430 -0.0690 -0.1996
32418W        W48035  14.838  11.675  15.199 -0.1762  0.1514  0.1183
32419W        W48036  11.412  14.790  10.603 -0.2429 -0.2273 -0.0811
32420W        W48037   3.486   6.554  12.219 -0.0124  0.1157 -0.3292
32421W        W48038   1.661   1.495  12.029  0.2717 -0.0262  0.1622
32422W        W48039   5.267  16.453   4.388 -0.1650  0.1248 -0.0922
32423W        W48040   3.093  13.341  12.763  0.0050 -0.0522  0.1292
32424W        W48041   3.515   0.806  14.613 -0.2549 -0.0998 -0.3859
32425W        W48042   8.336   1.042   4.933  0.1134 -0.3022  0.0179
32426W        W48043  12.318   0.243   0.438 -0.0414  0.3524 -0.2029
32427W        W48044  17.735   2.102  15.126  0.0263  0.0336  0.0325
32428W        W48045   1.432   2.126  12.420  0.0469  0.3163 -0.2143
32429W        W48046   6.436   9.442  15.600  0.1454 -0.5054 -0.1705
32430W        W48047   2.854   1.878  11.841 -0.0796  0.2461  0.1253
32431W        W48048  10.214   9.687   1.233 -0.0146 -0.0503  0.0778
32432W        W48049   7.722   7.333   0.760  0.0660 -0.2894  0.0568
32433W        W48050   2.890  14.289   5.128  0.1011 -0.2392  0.1649
32434W        W48051   0.780  15.110  14.928  0.0554 -0.3527  0.1093
32435W        W48052   6.550  18.016   2.636  0.0271  0.2144  0.0713
32436W        W48053  11.871   2.653   0.230  0.0906 -0.0764 -0.2145
32437W        W48054  12.801   8.611   0.006 -0.0925  0.1224 -0.0360
32438W        W48055  14.209  15.569   1.417 -0.1202  0.0890 -0.0147
32439W        W48056   9.286   9.544   0.707  0.0031  0.2153 -0.1799
32440W        W48057  11.553   3.974   0.304 -0.0538  0.2529  0.0602
32441W        W48058  11.288  13.661   4.453  0.1254  0.0721 -0.0930
32442W        W48059   6.797   6.567  13.954 -0.0112 -0.0976  0.1954
32443W        W48060  14.165   7.756   4.873 -0.1342  0.0548  0.2395
32444W        W48061   3.933   8.363   3.073  0.0578 -0.0122 -0.0098
32445W        W48062  16.344   1.569  11.487  0.1797  0.2668  0.1874
32446W        W48063   0.795  11.811   4.184 -0.0216  0.2743  0.1544
32447W        W48064   1.058   9.335  11.345  0.4235 -0.0999  0.1077
32448W        W48065   6.322   0.009  11.572  0.0300 -0.0740 -0.1290
32449W        W48066  13.149   6.478   2.161  0.1710  0.2455  0.4102
32450W        W48067   3.809  13.724  11.664 -0.0854  0.1420 -0.2583
32451W        W48068   9.791  13.100   3.840 -0.1735 -0.0064 -0.0424
32452W        W48069   0.131  18.418  14.171 -0.2125 -0.2021  0.1760
32453W        W48070   9.441   4.895   6.188  0.0832 -0.4063 -0.0347
32454W        W48071   3.124   3.955  15.042 -0.0479 -0.1442  0.0715
32455W        W48072   1.355   0.102  15.052  0.1480 -0.0975 -0.0427
32456W        W48073   1.600  18.045   5.335 -0.3951  0.0655  0.0936
32457W        W48074  10.874   3.084  12.795 -0.1678 -0.0080  0.2141
32458W        W48075   3.319   9.357  12.590 -0.0856 -0.3465  0.0491
32459W        W48076   0.668   6.745   1.181  0.1158 -0.1613  0.1240
32460W        W48077  16.949   4.546  14.103 -0.2061  0.3285  0.0889
32461W        W48078  14.099  18.640   5.956 -0.0659  0.2163 -0.2646
32462W        W48079  18.113   3.885  14.539 -0.1325 -0.0816 -0.4828
32463W        W48080   6.231  11.851   2.970 -0.0542  0.2189  0.1143
32464W        W48081  18.636   7.171  11.280 -0.0061 -0.2689 -0.0050
32465W        W48082   8.512  15.991  10.499  0.2567 -0.3238 -0.0533
32466W        W48083   4.820  13.403  15.528  0.3338  0.1820  0.0240
32467W        W48084  10.645  18.071   5.541  0.1986 -0.1164 -0.2914
32468W        W48085   4.645  18.128   0.527  0.3930  0.1879  0.1229
32469W        W48086   7.490  17.242   4.884 -0.2131  0.0950 -0.0322
32470W        W48087   4.808   4.112   1.875 -0.0050 -0.0563 -0.0643
32471W        W48088  17.084   4.604  11.200 -0.0464 -0.1405 -0.2472
32472W        W48089   7.375   7.924  10.331 -0.0351 -0.0679  0.1572
32473W        W48090   0.285   5.360  10.785 -0.1141  0.2587 -0.3493
32474ION     NA48091  14.295   2.037  10.891 -0.0023 -0.3029 -0.0284
32475ION     NA48092  13.273  15.204   5.734 -0.3489 -0.3198  0.1220
32476ION     NA48093  16.496   4.819  10.395 -0.1813 -0.2306  0.3669
32477ION     NA48094   9.571   2.493  10.413  0.2162  0.2320  0.0185
32478ION     NA48095   4.670   8.523  10.258  0.0601 -0.2284  0.0554
32479ION     NA48096   1.396   6.678   2.738  0.0331 -0.2027 -0.2609
32480ION     NA48097  16.034  17.718  10.700  0.3041 -0.0977 -0.4218
32481ION     NA48098  12.350   8.374   0.739  0.0784  0.0205 -0.1270
32482ION     NA48099   6.850   6.841  13.148 -0.0529 -0.2114 -0.1424
32483ION     NA48100  15.247  18.151  10.635  0.0322 -0.0760  0.2771
32484ION     NA48101  18.248  16.372   1.737 -0.0718 -0.0632  0.3125
32485ION     NA48102  14.702   0.746   3.671 -0.0315  0.2350 -0.0294
32486ION     NA48103   4.688  10.794   9.352 -0.1126  0.2192  0.2228
32487ION     NA48104   5.184   4.671  10.660 -0.0012 -0.3623 -0.1398
32488ION     NA48105   4.275   2.677  14.533 -0.3711 -0.0585  0.1248
32489ION     NA48106  10.245  16.073  10.081 -0.0161 -0.1625 -0.2652
32490ION     NA48107  16.143   4.897   0.459 -0.0203 -0.0225  0.4063
32491ION     NA48108  18.178   6.974   9.724 -0.2009 -0.0746  0.1910
32492ION     NA48109   2.483   1.144   5.929 -0.1289  0.0229  0.0861
32493ION     NA48110   6.977  14.289  11.300 -0.3605 -0.0803  0.1903
32494ION     NA48111  11.198  12.353   9.345 -0.1624  0.2293 -0.0676
32495ION     NA48112  10.341   4.130   0.820 -0.1937  0.3038  0.2192
32496ION     NA48113  14.681   1.341  13.654 -0.1680  0.3842 -0.0964
32497ION     NA48114   3.971  18.546   0.735 -0.1685 -0.1539  0.2648
32498ION     NA48115  17.384  16.615  10.270  0.1465 -0.1696 -0.1069
32499ION     NA48116   6.779   7.587  10.628  0.0161 -0.0253  0.2215
32500ION     NA48117   1.355   1.358  10.527 -0.2742  0.1353  0.1892
32501ION     NA48118   2.236  10.144   9.807  0.1870  0.1121  0.2356
32502ION     NA48119   0.826   9.208   5.109  0.0876  0.0658  0.1366
32503ION     NA48120  14.324  18.628  10.786  0.0788  0.0817  0.0270
32504ION     NA48121  12.422  13.267   9.521 -0.1105 -0.3850  0.1543
32505ION     NA48122  14.423  11.729  15.499  0.0475 -0.2881 -0.2750
32506ION     NA48123   5.492  10.715   9.633  0.1301 -0.0549 -0.1232
32507ION     NA48124  15.424   5.763   5.801 -0.2541 -0.1626 -0.1474
32508ION     NA48125   6.099   7.430   3.418  0.0985 -0.0659  0.0129
32509ION     NA48126  11.118  10.879   9.922 -0.1423 -0.2532  0.4061
32510ION     NA48127  15.549   1.490  10.924  0.0581  0.0781  0.2050
32511ION     NA48128   8.132   8.707  12.353 -0.2198  0.3395 -0.1353
32512ION     NA48129  18.349  17.147  10.390 -0.0778  0.0794  0.2691
32513ION     NA48130  16.265  11.064  12.829  0.0926  0.0314  0.3810
32514ION     NA48131   3.577  13.179   2.138  0.0613  0.1672  0.1765
32515ION     NA48132  13.938   9.877  10.266 -0.1144 -0.1549  0.1317
32516ION     NA48133   3.444   2.763   1.693 -0.2227 -0.4776  0.1379
32517ION     NA48134   0.775   2.864  10.374  0.1112  0.1048  0.1300
32518ION     NA48135   7.046   3.523  12.119 -0.1804 -0.0259 -0.0657
32519ION     NA48136  11.012   7.920   2.267  0.1789 -0.2749  0.0823
32520ION     NA48137  18.241  14.479   5.561 -0.1136  0.0875 -0.0992
32521ION     NA48138  14.896   4.907  10.630 -0.0339 -0.1872 -0.0462
32522ION     NA48139  12.578  11.785   9.692  0.2432 -0.3618  0.1110
32523ION     NA48140  11.843   9.757  11.282  0.5318  0.2449 -0.3715
32524ION     NA48141   1.733   7.805   9.918  0.1324  0.1663 -0.0984
32525ION     NA48142   6.282  10.112   5.249  0.0273  0.1515  0.2301
32526ION     NA48143   7.564   6.080  10.264  0.0088 -0.0551  0.2116
32527ION     NA48144   7.140  17.508   5.576 -0.2240  0.0915 -0.2045
32528ION     NA48145   5.027   9.348  10.284 -0.1746 -0.1561 -0.1853
32529ION     NA48146  13.942   7.216  10.352  0.1260  0.0331 -0.1913
32530ION     NA48147  14.630  17.486  10.491 -0.1543 -0.2201 -0.3407
32531ION     NA48148  12.635   4.405  10.760  0.0019 -0.4076 -0.1243
32532ION     NA48149   9.889   1.447  13.376 -0.1288  0.4173  0.0950
32533ION     NA48150  18.636  11.197  10.387 -0.0296  0.0353 -0.1824
32534ION     NA48151   3.872   3.492   5.985 -0.0848  0.0296 -0.0217
32535ION     NA48152   2.137  11.134   4.769  0.0176 -0.0988 -0.0297
32536ION     NA48153   5.375   5.750   5.490  0.1022 -0.2822  0.0346
32537ION     NA48154   1.629  12.561   9.776 -0.0230 -0.1366  0.1888
32538ION     NA48155   5.563   0.790   9.892  0.1790 -0.2604 -0.0083
32539ION     NA48156   8.144   9.003  10.618 -0.0705 -0.0473  0.1873
32540ION     NA48157   1.628  16.258   0.692  0.1979 -0.0218  0.2192
32541ION     NA48158   7.201   9.583   9.938 -0.0374 -0.1919 -0.0292
32542ION     NA48159   0.853   7.331   2.453  0.0420  0.4038 -0.2300
32543ION     NA48160   0.521   5.586   9.837 -0.1323  0.0763 -0.0740
32544ION     NA48161   9.913  14.615  11.387 -0.0060 -0.0600 -0.1440
32545ION     NA48162  18.386   5.769  13.263  0.1500  0.0212  0.0423
32546ION     NA48163   1.360  14.041  10.116 -0.3108  0.0473  0.0673
32547ION     NA48164  10.475   0.844   6.062 -0.0284  0.0537  0.1355
32548ION     NA48165  14.772   4.551   2.586  0.0613  0.1607 -0.2058
32549ION     NA48166  10.046   8.594   5.023 -0.3595  0.2678 -0.0978
32550ION     NA48167   8.160   8.866   1.844  0.1545  0.0301 -0.3061
32551ION     NA48168   4.641   4.756  10.731  0.0301 -0.3499 -0.2697
32552ION     NA48169   7.587   5.389  11.186  0.1687 -0.3096 -0.0714
32553ION     NA48170   1.194  18.026   1.976  0.2623 -0.0994 -0.0764
32554ION     NA48171  12.752  10.298   9.835  0.1758 -0.0897 -0.1640
32555ION     NA48172   5.752   0.660   5.515  0.0209 -0.1731  0.2020
32556ION     NA48173   6.889   2.400  10.311 -0.1895  0.2891 -0.1230
32557ION     NA48174  13.423  18.252  10.411  0.0704 -0.4666 -0.2661
32558ION     NA48175  11.665  18.476  10.541  0.1626  0.1045  0.2628
32559ION     NA48176  10.072  13.781  12.442 -0.4705  0.1680 -0.3677
32560ION     NA48177  16.166  11.063   9.557 -0.1123  0.3300  0.1253
32561ION     NA48178  16.900   9.860   4.162  0.0759  0.2568  0.2883
32562ION     NA48179  14.578   6.598  10.509 -0.0267 -0.0313  0.0256
32563ION     NA48180   1.004   4.103   6.137 -0.1672  0.0889  0.0635
32564ION     NA48181  17.492  18.551  13.397  0.0871  0.2056  0.0168
32565ION     NA48182  13.774   1.400  13.058  0.1105 -0.2434  0.0036
32566ION     NA48183  14.308  15.889  12.918 -0.1270  0.2595 -0.0008
32567ION     NA48184  15.347  10.980   9.753 -0.1297  0.0762  0.1448
32568ION     NA48185  14.586   8.843  10.107  0.0938 -0.1491 -0.1289
32569ION     NA48186   7.073   3.326  10.401 -0.2262 -0.2012 -0.1756
32570ION     NA48187  15.147  18.585   6.083 -0.0163 -0.1041 -0.1581
32571ION     NA48188   1.992  15.536   3.406  0.3785  0.1271 -0.1134
32572ION     NA48189   3.079   7.869  10.379 -0.0607 -0.0885  0.1038
32573ION     NA48190   4.137   9.274  10.069  0.1994  0.1588  0.1064
32574ION     NA48191   4.475   9.722  12.185 -0.1941 -0.1409 -0.1587
32575ION     NA48192   3.157   1.076  10.125  0.0215  0.1633  0.3913
32576ION     NA48193   8.169   5.359  10.276 -0.0973  0.3407  0.0273
32577ION     NA48194  15.004   4.142  10.770  0.1770  0.1706  0.0083
32578ION     NA48195  15.063   7.647   4.555  0.2001  0.0226 -0.1070
32579ION     NA48196  15.801   8.883   9.795 -0.0319  0.0620  0.0032
32580ION     NA48197   4.978  18.260  12.759 -0.3333  0.2201 -0.0358
32581ION     NA48198   7.135  11.702   5.239 -0.0348 -0.4600 -0.1922
32582ION     NA48199   0.577  17.061   3.584 -0.0995  0.0198 -0.1580
32583ION     NA48200   4.276  12.762   4.682 -0.5292 -0.1720 -0.1692
32584ION     NA48201   4.786  15.128   9.722 -0.0528  0.2134  0.1066
32585ION     NA48202   5.333   3.395  10.777  0.1676  0.1850  0.0201
32586ION     NA48203  13.969   4.964   5.849  0.2432 -0.2805 -0.2876
32587ION     NA48204  14.568   8.151   9.970  0.0875 -0.0978 -0.0087
32588ION     NA48205  16.737  18.304  12.953  0.0479  0.1587  0.1606
32589ION     NA48206   9.197   5.498  10.561 -0.0455 -0.0611  0.0856
32590ION     NA48207  17.894   1.924   1.529 -0.0066  0.3856  0.1202
32591ION     NA48208  11.461   3.551   6.197 -0.4319  0.0158 -0.0952
32592ION     NA48209  17.698  10.462   9.839  0.1901  0.0260  0.0574
32593ION     NA48210  15.718   4.932  10.108  0.3259 -0.1701  0.1289
32594ION     NA48211  10.380   5.727  10.880 -0.1709 -0.2314 -0.1652
32595ION     NA48212  13.727   9.222   5.486 -0.2763  0.1796 -0.2528
32596ION     NA48213  13.260   2.440  10.770  0.0252  0.2541  0.3622
32597ION     NA48214  11.668  16.892  10.445  0.0345 -0.4126  0.0484
32598ION     NA48215   1.695   2.690  10.211 -0.4993  0.1935 -0.0079
32599ION     NA48216  16.438   3.080  10.560 -0.0497 -0.0160 -0.3077
32600ION     NA48217   4.803   7.651   5.747  0.0528  0.0946 -0.1331
32601ION     NA48218  15.605   8.020   9.803 -0.2292 -0.3083  0.0439
32602ION     NA48219  15.907   9.696   3.962  0.0724  0.4038 -0.0868
32603ION     NA48220   2.025   4.567  10.557 -0.2007 -0.1156  0.1004
32604ION     NA48221  10.600  10.236  11.402 -0.1022 -0.3409 -0.1668
32605ION     NA48222  12.283   6.472  10.516  0.1651 -0.0826  0.1798
32606ION     NA48223   3.907  18.629  10.110 -0.2234 -0.0024 -0.0396
32607ION     NA48224  17.617   9.220   5.166 -0.2050 -0.0516 -0.0358
32608ION     NA48225  14.979  12.213   2.808  0.2088 -0.1431 -0.0651
32609ION     NA48226  10.010  16.854   4.024 -0.0287 -0.0501  0.0677
32610ION     NA48227   8.971  13.991   5.383  0.1668 -0.0756 -0.0133
32611ION     NA48228   3.675  15.252  10.077 -0.1953 -0.2073 -0.1837
32612ION     NA48229   5.345   0.792   1.189 -0.3153 -0.0821 -0.2109
32613ION     NA48230   0.262  17.704  10.617  0.1265 -0.0664  0.0852
32614ION     NA48231   1.103  16.184   2.600 -0.2974  0.0481 -0.0123
32615ION     NA48232  10.569  11.815   9.896 -0.0034 -0.0892  0.0321
32616ION     NA48233   7.590  13.724   9.613 -0.1224 -0.1712  0.2354
32617ION     NA48234   9.507  15.341   9.711  0.1055 -0.0174 -0.1840
32618ION     NA48235   4.336  16.133   2.432  0.1892 -0.4744 -0.2014
32619ION     NA48236   9.252   3.744  13.372  0.0071  0.2917  0.1551
32620ION     NA48237  15.407  16.503   6.169  0.0895 -0.1921 -0.0999
32621ION     NA48238   4.530  18.232   9.911  0.1776  0.1935 -0.2123
32622ION     NA48239  14.496   8.687   5.139  0.1092 -0.1546  0.3045
32623ION     NA48240  14.928  13.314   9.982  0.1823  0.1107  0.0050
32624ION     NA48241   6.283  10.141   9.661  0.1056  0.3383 -0.1265
32625ION     NA48242   6.535   0.765  10.292  0.2862  0.2764  0.2462
32626ION     NA48243  18.241   2.793  10.704 -0.2022 -0.2836  0.1298
32627ION     NA48244   2.435  13.248   9.817 -0.0120 -0.1156 -0.0884
32628ION     NA48245   0.411  15.234   2.294 -0.2719 -0.2745 -0.0601
32629ION     NA48246  10.899   5.392   2.912  0.2713 -0.5388  0.1207
32630ION     NA48247   2.461   8.904   5.601  0.0927  0.1955  0.0675
32631ION     NA48248   2.286  16.487  10.003 -0.1481  0.1513  0.2319
32632ION     NA48249  13.268   3.403  10.634  0.0537  0.0647  0.0489
32633ION     NA48250  13.484   0.142  10.417 -0.1535 -0.1780  0.0900
32634ION     NA48251   5.748   7.444  10.474 -0.2945  0.0841 -0.1090
32635ION     NA48252  17.776   1.630  15.276 -0.1145 -0.0297 -0.2889
32636ION     NA48253   6.228  12.700   9.335  0.0886  0.0848  0.0354
32637ION     NA48254  14.163  11.192   5.091 -0.5921  0.1900 -0.1410
32638ION     NA48255   6.135   3.382  10.475 -0.3011 -0.0867 -0.2034
32639ION     NA48256  18.373  12.123   9.904  0.2225 -0.0212  0.0170
32640ION     NA48257   6.718  12.483   9.611  0.1636 -0.0132 -0.0587
32641ION     NA48258  12.184   8.279  10.256 -0.1162 -0.3410  0.0401
32642ION     NA48259  10.998   4.852   4.275 -0.1294 -0.2736 -0.0866
32643ION     NA48260  18.163   1.503  10.539  0.0178 -0.1756  0.3059
32644ION     NA48261  13.297  16.681  10.368 -0.0725 -0.0238 -0.1768
32645ION     NA48262   6.438   2.767  14.430 -0.2048 -0.0244  0.3023
32646ION     NA48263   6.062   9.098   5.310  0.0247 -0.2028 -0.0584
32647ION     NA48264  15.929   4.004  10.286  0.2133 -0.2142 -0.1259
32648ION     NA48265  16.652   8.736   1.639  0.2660  0.0688 -0.0156
32649ION     NA48266   2.761  14.038   9.837  0.0977 -0.3132  0.1326
32650ION     NA48267   3.024  10.852   4.943 -0.0255 -0.1816 -0.0514
32651ION     NA48268   6.268   1.680  10.097  0.0751 -0.2287  0.1081
32652ION     NA48269   5.379   9.989   5.606 -0.0401 -0.1643 -0.1531
32653ION     NA48270  11.553  12.780  15.337 -0.2433 -0.0987  0.3511
32654ION     NA48271  11.434   2.314  10.893  0.1608 -0.2004  0.1723
32655ION     NA48272  15.365  18.453  12.358 -0.0504 -0.0938 -0.3985
32656ION     NA48273  15.088  14.248   9.621  0.0891  0.0794  0.4377
32657ION     NA48274  10.430   1.086  10.646 -0.3649  0.1908 -0.3298
32658ION     NA48275   5.880   5.892  10.635 -0.2352  0.0822  0.1518
32659ION     NA48276  14.909   9.516   9.991 -0.3381 -0.1698  0.1761
32660ION     NA48277   5.498   7.139   4.795 -0.1613  0.1182  0.1707
32661ION     NA48278  17.991   7.436  10.381 -0.1306 -0.3772  0.0110
32662ION     NA48279  12.010  16.169   2.040  0.0405  0.2016 -0.1585
32663ION     NA48280   9.226   7.607  13.156 -0.0375 -0.1106  0.0583
32664ION     NA48281   0.977  11.049  12.974  0.0221 -0.0579  0.0686
32665ION     NA48282   6.202   1.098   9.958 -0.0589  0.0018 -0.1292
32666ION     NA48283  14.898   4.462   6.062  0.0691 -0.1330  0.0579
32667ION     NA48284  14.589  11.768   9.482  0.0190  0.0465 -0.2242
32668ION     NA48285  10.120  14.521   1.200 -0.3721 -0.1593 -0.0836
32669ION     NA48286   4.274  11.830   5.129  0.3936 -0.1694  0.1388
32670ION     NA48287   8.907  14.919   5.151 -0.2941 -0.3395  0.0086
32671ION     NA48288  15.011   5.943  15.405 -0.0780 -0.3443  0.1538
32672ION     NA48289  17.402  15.381  10.210 -0.0676  0.0434  0.0565
32673ION     NA48290  16.195  16.904  10.400 -0.1635 -0.0688  0.1696
32674ION     NA48291  13.490  15.764   0.749  0.1405  0.1790 -0.3298
32675ION     NA48292  14.966  12.778   5.532 -0.4692  0.1653 -0.0881
32676ION     NA48293  17.507   9.332   0.734 -0.5802  0.1625  0.2849
32677ION     NA48294  15.395   7.016   2.777 -0.2475  0.2409  0.1274
32678ION     NA48295  12.690   2.176   3.359  0.0357  0.1514 -0.1315
32679ION     NA48296  11.526  11.492   9.894 -0.0262  0.2742 -0.1372
32680ION     NA48297  18.612  16.787   2.631  0.3824  0.0613  0.1859
32681ION     NA48298  10.450  11.372   9.499  0.2442 -0.0355  0.0773
32682ION     NA48299  15.123  17.147   6.177  0.0536 -0.0670  0.3065
32683ION     NA48300  13.566  12.061   2.851 -0.1029  0.0366 -0.1686
32684ION     NA48301  10.922   9.387   5.646 -0.0702 -0.2090  0.2668
32685ION     NA48302  16.494   6.978   5.221  0.1672 -0.0162  0.5634
32686ION     NA48303  16.990  12.849  10.003 -0.0866  0.1309  0.2330
32687ION     NA48304   3.679  13.193  14.068  0.1556 -0.1077 -0.1733
32688ION     NA48305   6.425  18.517   1.308 -0.3438  0.4458 -0.0236
32689ION     NA48306   3.674   6.016   5.978  0.1133  0.1588  0.0787
32690ION     NA48307   5.343  12.152   3.702 -0.0001  0.1228 -0.2121
32691ION     NA48308   4.967   5.296   4.002  0.0861  0.0379  0.2652
32692ION     NA48309  13.516  18.029   4.580  0.1741 -0.0579 -0.1238
32693ION     NA48310   2.230  17.458  10.084 -0.1497 -0.2815  0.2142
32694ION     NA48311  10.134   3.260  15.152  0.1693  0.0154  0.0571
32695ION     NA48312  12.720  11.920   1.096  0.0120 -0.2869 -0.3958
32696ION     NA48313   7.596   6.976  10.409  0.3319 -0.1190  0.0248
32697ION     NA48314   1.217  18.504  11.195  0.2139  0.0868 -0.1687
32698ION     NA48315   5.973  11.681   9.307  0.1970 -0.3455  0.0763
32699ION     NA48316  10.448   2.608   6.107  0.2554 -0.1341  0.0984
32700ION     NA48317   0.298  18.636  10.947 -0.0506  0.1640  0.0255
32701ION     NA48318   2.166   1.429  10.240  0.1413  0.2289 -0.1334
32702ION     NA48319  10.918   3.137  10.986  0.6067  0.0660  0.2174
32703ION     NA48320  13.619  10.257   3.925  0.1140  0.1012  0.3387
32704ION     NA48321  18.244   9.702   9.752 -0.0228 -0.1206  0.2052
32705ION     NA48322   8.959  10.122  10.433  0.0692  0.2990  0.1734
32706ION     NA48323  17.931  12.415  15.631 -0.3192  0.2725 -0.2120
32707ION     NA48324   7.128   6.762   6.198 -0.1690  0.0577 -0.2164
32708ION     NA48325   8.124  10.612  13.094  0.1384 -0.1418 -0.1351
32709ION     NA48326   4.936   1.402  10.215  0.1131  0.0517  0.3738
32710ION     NA48327   6.361   4.663   6.043  0.1388  0.0440 -0.0596
32711ION     NA48328   8.232   7.731  10.225  0.1087 -0.0581  0.2106
32712ION     NA48329  10.348  14.088   9.712 -0.0614  0.0473 -0.1751
32713ION     NA48330   9.732   8.675  10.313  0.0297 -0.4710  0.0110
32714ION     NA48331   9.968   0.185  10.465 -0.2669 -0.0142  0.2305
32715ION     NA48332   9.191  18.608  10.352  0.1972 -0.2966 -0.2507
32716ION     NA48333   1.249  16.354  10.221 -0.1262 -0.0316  0.1827
32717ION     NA48334   2.632  15.415   5.656  0.3111 -0.2830 -0.0928
32718ION     NA48335   2.944   0.114  10.111  0.0692  0.0284 -0.0904
32719ION     NA48336  10.926  10.899   5.297 -0.0363  0.0224 -0.1931
32720ION     NA48337  17.400  14.064   5.567 -0.0868  0.2653 -0.1755
32721ION     NA48338   5.283  12.687  14.125 -0.1381 -0.1553  0.5397
32722ION     NA48339   6.975  10.522   9.872  0.1192  0.2537  0.1851
32723ION     NA48340   8.920   8.051   0.504 -0.0795  0.0444 -0.0408
32724ION     NA48341   3.337   0.754  14.023 -0.1711 -0.0650 -0.1701
32725ION     NA48342   5.871   4.932   6.344  0.0934  0.2044 -0.1905
32726ION     NA48343  16.096   1.495   6.192  0.2615  0.1463  0.0684
32727ION     NA48344   0.148   7.719  14.586 -0.2628 -0.3641  0.2008
32728ION     NA48345  17.869   5.728   3.449 -0.2346 -0.0672 -0.2568
32729ION     NA48346  10.703  18.363  10.417  0.4650 -0.2359 -0.2066
32730ION     NA48347  18.499   3.086   5.214 -0.2688  0.0407  0.0133
32731ION     NA48348  13.824   5.170  12.719  0.6772  0.1612 -0.2067
32732ION     NA48349  13.672   8.126  10.049  0.0768 -0.1979 -0.1842
32733ION     NA48350   6.212   8.338  10.316  0.4553 -0.1535  0.2054
32734ION     NA48351   3.382   6.482  10.448 -0.1753  0.1953  0.2897
32735ION     NA48352   0.613  14.391   9.830 -0.0752 -0.0087  0.2627
32736ION     NA48353  13.881   5.049  10.718  0.1108 -0.2595  0.0450
32737ION     NA48354   7.773   8.193  15.504 -0.0068 -0.0521 -0.1833
32738ION     NA48355  17.262  15.561   4.236  0.0821 -0.0356 -0.3496
32739ION     NA48356  18.198   1.867  11.636 -0.1229  0.1132  0.1403
32740ION     NA48357  14.545  10.202   2.095 -0.0701 -0.0559 -0.1058
32741ION     NA48358   0.892   7.686  15.688  0.0579 -0.1020 -0.0854
32742ION     NA48359  13.688  11.381   9.704  0.2694 -0.0510 -0.3223
32743ION     NA48360  11.770   5.603  13.487  0.0602 -0.5132  0.0998
32744ION     NA48361   2.267  14.942  10.018 -0.2128 -0.1131  0.1573
32745ION     NA48362   1.251   5.706  10.313 -0.1411 -0.0093 -0.1752
32746ION     NA48363  10.153   7.330   1.227  0.1902  0.2119 -0.1695
32747ION     NA48364   0.508  13.686  10.333 -0.0592  0.1328 -0.1360
32748ION     NA48365   0.066  10.112   5.847 -0.1229  0.1461 -0.2592
32749ION     NA48366  15.012   1.733   6.334  0.0282  0.1887 -0.1238
32750ION     NA48367  12.024   9.068  10.113  0.3664  0.0135 -0.1209
32751ION     NA48368   9.534  15.371   4.521  0.0650  0.2131 -0.1631
32752ION     NA48369   5.532  18.129   5.459  0.1552  0.0256 -0.2688
32753ION     NA48370   5.824  12.257   1.863 -0.0620  0.0648 -0.1984
32754ION     NA48371   1.807   7.197  13.236  0.1508  0.1318 -0.0329
32755ION     NA48372  12.985   7.374   5.823 -0.1762  0.1372  0.3023
32756ION     NA48373   6.957  15.457   9.767  0.0170  0.2842  0.2737
32757ION     NA48374  16.519   1.454  10.911 -0.1269  0.4082  0.3267
32758ION     NA48375  18.092  10.985   5.777 -0.0366  0.0515  0.3294
32759ION     NA48376   2.646   6.383   1.132  0.0973 -0.1710  0.4957
32760ION     NA48377   8.419   6.848  10.235  0.3974  0.1282  0.2491
32761ION     NA48378  17.055  12.820  14.627  0.1404  0.0287  0.1016
32762ION     NA48379   7.340   0.996  10.248 -0.1708 -0.0459  0.1941
32763ION     NA48380   0.368   5.369  11.522 -0.0951  0.0116 -0.0069
32764ION     NA48381   0.454   2.911   2.875  0.0453 -0.0179  0.2814
32765ION     NA48382   5.882  17.834  14.016 -0.1781  0.0783  0.2970
32766ION     NA48383  11.832   2.530  13.180  0.1282 -0.2105  0.2232
32767ION     NA48384  16.484  18.543   5.675  0.1124 -0.4414 -0.1212
32768ION     NA48385   6.300  11.071   9.744  0.2285 -0.0617 -0.1014
32769ION     NA48386  16.641   8.783   9.475  0.2397  0.3679  0.2980
32770ION     NA48387   3.026   0.646   5.491  0.2466 -0.0108  0.0370
32771ION     NA48388   0.257  15.796   1.472  0.2479  0.1557  0.2991
32772ION     NA48389   7.457   1.990  10.284 -0.1531 -0.1595  0.2965
32773ION     NA48390  15.299  15.322  10.579  0.0058  0.2883 -0.3310
32774ION     NA48391   6.675  13.515  13.394 -0.2697 -0.0631 -0.2723
32775ION     NA48392   4.901   7.063  12.048  0.2726  0.0709 -0.1067
32776ION     NA48393   9.289  17.655  10.095 -0.2494  0.0358  0.0950
32777ION     NA48394  17.821   5.227   9.902  0.2267  0.0615  0.0355
32778ION     NA48395  17.298  17.318   4.525  0.0441  0.1938 -0.3355
32779ION     NA48396   8.835  11.294   9.792 -0.1564 -0.1934 -0.0347
32780ION     NA48397  18.009   7.345   2.676  0.2201 -0.2223  0.2091
32781ION     NA48398  13.246   0.159  12.219 -0.1893 -0.1119 -0.1293
32782ION     NA48399  14.169  14.421   9.982  0.0477  0.1018 -0.1498
32783ION     NA48400   1.065  12.904  12.947  0.0346 -0.0070  0.0812
32784ION     NA48401   6.069   3.985  12.981  0.0948  0.2397 -0.0556
32785ION     NA48402  10.780  16.795  10.219  0.2484  0.2783 -0.0625
32786ION     NA48403   4.697  16.331  14.218 -0.1324 -0.1868  0.0448
32787ION     NA48404  15.754   2.664  10.637 -0.0675 -0.1394 -0.0778
32788ION     NA48405   2.089  11.060  11.658  0.1669 -0.2077  0.2922
32789ION     NA48406   8.043  14.315   5.308 -0.1508  0.0073  0.1610
32790ION     NA48407   8.332   4.782   3.973  0.3434  0.2443 -0.2408
32791ION     NA48408  16.023   3.683   6.091 -0.2801 -0.0763  0.2358
32792ION     NA48409   5.822   0.255   9.984  0.1028 -0.1101  0.0518
32793ION     NA48410  18.492   6.867   4.796 -0.0563 -0.3679  0.0249
32794ION     NA48411  14.870   0.300  10.756 -0.0041  0.0692  0.2571
32795ION     NA48412  18.584   4.341  10.380 -0.0592  0.0268 -0.2849
32796ION     NA48413  13.053   6.942   3.562 -0.0099  0.0483 -0.2800
32797ION     NA48414   4.975  13.198   4.512  0.0739 -0.0360 -0.1469
32798ION     NA48415  14.391  12.308  10.842  0.0053  0.3259  0.0230
32799ION     NA48416  11.375   9.617  10.217 -0.1824 -0.1182  0.0751
32800ION     NA48417   5.940   9.895   9.944 -0.3732 -0.1906 -0.2219
32801ION     NA48418   7.882  15.650   9.974  0.1121 -0.0852  0.1291
32802ION     NA48419   7.767  18.630  10.335 -0.4734 -0.2328 -0.1114
32803ION     NA48420   0.555   5.829  10.748  0.1990  0.1234 -0.2368
32804ION     NA48421  16.862  14.095  10.021  0.2723  0.0076  0.1266
32805ION     NA48422  11.750   7.108   5.975  0.1351  0.0328 -0.2205
32806ION     NA48423  10.975   7.630  10.798 -0.1848 -0.1190  0.0311
32807ION     NA48424   1.755   1.426  13.734 -0.1848  0.3508 -0.3630
32808ION     NA48425   8.592   1.353  10.412  0.1300  0.1854 -0.1391
32809ION     NA48426  16.862   3.227  10.970 -0.2126  0.0140  0.0378
32810ION     NA48427  11.211   7.588  14.942 -0.1037 -0.0278 -0.3700
32811ION     NA48428  10.235   8.036  10.721  0.0123 -0.1797 -0.0411
32812ION     NA48429   5.819   4.720  10.647  0.1571  0.0778 -0.0535
32813ION     NA48430  10.360   2.279  12.449  0.1633 -0.0585 -0.0624
32814ION     NA48431  12.901   5.132  10.396  0.1999 -0.0360 -0.1130
32815ION     NA48432   2.832  17.911   9.842 -0.1074 -0.1673  0.0361
32816ION     NA48433  15.724   1.321   1.322  0.3003 -0.2917  0.1618
32817ION     NA48434  18.496  12.498   1.706 -0.0496 -0.1749  0.1840
32818ION     NA48435   8.043  10.955   9.600  0.0874  0.2517  0.3612
32819ION     NA48436   7.413   8.706  10.064  0.0146  0.1095 -0.0171
32820ION     NA48437   3.023   3.978  10.450  0.0777 -0.1117  0.1312
32821ION     NA48438  10.172  17.934  10.191  0.1956 -0.0980  0.0385
32822ION     NA48439   5.367  12.526   9.316  0.4773  0.0197  0.0352
32823ION     NA48440  13.008   5.993  10.334  0.2055  0.0989  0.2529
32824ION     NA48441  13.647  13.553  10.042 -0.1091  0.0006  0.1283
32825ION     NA48442  16.618   3.694   1.282 -0.1979  0.0615  0.1760
32826ION     NA48443  13.853  16.018  10.379 -0.2138 -0.0585  0.0108
32827ION     NA48444   1.723  14.708  10.661  0.0712 -0.1426  0.2907
32828ION     NA48445  17.781   9.856  10.042 -0.3015 -0.0146  0.0786
32829ION     NA48446  13.311  17.214   0.700  0.2073 -0.1637 -0.1054
32830ION     NA48447   4.650  11.847   9.491  0.0237 -0.0172  0.0640
32831ION     NA48448   2.835   9.448   9.720  0.1554  0.1148 -0.0325
32832ION     NA48449   2.361   2.268  13.244  0.2607 -0.0737 -0.0278
32833ION     NA48450   4.185   6.031  10.474  0.0974 -0.2694 -0.3220
32834ION     NA48451   7.166   5.419  10.201 -0.2568 -0.1797  0.1833
32835ION     NA48452   5.119  11.446   9.418 -0.1174 -0.2259  0.0614
32836ION     NA48453   6.620  17.171   9.813 -0.0265 -0.0808  0.1827
32837ION     NA48454   1.407  10.738   4.978 -0.0870  0.0537 -0.0070
32838ION     NA48455  14.571  17.942   6.184  0.0355 -0.0876  0.2647
32839ION     NA48456   6.224  15.768   3.688 -0.1397  0.0113  0.0297
32840ION     NA48457  11.058  12.088  10.178  0.2752  0.1164 -0.3410
32841ION     NA48458   3.418  10.470  15.246 -0.1791 -0.0773  0.0980
32842ION     NA48459  17.860  18.508  14.227 -0.0281  0.1864 -0.0750
32843ION     NA48460   9.077   6.179  15.170  0.2038 -0.0634  0.2285
32844ION     NA48461  11.338  16.038   5.917  0.1166 -0.0569  0.1257
32845ION     NA48462   3.794   8.516  10.001 -0.2465  0.2131 -0.2620
32846ION     NA48463   1.932   8.066   5.094  0.0111 -0.4371  0.0011
32847ION     NA48464  15.216  12.360   9.838 -0.0003 -0.3502 -0.1402
32848ION     NA48465  18.566  10.066  13.317  0.2550 -0.1075 -0.0329
32849ION     NA48466   7.115   8.048   2.272  0.0570 -0.0783  0.0439
32850ION     NA48467   1.401   4.542  10.466  0.2612  0.3598 -0.1183
32851ION     NA48468   7.288   9.228  12.673 -0.1473 -0.2438  0.0533
32852ION     NA48469   8.755   6.601   0.670  0.0257  0.0637 -0.0023
32853ION     NA48470   2.140   8.796   9.892  0.1390 -0.0855  0.1620
32854ION     NA48471   6.890   4.630  10.317 -0.1398 -0.2128 -0.0761
32855ION     NA48472  12.388  15.974   0.576 -0.0657  0.2982  0.0818
32856ION     NA48473  17.682  11.902   9.959 -0.1350  0.2878 -0.1788
32857ION     NA48474   7.411  17.427  12.485 -0.1589  0.0923 -0.2163
32858ION     NA48475  17.742  13.666   9.858 -0.2702  0.1033  0.2394
32859ION     NA48476   8.371   1.907   1.044  0.2469  0.0925 -0.0234
32860ION     NA48477  14.090   0.712  10.852  0.0159  0.3245 -0.1249
32861ION     NA48478  11.626  11.183  12.902  0.2691 -0.1721 -0.1887
32862ION     NA48479  14.618  16.557  10.423  0.0438 -0.0169 -0.0923
32863ION     NA48480  16.065   7.850   9.818 -0.2426  0.2205  0.0598
32864ION     NA48481  12.859   2.224  12.414 -0.0085 -0.0334  0.0739
32865ION     NA48482  16.733  14.928  10.055  0.0346  0.0252 -0.0332
32866ION     NA48483   3.229  11.672   9.688 -0.2047  0.2216  0.0393
32867ION     NA48484  13.929  14.324   5.728 -0.2785  0.0012 -0.2175
32868ION     NA48485   1.193   9.357  10.013  0.0349 -0.1614  0.6269
32869ION     NA48486   8.852   6.795   2.334  0.2446 -0.1430  0.0675
32870ION     NA48487  16.976  15.434   1.926 -0.2288  0.1160  0.3655
32871ION     NA48488  13.755  12.058   9.592 -0.1919 -0.2386 -0.1709
32872ION     NA48489   6.619  13.537   9.586 -0.1662 -0.1999  0.1398
32873ION     NA48490  13.367  12.779   9.736 -0.1264  0.1514  0.2352
32874ION     NA48491  18.569  12.476   0.428  0.2493 -0.1607  0.0261
32875ION     NA48492  16.519  15.890   1.315  0.0440  0.0439 -0.0256
32876ION     NA48493  13.040   6.819  10.277 -0.2020  0.2023  0.0206
32877ION     NA48494  15.451  17.191  10.497  0.2488  0.0763  0.3638
32878ION     NA48495   4.695   8.861  10.963 -0.2506  0.0649  0.2222
32879ION     NA48496  10.122   0.349   6.220 -0.0319 -0.0727 -0.0724
32880ION     NA48497  14.322  13.765   2.313 -0.0044  0.1270  0.1665
32881ION     NA48498   8.942   1.064   0.474 -0.0863 -0.2287 -0.0913
32882ION     NA48499   0.708   1.013   5.370 -0.0810  0.1582 -0.0451
32883ION     NA48500   1.854  13.342   9.972 -0.0733 -0.2991  0.4670
32884ION     NA48501   6.277   5.581   2.227  0.0238 -0.1427  0.1455
32885ION     NA48502  17.762   5.942  10.422  0.3874  0.0822  0.0330
32886ION     NA48503  12.263  11.871  15.640 -0.2338 -0.3910 -0.2442
32887ION     NA48504  16.317  11.599   5.693 -0.5179 -0.1045  0.3628
32888ION     NA48505  17.324   0.103   5.990  0.0383  0.0139  0.4158
32889ION     NA48506   1.577  11.598   9.685  0.0001  0.0966  0.2078
32890ION     NA48507  17.452   4.188   1.272  0.1170 -0.0021  0.0348
32891ION     NA48508   8.837  13.118   9.574  0.3209  0.0339 -0.5159
32892ION     NA48509   4.376   7.078   5.977 -0.0814  0.4321 -0.1872
32893ION     NA48510  13.918  11.283  13.450  0.0277  0.1055 -0.0295
32894ION     NA48511  12.178  12.257   5.188 -0.2898 -0.0959  0.1647
32895ION     NA48512   5.065   2.942  10.624 -0.3948 -0.5526  0.1398
32896ION     NA48513   2.893   6.150   4.577 -0.2683  0.1571  0.1788
32897ION     NA48514  12.641  14.618   5.653 -0.1225  0.0001 -0.1836
32898ION     NA48515  12.801   5.864   5.666 -0.1703 -0.1323 -0.0645
32899ION     NA48516  10.859  16.084   2.512 -0.1798  0.0875  0.3800
32900ION     NA48517  17.468   6.081   2.665  0.3553  0.0733 -0.1129
32901ION     NA48518   0.558  17.031  10.474 -0.2629 -0.1916  0.1041
32902ION     NA48519  15.475   0.523   5.062  0.2594  0.0656 -0.1026
32903ION     NA48520  16.752  15.990  10.102  0.0953  0.1314 -0.2556
32904ION     NA48521  17.918   3.711   2.539  0.1135 -0.1639 -0.0674
32905ION     NA48522   7.522  17.814  10.042 -0.0591  0.0218 -0.0471
32906ION     NA48523  12.599   7.407  10.436 -0.1266  0.0177 -0.0103
32907ION     NA48524   3.476  16.765   5.437  0.0535 -0.1559 -0.3525
32908ION     NA48525   2.482   5.295  11.324 -0.0606 -0.0457  0.2375
32909ION     NA48526  10.983  13.197   9.846  0.3726 -0.1720  0.2440
32910ION     NA48527   3.356   1.628   0.448 -0.1393  0.1690  0.0824
32911ION     NA48528   0.705  18.410   4.918  0.1114 -0.2503 -0.1177
32912ION     NA48529  17.067  17.933  10.520  0.2701 -0.0974  0.0567
32913ION     NA48530   4.234  11.535   9.356 -0.0563  0.0156  0.0840
32914ION     NA48531  16.755  10.702   5.839  0.4204 -0.0929  0.2298
32915ION     NA48532   5.376  11.448  11.774  0.0071  0.1506  0.0173
32916ION     NA48533   1.352  17.001  10.257 -0.3838 -0.3745  0.2716
32917ION     NA48534  13.009   8.725   9.802  0.1710  0.4081  0.0619
32918ION     NA48535  10.367  15.183   9.749  0.1184  0.1246  0.0427
32919ION     NA48536   9.216  10.722  14.057  0.0780  0.0378 -0.1868
32920ION     NA48537  10.238   6.780   6.166 -0.1346  0.0967  0.1544
32921ION     NA48538   9.219   6.469  10.439  0.0132  0.0248 -0.0272
32922ION     NA48539  15.372   6.661   1.711  0.1667  0.1313  0.1404
32923ION     NA48540   0.535  15.353  10.035 -0.0715 -0.0035 -0.1525
32924ION     NA48541   7.231  11.506   9.639 -0.0555  0.1780 -0.1191
32925ION     NA48542   5.570   2.241  10.442  0.2083 -0.2889  0.3501
32926ION     NA48543  11.784  10.447   9.686  0.1549  0.0576  0.0923
32927ION     NA48544  16.316  16.378   5.942  0.0904  0.0308 -0.1222
32928ION     NA48545   9.059   8.835  10.490 -0.2567 -0.1514  0.1900
32929ION     NA48546  15.134  11.105   5.070 -0.2163 -0.2647 -0.0653
32930ION     NA48547  13.050   2.441   2.608  0.0373 -0.0054  0.0311
32931ION     NA48548   3.223   4.984  10.463 -0.0239 -0.2695 -0.0497
32932ION     NA48549   1.263   6.709   9.862 -0.0255  0.4554  0.2765
32933ION     NA48550   0.179   6.434   9.709  0.2215  0.1575 -0.1930
32934ION     NA48551   0.108  18.083  14.607 -0.0713  0.0719 -0.2263
32935ION     NA48552  15.942  12.287   0.271  0.3735 -0.1051  0.1991
32936ION     NA48553   1.206   0.306  10.596 -0.0322  0.2337 -0.2455
32937ION     NA48554  12.110   4.052   1.336  0.0335  0.2411 -0.0078
32938ION     NA48555  11.825   1.550  10.323 -0.0289  0.0479 -0.4198
32939ION     NA48556  17.937   6.888  13.932  0.0141 -0.0057 -0.3075
32940ION     NA48557   7.880  17.478   5.203 -0.0598 -0.1918  0.1769
32941ION     NA48558  13.009  18.622   6.320 -0.0898  0.0039  0.0630
32942ION     NA48559   8.814   2.198  10.208  0.1492  0.1331 -0.1248
32943ION     NA48560   2.088  16.129   1.573  0.2465 -0.0260 -0.0397
32944ION     NA48561   5.488  10.113  12.075 -0.2620  0.0398 -0.2199
32945ION     NA48562  15.080  16.353  10.746  0.1545  0.0206 -0.0069
32946ION     NA48563  18.201  15.119  14.951  0.2017  0.0799 -0.0394
32947ION     NA48564   0.043   3.540  11.383  0.1692  0.0119  0.3049
32948ION     NA48565  17.141   0.139  10.662  0.2436  0.0342  0.1049
32949ION     NA48566   3.942   7.241  10.427  0.2428 -0.1064 -0.0135
32950ION     NA48567   6.908  12.466  10.567 -0.2898 -0.0680 -0.2962
32951ION     NA48568  15.889  18.214   3.532  0.1108 -0.1260  0.3284
32952ION     NA48569   6.233   7.316   6.149 -0.0558 -0.3213 -0.0487
32953ION     NA48570  17.973   8.221   9.712 -0.0208  0.3450  0.1594
32954ION     NA48571  11.058   9.192  10.424  0.0695 -0.0545  0.0436
32955ION     NA48572   5.910   9.289  10.055  0.4171 -0.1296  0.0663
32956ION     NA48573   8.702   4.716  10.570 -0.1809  0.1931 -0.0862
32957ION     NA48574  12.722  10.792   9.626 -0.1218 -0.3799  0.2605
32958ION     NA48575  15.596  12.945   5.374 -0.0785  0.2419  0.1784
32959ION     NA48576  14.100   4.156  10.664 -0.0511 -0.0498 -0.2552
32960ION     NA48577   7.112   4.697   3.927 -0.2173 -0.1738 -0.3637
32961ION     NA48578   0.009   6.246  15.786 -0.1781 -0.4369 -0.1797
32962ION     NA48579  15.984  12.190   9.849  0.3098  0.0403  0.0784
32963ION     NA48580   4.532  11.327   1.311 -0.1967  0.2159 -0.0045
32964ION     NA48581   1.343  14.757   5.503  0.0393 -0.1059 -0.1150
32965ION     NA48582  10.128  11.220   2.192 -0.2274  0.0475  0.0165
32966ION     NA48583   1.548  10.765  10.056  0.2014  0.1370 -0.0298
32967ION     NA48584   3.924  12.379   9.648 -0.1584 -0.1057 -0.2277
32968ION     NA48585   5.158  14.113   1.365 -0.2798 -0.0797 -0.0101
32969ION     NA48586  14.472   4.563   3.832  0.0111 -0.2121 -0.1589
32970ION     NA48587   9.091  18.219  15.253  0.0737  0.0841 -0.0712
32971ION     NA48588  11.983  17.951   6.143  0.1362 -0.0636  0.1199
32972ION     NA48589   8.062  10.869   5.500  0.0331  0.2333  0.0149
32973ION     NA48590  13.954   1.246  14.971  0.1879  0.4227  0.1139
32974ION     NA48591   6.812  15.562   5.551  0.0488  0.0940  0.2654
32975ION     NA48592  16.069   2.176  10.728 -0.0496 -0.3300  0.0477
32976ION     NA48593  17.873  11.648   2.077  0.0328 -0.0522 -0.1316
32977ION     NA48594  14.532  12.900  13.476 -0.0521 -0.1112  0.0211
32978ION     NA48595   2.536  11.048   9.841  0.0487 -0.1974  0.3199
32979ION     NA48596  13.183   9.628  10.045  0.1012  0.0110 -0.2642
32980ION     NA48597   1.584  16.564   5.411  0.1414 -0.0758  0.0499
32981ION     NA48598   9.862  13.118   9.627 -0.0296  0.1051  0.1512
32982ION     NA48599  17.308  11.772  12.478 -0.0132  0.0682  0.4009
32983ION     NA48600   4.524  15.449   5.467 -0.2944  0.3766  0.1429
32984ION     NA48601   3.173   4.566   6.097  0.1001 -0.0331  0.2535
32985ION     NA48602   2.283  14.113  10.141 -0.0958 -0.0323 -0.0522
32986ION     NA48603   9.989   1.915  10.829 -0.2795 -0.2720 -0.2056
32987ION     NA48604  17.848   3.999   5.794 -0.0900 -0.0680  0.1637
32988ION     NA48605   2.813   5.239   4.357  0.0575 -0.5486  0.1263
32989ION     NA48606  11.697   8.537   4.049  0.1018  0.1106 -0.0491
32990ION     NA48607  13.138  14.645  10.314 -0.0915  0.0882  0.0932
32991ION     NA48608  12.480   9.632   2.607  0.2029 -0.0962 -0.0291
32992ION     NA48609  17.189  14.488  14.568 -0.0382 -0.1508 -0.2239
32993ION     NA48610  10.548   3.967   6.066 -0.1771  0.4159 -0.0246
32994ION     NA48611  18.308  16.210  10.212  0.2454  0.1439  0.3211
32995ION     NA48612  17.908  18.363  10.372 -0.0020 -0.0169  0.3822
32996ION     NA48613   8.560   7.416   5.420 -0.2433 -0.1887 -0.1351
32997ION     NA48614  18.562   5.541   9.883  0.1995  0.1402  0.2258
32998ION     NA48615   2.429   2.726   6.193 -0.3237  0.0568  0.0221
32999ION     NA48616  17.862   8.475   5.113 -0.4299  0.2182  0.1905
33000ION     NA48617  15.472   2.552   5.703  0.5200  0.2871 -0.2855
33001ION     NA48618   8.376  16.745   9.797  0.1235  0.0514 -0.1101
33002ION     NA48619  13.603  12.461   2.011 -0.1234 -0.1021  0.4225
33003ION     NA48620  11.808   5.316  10.585 -0.0786  0.0376 -0.3724
33004ION     NA48621   1.842  15.713   9.842 -0.1278  0.0646 -0.2867
33005ION     NA48622   3.639  17.784   9.826  0.0313  0.2990 -0.5130
33006ION     NA48623  12.578  18.396  10.338  0.0436  0.0275  0.2253
33007ION     NA48624  11.782   4.433  10.651  0.0813  0.3144 -0.1333
33008ION     NA48625   6.465   9.052   9.993  0.1406 -0.0405 -0.2108
33009ION     NA48626   3.616  14.252   9.963  0.3157  0.0771  0.1222
33010ION     NA48627  12.133   4.549   5.792 -0.1956 -0.0595  0.2384
33011ION     NA48628   6.429  16.253  10.287  0.0134  0.0479 -0.1242
33012ION     NA48629   5.505   7.792   0.061 -0.2461  0.1902 -0.2606
33013ION     NA48630   5.080   2.362   5.154 -0.0226 -0.1337 -0.0194
33014ION     NA48631  11.938   2.737   6.368  0.0906 -0.1444  0.3316
33015ION     NA48632  12.080  17.589  10.573 -0.1482  0.2356  0.1062
33016ION     NA48633  14.824   2.526  10.783  0.0758 -0.0817 -0.1117
33017ION     NA48634   5.573  15.476   9.886  0.1479 -0.0790 -0.0603
33018ION     NA48635   6.252  14.381   0.009 -0.2066  0.1678  0.2659
33019ION     NA48636   3.355  10.226  10.280  0.0149  0.2088  0.3154
33020ION     NA48637  14.492  12.305   4.287 -0.2194 -0.2891  0.0927
33021ION     NA48638   3.027  12.637   9.855 -0.1782 -0.2062 -0.0536
33022ION     NA48639   0.770   2.025  10.360  0.1485  0.5887 -0.0296
33023ION     NA48640  11.699  12.759   9.554 -0.2012  0.1146  0.2044
33024ION     NA48641   3.703  17.379   1.334  0.1476  0.2696 -0.1190
33025ION     NA48642   4.588   2.187  10.504  0.0384  0.0269  0.0597
33026ION     NA48643   0.020   2.501  10.815  0.0217 -0.0688 -0.0416
33027ION     NA48644   5.039   6.055   0.924 -0.0131 -0.2019  0.0479
33028ION     NA48645   3.789   3.385  10.246  0.1983 -0.1537  0.1084
33029ION     NA48646  16.490  13.715  11.188 -0.0816  0.0131 -0.2259
33030ION     NA48647   9.696  17.402  14.965 -0.0286 -0.2431 -0.2752
33031ION     NA48648  18.383  12.538  13.011  0.2288  0.4726 -0.3044
33032ION     NA48649   5.471   5.771  14.450 -0.2836  0.3568  0.3137
33033ION     NA48650  11.792   4.914   3.968 -0.1988  0.1739 -0.0022
33034ION     NA48651  12.139   9.745   9.983  0.1368 -0.1346 -0.3387
33035ION     NA48652   7.230  11.516   0.937 -0.0525  0.2401 -0.1719
33036ION     NA48653   7.840   7.769  10.529  0.0523 -0.2668 -0.0976
33037ION     NA48654  18.466   9.005  10.063  0.0332 -0.4247 -0.1831
33038ION     NA48655   4.139  11.513  11.081 -0.1233 -0.0159 -0.0379
33039ION     NA48656  15.757  15.267  13.352  0.1566 -0.0265  0.2617
33040ION     NA48657   5.708  13.439   9.739 -0.1892  0.4410 -0.0451
33041ION     NA48658  11.336  14.122  10.062  0.1645 -0.1356 -0.2399
33042ION     NA48659   2.699  11.455   4.265 -0.1212 -0.0870 -0.0970
33043ION     NA48660   7.814   4.365  10.483  0.0963 -0.1349 -0.2969
33044ION     NA48661   1.038  17.077  13.952 -0.4369  0.0780 -0.0961
33045ION     NA48662   1.855  17.814  10.322 -0.0769 -0.0005 -0.3149
33046ION     NA48663  11.686  12.975   3.977 -0.0600  0.1405  0.1628
33047ION     NA48664  17.839  12.829   9.821  0.3100  0.2970 -0.0054
33048ION     NA48665  17.389   1.178  10.573 -0.0669 -0.1641 -0.0445
33049ION     NA48666   3.282   0.492  10.128  0.0483 -0.0373 -0.0704
33050ION     NA48667   0.513  10.002  10.318 -0.1272  0.1572  0.0070
33051ION     NA48668   4.221   1.254  10.220  0.2641 -0.1196  0.2337
33052ION     NA48669  16.975   5.506   9.941  0.0865 -0.0615 -0.1216
33053ION     NA48670  17.584   2.218  10.352 -0.0667 -0.3672  0.0761
33054ION     NA48671  11.492  12.109   2.589 -0.1738  0.0848  0.1697
33055ION     NA48672   9.244   1.569  10.321 -0.0510 -0.0684 -0.2316
33056ION     NA48673  12.571  18.486   5.906  0.0748 -0.0106 -0.0092
33057ION     NA48674  12.055  15.435  10.187 -0.1018 -0.4668  0.1998
33058ION     NA48675  15.973   7.888  15.716 -0.0506 -0.0817  0.0249
33059ION     NA48676   0.625   3.948  10.331 -0.1755 -0.0646 -0.0451
33060ION     NA48677  18.042   0.492  10.592  0.0676  0.1701 -0.2588
33061ION     NA48678   9.812  14.502   9.505  0.0770 -0.1040 -0.3424
33062ION     NA48679  13.175   7.724   9.975 -0.0744 -0.1037 -0.3354
33063ION     NA48680  16.952   2.587   0.155 -0.1475  0.4180 -0.2341
33064ION     NA48681   0.899  13.210   9.839  0.0838  0.0288 -0.2831
33065ION     NA48682   3.677   9.033   5.305 -0.1130  0.0505 -0.1496
33066ION     NA48683  18.209  13.554   5.481  0.1772  0.2503 -0.1775
33067ION     NA48684  18.292  14.489   9.791  0.1768 -0.1588  0.1152
33068ION     NA48685  10.728  12.982   9.459  0.0731  0.0585  0.1329
33069ION     NA48686  14.554  13.116   1.227 -0.1519  0.1609  0.2289
33070ION     NA48687   3.136  17.119   9.815 -0.1024  0.0183  0.2887
33071ION     NA48688   6.136   0.311   5.721  0.1447 -0.0948 -0.0290
33072ION     NA48689  15.327   6.600  10.036  0.0957  0.0682  0.1883
33073ION     NA48690  14.770  10.414   9.303  0.1372  0.0826 -0.0225
33074ION     NA48691   4.767   6.848  10.552 -0.3158 -0.2236 -0.0529
33075ION     NA48692   6.701  14.540   9.766 -0.4921 -0.1749  0.0239
33076ION     NA48693   3.943  13.354   9.957 -0.0683 -0.0808  0.4477
33077ION     NA48694   2.515   7.086  10.326  0.2687 -0.3118 -0.2500
33078ION     NA48695   2.267  17.831  15.444 -0.0133  0.3697  0.2179
33079ION     NA48696   9.583   5.170  10.987 -0.2100  0.0093  0.3889
33080ION     NA48697   1.884   5.655   5.978 -0.1527 -0.3678 -0.0968
33081ION     NA48698   7.437  12.381  12.271 -0.7023  0.0800 -0.3031
33082ION     NA48699  12.940  11.157  10.280 -0.1991 -0.0047  0.3756
33083ION     NA48700  13.840  15.317  10.136  0.2684 -0.0869 -0.0616
33084ION     NA48701  10.422   0.774  13.643  0.0728 -0.2709  0.0686
33085ION     NA48702  11.446  15.532  10.924 -0.1469  0.0439 -0.4166
33086ION     NA48703  10.676   6.510  10.967 -0.0474  0.0801  0.2055
33087ION     NA48704  18.343   5.161  12.460  0.1605 -0.0940  0.2287
33088ION     NA48705   0.707   5.502   3.496  0.3460  0.1729  0.2069
33089ION     NA48706   9.341  12.292   9.605 -0.0538  0.0346 -0.1047
33090ION     NA48707   1.322  14.892   9.769  0.0588  0.0575 -0.0455
33091ION     NA48708  18.591   3.473  10.388 -0.0363  0.1146 -0.1328
33092ION     NA48709   1.810   3.695  10.304  0.0131 -0.1330  0.0731
33093ION     NA48710  10.850   8.368  13.706  0.0357  0.0837  0.1036
33094ION     NA48711  14.029  10.822   0.577  0.1391  0.1883  0.0154
33095ION     NA48712  16.705  12.392   5.590  0.1833  0.3094 -0.2028
33096ION     NA48713   0.978   4.391  13.645 -0.1261  0.1418 -0.0582
33097ION     NA48714   3.190  15.946   5.483 -0.2759  0.1568  0.4341
33098ION     NA48715  10.327   7.673   6.026 -0.1153  0.0307 -0.1167
33099ION     NA48716   3.460  16.261   9.921  0.1014  0.1909  0.0261
33100ION     NA48717   9.201   3.162  10.361  0.0038 -0.0064 -0.0488
33101ION     NA48718   0.914   6.554  10.179  0.2604 -0.2469 -0.0203
33102ION     NA48719  16.471   6.029  11.205 -0.2508  0.0779 -0.2561
33103ION     NA48720  10.732   7.749   3.546  0.0763 -0.1055 -0.6138
33104ION     NA48721   8.349  12.998  15.025  0.2874  0.1455 -0.0222
33105ION     NA48722  15.625  12.983   3.474 -0.1301 -0.0886 -0.1882
33106ION     NA48723   3.895   7.196  13.774 -0.1557 -0.4536 -0.1210
33107ION     NA48724   0.246   0.001  12.841 -0.3048  0.0559 -0.0291
33108ION     NA48725   7.862  10.172   9.898 -0.1217 -0.0596  0.1982
33109ION     NA48726  16.212  18.231   0.955 -0.0070  0.2155 -0.1771
33110ION     NA48727  17.673   9.031   9.671  0.0511  0.1014 -0.1835
33111ION     NA48728   8.187   9.790  10.057  0.3852  0.0652 -0.1626
33112ION     NA48729   4.848  15.778   4.663  0.0943  0.0383  0.3573
33113ION     NA48730  14.146  13.370   0.165  0.0671 -0.0425  0.2659
33114ION     NA48731  12.648   1.691   6.047  0.2485 -0.0460  0.1923
33115ION     NA48732   8.344  12.106   9.806  0.1442 -0.1579  0.1884
33116ION     NA48733  16.209  16.842   5.803 -0.1375  0.2352 -0.0595
33117ION     NA48734   7.560  11.966   9.532 -0.0420  0.1955 -0.0500
33118ION     NA48735   8.393   3.559  10.394  0.1128 -0.1618 -0.1501
33119ION     NA48736  12.277   0.785  10.494  0.0301 -0.2552  0.0996
33120ION     NA48737   0.727   6.707   5.110 -0.1084  0.1382  0.0832
33121ION     NA48738  18.603  13.127  10.023 -0.1112  0.0044  0.1238
33122ION     NA48739  15.303   3.905  15.621  0.0409  0.1872 -0.1164
33123ION     NA48740  17.493  14.635  13.601 -0.1236  0.1156  0.4059
33124ION     NA48741   1.441   8.218   9.827 -0.0309  0.1394 -0.0915
33125ION     NA48742  14.750  11.149  14.794 -0.4338  0.3253 -0.1697
33126ION     NA48743  18.147  15.979   4.103 -0.1767  0.1945  0.1139
33127ION     NA48744  12.141   8.854  12.352  0.0418 -0.2136 -0.0943
33128ION     NA48745  13.375   1.332  10.448 -0.1103  0.0594 -0.2500
33129ION     NA48746  17.176  10.519   9.964  0.1117 -0.0833 -0.2678
33130ION     NA48747  14.054   5.868  10.483 -0.1948  0.2624 -0.2018
33131ION     NA48748  11.226  17.590  10.335  0.4351 -0.1931  0.4066
33132ION     NA48749   5.120  14.466  10.314  0.1434  0.3007 -0.2630
33133ION     NA48750   7.814   1.045  10.492  0.0399  0.0831  0.0133
33134ION     NA48751   3.448  16.778   1.888  0.2472  0.0065 -0.3284
33135ION     NA48752  14.425  11.294   9.362  0.1841  0.3128 -0.1124
33136ION     NA48753   8.957   8.167   5.950  0.1862 -0.1568 -0.0652
33137ION     NA48754   2.140   2.222  10.298  0.0859 -0.1182  0.3309
33138ION     NA48755   7.554  12.604   9.523 -0.0080  0.0476 -0.0256
33139ION     NA48756   8.449  14.439   4.463  0.0035  0.2983  0.1684
33140ION     NA48757   1.829  17.706   0.808  0.1000 -0.1656 -0.1965
33141ION     NA48758   2.656  15.541  10.178 -0.0565 -0.2013  0.0604
33142ION     NA48759  16.083  14.851   5.904  0.0540 -0.1956 -0.0584
33143ION     NA48760   0.801  11.209   9.943  0.0560 -0.3119 -0.0142
33144ION     NA48761   4.031  17.628  10.150 -0.1785 -0.0072  0.0712
33145ION     NA48762  14.281  12.656   9.901  0.1138 -0.0276 -0.0797
33146ION     NA48763  11.353  15.118  10.066  0.1214  0.0692  0.0312
33147ION     NA48764   9.802   0.747  10.496  0.1792 -0.3228 -0.0633
33148ION     NA48765  16.252   9.433  15.719  0.0613  0.0246  0.0201
33149ION     NA48766  16.524   9.040   5.076 -0.0145 -0.1791 -0.1918
33150ION     NA48767  12.172  14.497  10.248 -0.1434  0.0231  0.0874
33151ION     NA48768   2.399   8.067  15.203 -0.2624 -0.5277 -0.0889
33152ION     NA48769   3.837   7.401   5.696  0.3796  0.2159 -0.0677
33153ION     NA48770  14.549   6.027   0.391 -0.2212  0.0078  0.1764
33154ION     NA48771   4.684   6.625  15.617  0.1414 -0.0120  0.3079
33155ION     NA48772   7.964   7.441  12.675  0.0294  0.0349 -0.0483
33156ION     NA48773  12.931  17.557  10.548  0.2441  0.0493 -0.2977
33157ION     NA48774   8.873  15.900   9.753 -0.3510 -0.0863 -0.0802
33158ION     NA48775   0.600   4.843  10.171 -0.0303  0.0342 -0.1608
33159ION     NA48776  10.891   8.485  10.615  0.0457 -0.1486 -0.0658
33160ION     NA48777  16.013   2.894  13.462  0.0661  0.0500  0.1925
33161ION     NA48778  10.398   9.542  10.097  0.0280 -0.1724  0.0292
33162ION     NA48779   1.123   7.339   5.559  0.0654 -0.1388  0.1142
33163ION     NA48780  16.905   7.265  11.212  0.1112 -0.5866  0.0494
33164ION     NA48781   7.312   6.326  10.944  0.1227  0.0264 -0.0385
33165ION     NA48782  15.678  10.245   9.389  0.1967  0.2202  0.1475
33166ION     NA48783  18.484   0.619  10.609 -0.2180 -0.1605  0.0602
33167ION     NA48784  11.215  15.739   1.700 -0.0639 -0.5817 -0.2313
33168ION     NA48785  15.447   3.352  10.737 -0.0942 -0.1051 -0.0779
33169ION     NA48786  11.169  13.928  10.927  0.0095 -0.1191 -0.0791
33170ION     NA48787   8.360  17.804   9.916 -0.0675 -0.1365 -0.0679
33171ION     NA48788   2.507  16.098   0.663 -0.1891 -0.0582  0.2063
33172ION     NA48789   2.279  18.207   5.924  0.0142 -0.0650  0.0966
33173ION     NA48790  15.698   7.302   4.940 -0.1882 -0.1885  0.0379
33174ION     NA48791   4.364  16.069   9.903  0.2086 -0.1275 -0.0582
33175ION     NA48792  17.461   8.702  12.555  0.3742 -0.3701 -0.0353
33176ION     NA48793  13.928   1.615   6.288  0.0147  0.0711 -0.1029
33177ION     NA48794  16.786   3.995  10.481  0.3472 -0.1417  0.0230
33178ION     NA48795   0.954   8.649   5.621 -0.2429 -0.5169 -0.0525
33179ION     NA48796  17.269   6.933   9.751 -0.2516 -0.3083  0.0309
33180ION     NA48797  18.200  15.330   9.648  0.0719  0.1672 -0.2518
33181ION     NA48798   9.909  17.009   9.939 -0.0659 -0.1726  0.1772
33182ION     NA48799   0.299  11.403   5.411 -0.1479 -0.2076 -0.0302
33183ION     NA48800  17.277   4.718  10.360  0.0268  0.0514  0.0046
33184ION     NA48801   5.997   3.613   5.480  0.0761 -0.3749 -0.0537
33185ION     NA48802  10.855   1.588  10.734  0.3280  0.2156  0.0285
33186ION     NA48803  13.045   0.428  10.500  0.1328 -0.0625  0.2103
33187ION     NA48804   8.130   6.542   5.960 -0.0289  0.1132  0.0499
33188ION     NA48805   9.371  14.880   9.597 -0.2730 -0.3604 -0.1718
33189ION     NA48806   2.284   0.512  10.265  0.2194  0.2195  0.1280
33190ION     NA48807   0.068   4.751  10.081 -0.0032  0.0016  0.0383
33191ION     NA48808   1.053  16.665   4.610  0.1725  0.0976  0.1887
33192ION     NA48809   8.720   6.018   4.891 -0.3501 -0.0496  0.4811
33193ION     NA48810  11.337   0.750  10.713 -0.2035 -0.2068 -0.1211
33194ION     NA48811  15.604  14.194   9.624  0.1688 -0.0140 -0.1297
33195ION     NA48812   5.998   7.903  11.544 -0.0828 -0.1201 -0.3503
33196ION     NA48813   8.696  15.075   9.574  0.0655 -0.1486  0.1300
33197ION     NA48814  14.109  12.986   5.201  0.0395  0.2392  0.0559
33198ION     NA48815  10.377  10.610  10.049 -0.1188 -0.1630  0.2404
33199ION     NA48816   2.202   2.480   2.599  0.2914 -0.0331  0.0358
33200ION     NA48817  12.105   7.502  10.673 -0.0787  0.3455 -0.1036
33201ION     NA48818   1.073  12.532  15.734  0.1827  0.1007  0.0522
33202ION     NA48819   6.953  16.270   9.873 -0.1526  0.0141 -0.2139
33203ION     NA48820   1.286  13.513   5.760 -0.2653 -0.4414  0.2034
33204ION     NA48821   3.387   5.349   1.587  0.0119 -0.0606 -0.0645
33205ION     NA48822   6.742  18.586  10.053  0.0621  0.2929  0.1063
33206ION     NA48823   8.504   5.734  10.320  0.0052  0.0775 -0.0037
33207ION     NA48824   4.963   7.296  10.656  0.0389  0.1149 -0.2647
33208ION     NA48825  10.170   3.713  10.543  0.2264  0.0947  0.1277
33209ION     NA48826   3.303  11.570   5.267 -0.2320  0.0397 -0.0744
33210ION     NA48827   5.878  17.566   9.928 -0.0210 -0.0699 -0.2514
33211ION     NA48828  16.848   1.841  14.825  0.3271  0.0001 -0.4475
33212ION     NA48829  17.351   7.457   9.757 -0.0026  0.1532 -0.3481
33213ION     NA48830   9.198  11.129   5.016 -0.3070  0.0981  0.1458
33214ION     NA48831   5.970  13.291   4.468 -0.0922  0.1023  0.1042
33215ION     NA48832  16.314   0.363  10.674 -0.2865  0.0756  0.0202
33216ION     NA48833   7.275   4.124  10.885 -0.0849 -0.0576  0.2400
33217ION     NA48834  18.077   3.195  12.732  0.3803 -0.0481  0.5113
33218ION     NA48835   7.045   7.384   6.342  0.0593 -0.2980  0.0678
33219ION     NA48836  10.137  11.537   5.367  0.1136 -0.1510  0.1338
33220ION     NA48837  11.643  12.798  13.378 -0.1687 -0.2105 -0.0428
33221ION     NA48838  11.757   2.897  10.782  0.0067 -0.0887  0.0937
33222ION     NA48839  14.070   5.942   6.015  0.0536  0.1746 -0.1800
33223ION     NA48840  15.289  11.079   9.274 -0.1218  0.1129 -0.2072
33224ION     NA48841   4.808   0.464  10.126  0.1252  0.0370 -0.2909
  18.65719  18.65719  15.80000
