INSANE! Membrane UpperLeaflet>loPI:POPI:DPPI:PYPI:ERGO=140.0:15.0:9.0:6.0:30.0 LowerLeaflet>loPI:POPI:DPPI:PYPI:ERGO=140.0:15.0:9.0:6.0:30.0
48854
    1loPI    C1    1   5.910   7.253  11.378 -0.2955 -0.2166 -0.0723
    1loPI    C2    2   5.659   7.232  11.689  0.0971 -0.0265  0.2685
    1loPI    C3    3   5.893   6.920  11.600 -0.2564 -0.2080 -0.0563
    1loPI   PO4    4   5.945   7.513  11.380  0.3041 -0.0776 -0.1877
    1loPI   GL1    5   6.120   7.716  10.956 -0.2205  0.1081 -0.0924
    1loPI   GL2    6   5.799   7.649  10.915 -0.0427 -0.0744  0.0460
    1loPI   C1A    7   6.157   7.600  10.479 -0.1897 -0.0194  0.1773
    1loPI   C2A    8   6.102   7.455  10.072 -0.1678  0.1111  0.0084
    1loPI   C3A    9   6.050   7.339   9.714 -0.2193  0.1146  0.1816
    1loPI   C4A   10   5.864   7.170   9.380  0.1288 -0.5408  0.1248
    1loPI   C5A   11   5.765   7.049   8.992 -0.2294 -0.0768 -0.0473
    1loPI   C6A   12   5.916   7.057   8.607 -0.0122  0.1963  0.1312
    1loPI   C1B   13   5.701   7.820  10.632  0.1190 -0.1421 -0.5404
    1loPI   C2B   14   5.647   7.868  10.145  0.1388  0.1479  0.1022
    1loPI   C3B   15   5.948   7.903   9.793  0.1523  0.2472  0.0394
    1loPI   C4B   16   6.095   8.075   9.331  0.0746 -0.0482 -0.0854
    2loPI    C1   17  15.360   9.013  11.696  0.1204  0.1833 -0.1789
    2loPI    C2   18  15.697   9.033  11.480  0.1099  0.3394 -0.1819
    2loPI    C3   19  15.698   9.147  11.863  0.1715 -0.1080 -0.0430
    2loPI   PO4   20  15.224   8.829  11.631 -0.0862 -0.1146 -0.2155
    2loPI   GL1   21  15.348   8.544  11.350  0.2249  0.0154 -0.3891
    2loPI   GL2   22  15.386   8.863  11.134 -0.0469  0.0224  0.0511
    2loPI   C1A   23  15.178   8.283  10.961 -0.0156 -0.0645  0.2805
    2loPI   C2A   24  15.155   8.246  10.502 -0.1583 -0.3037  0.0094
    2loPI   C3A   25  15.185   8.262  10.103 -0.0297 -0.0656  0.0221
    2loPI   C4A   26  15.239   8.246   9.652  0.1014 -0.1066  0.0223
    2loPI   C5A   27  15.423   8.408   9.232 -0.1214  0.0601 -0.0904
    2loPI   C6A   28  15.149   8.543   8.868 -0.0190 -0.2216 -0.0512
    2loPI   C1B   29  15.618   8.991  10.767 -0.0092 -0.0939 -0.0840
    2loPI   C2B   30  15.828   9.072  10.467 -0.1011 -0.0850  0.1661
    2loPI   C3B   31  15.771   8.942   9.990  0.1365  0.0951 -0.2363
    2loPI   C4B   32  15.802   9.016   9.610  0.0015 -0.0411  0.1283
    3loPI    C1   33  14.833   5.347  11.708  0.0293  0.2615 -0.3053
    3loPI    C2   34  15.101   5.435  11.992 -0.0839 -0.1911 -0.0472
    3loPI    C3   35  14.710   5.455  12.073 -0.1199 -0.1633 -0.2232
    3loPI   PO4   36  15.046   5.287  11.468 -0.0118 -0.0476  0.0567
    3loPI   GL1   37  14.957   5.077  11.105 -0.1612 -0.0852  0.0975
    3loPI   GL2   38  14.839   4.866  10.969  0.2710  0.0155  0.0666
    3loPI   C1A   39  15.225   5.247  10.779  0.0594 -0.0938 -0.2127
    3loPI   C2A   40  15.293   5.308  10.376 -0.0221  0.0294  0.0749
    3loPI   C3A   41  15.275   5.408   9.992 -0.0734 -0.1177 -0.2853
    3loPI   C4A   42  15.178   5.454   9.642 -0.1323  0.0485 -0.0290
    3loPI   C5A   43  15.181   5.499   9.263 -0.1427 -0.3175  0.1818
    3loPI   C6A   44  15.205   5.357   8.809 -0.0178 -0.0726 -0.3377
    3loPI   C1B   45  15.131   4.805  10.553  0.0709  0.1226  0.1175
    3loPI   C2B   46  15.205   4.842  10.111 -0.0955  0.0472  0.0133
    3loPI   C3B   47  15.109   4.978   9.724 -0.0701 -0.1991  0.2597
    3loPI   C4B   48  15.206   4.998   9.394  0.0391 -0.2683  0.3265
    4loPI    C1   49  14.429  16.056  11.986  0.0150 -0.1129  0.2413
    4loPI    C2   50  14.678  16.036  12.298 -0.0924  0.2181  0.3521
    4loPI    C3   51  14.287  16.096  12.357 -0.1807 -0.1501  0.1718
    4loPI   PO4   52  14.616  16.128  11.745 -0.1014 -0.4107 -0.0433
    4loPI   GL1   53  14.572  16.026  11.351 -0.2815 -0.0792 -0.0781
    4loPI   GL2   54  14.723  16.243  11.089  0.1517 -0.0715 -0.0651
    4loPI   C1A   55  14.398  15.741  10.990  0.2459  0.1231  0.0118
    4loPI   C2A   56  14.566  15.669  10.597  0.0308 -0.0144 -0.1948
    4loPI   C3A   57  14.611  15.760  10.178 -0.1568 -0.0977  0.0483
    4loPI   C4A   58  14.616  15.779   9.718  0.1065 -0.2248 -0.0303
    4loPI   C5A   59  14.552  15.629   9.207 -0.3947 -0.1024 -0.0251
    4loPI   C6A   60  14.150  15.556   9.019  0.1056 -0.0222  0.0884
    4loPI   C1B   61  14.714  16.272  10.784  0.0354 -0.0596 -0.1806
    4loPI   C2B   62  14.573  16.194  10.466 -0.1154 -0.1350  0.3857
    4loPI   C3B   63  14.707  16.229  10.057 -0.1845  0.1464 -0.1289
    4loPI   C4B   64  14.653  16.254   9.569 -0.1978 -0.1892  0.2741
    5loPI    C1   65   0.055   0.193  11.854 -0.0286  0.2351 -0.0822
    5loPI    C2   66  -0.325   0.205  11.728 -0.0472 -0.0369 -0.0579
    5loPI    C3   67  -0.240   0.269  12.114 -0.0828 -0.1102 -0.0377
    5loPI   PO4   68   0.175   0.266  11.675 -0.3502  0.2078  0.0259
    5loPI   GL1   69   0.045   0.364  11.313  0.2343 -0.0732 -0.0602
    5loPI   GL2   70   0.180   0.046  11.176  0.2622 -0.0467 -0.0065
    5loPI   C1A   71  -0.095   0.375  10.905  0.0224  0.2014  0.1869
    5loPI   C2A   72  -0.145   0.405  10.459 -0.0013 -0.1535 -0.1787
    5loPI   C3A   73  -0.176   0.407  10.089 -0.0956 -0.2371 -0.0017
    5loPI   C4A   74  -0.164   0.315   9.610  0.2959 -0.2086  0.3999
    5loPI   C5A   75  -0.356   0.117   9.358 -0.1109  0.2639 -0.1991
    5loPI   C6A   76  -0.692   0.260   9.088 -0.3069 -0.1560  0.1148
    5loPI   C1B   77   0.241   0.042  10.730  0.2130 -0.1103 -0.1914
    5loPI   C2B   78   0.303   0.021  10.352  0.0182  0.3149 -0.4180
    5loPI   C3B   79   0.271   0.084   9.932 -0.0008  0.3387 -0.0842
    5loPI   C4B   80   0.302   0.050   9.496 -0.1329  0.2701 -0.0884
    6loPI    C1   81  14.001  10.253  11.765  0.0559 -0.0529  0.1279
    6loPI    C2   82  13.836  10.617  11.747  0.3318  0.0671 -0.0413
    6loPI    C3   83  13.849  10.421  12.096  0.4181  0.3315  0.1075
    6loPI   PO4   84  13.902  10.116  11.515 -0.1372  0.0294  0.0526
    6loPI   GL1   85  14.128  10.283  11.178  0.1487 -0.0273  0.0465
    6loPI   GL2   86  13.809  10.428  11.108  0.0468 -0.0480 -0.1308
    6loPI   C1A   87  14.123  10.109  10.755  0.2280  0.0458 -0.1568
    6loPI   C2A   88  14.147  10.345  10.376  0.1748  0.0997 -0.3217
    6loPI   C3A   89  14.130  10.393   9.874  0.0684 -0.2285  0.0690
    6loPI   C4A   90  14.237  10.393   9.502  0.0317 -0.0612  0.2641
    6loPI   C5A   91  14.279  10.319   9.057 -0.5831  0.0529 -0.3464
    6loPI   C6A   92  14.327  10.075   8.568  0.0751 -0.1375 -0.2488
    6loPI   C1B   93  13.692  10.501  10.840  0.1431  0.0532  0.0135
    6loPI   C2B   94  13.732  10.585  10.396  0.2558 -0.0117 -0.0416
    6loPI   C3B   95  13.682  10.595  10.037 -0.1544 -0.0160  0.2023
    6loPI   C4B   96  13.748  10.595   9.548 -0.1095  0.1730  0.1122
    7loPI    C1   97   3.443   3.844  11.496 -0.2015  0.2123  0.0802
    7loPI    C2   98   3.396   3.616  11.821 -0.0730  0.2559  0.1301
    7loPI    C3   99   3.745   3.617  11.627 -0.1341  0.2666  0.0193
    7loPI   PO4  100   3.152   3.820  11.428 -0.0158  0.2052  0.3886
    7loPI   GL1  101   2.862   4.008  11.150 -0.1340  0.3014  0.4903
    7loPI   GL2  102   2.846   4.279  10.949 -0.1724  0.1420  0.1850
    7loPI   C1A  103   2.767   3.825  10.749 -0.0789 -0.0782 -0.1481
    7loPI   C2A  104   2.774   3.750  10.334 -0.0791  0.0728 -0.2233
    7loPI   C3A  105   2.727   3.789   9.996  0.0416  0.0653 -0.1737
    7loPI   C4A  106   2.600   3.707   9.602 -0.0426 -0.3964 -0.0286
    7loPI   C5A  107   2.543   3.547   9.242 -0.2527  0.1443  0.0756
    7loPI   C6A  108   2.654   3.136   8.964 -0.4615  0.1708 -0.1696
    7loPI   C1B  109   2.867   4.282  10.534  0.0320 -0.0300  0.0407
    7loPI   C2B  110   2.832   4.348  10.085 -0.3113 -0.0528  0.4373
    7loPI   C3B  111   2.796   4.173   9.622  0.1708  0.1234  0.0138
    7loPI   C4B  112   2.949   3.855   9.194  0.4130 -0.1718  0.0279
    8loPI    C1  113   5.307   4.921  11.423  0.0298  0.0192  0.2998
    8loPI    C2  114   5.681   4.939  11.562  0.0552  0.2782  0.2032
    8loPI    C3  115   5.394   4.770  11.783  0.2607 -0.0825  0.2035
    8loPI   PO4  116   5.289   5.075  11.149 -0.0119 -0.1425  0.1210
    8loPI   GL1  117   5.151   5.071  10.819 -0.2091  0.1822  0.3369
    8loPI   GL2  118   4.841   5.043  10.798 -0.1085 -0.0040 -0.1908
    8loPI   C1A  119   5.389   5.140  10.303  0.3451 -0.0172 -0.0522
    8loPI   C2A  120   5.456   5.183   9.923 -0.1811  0.1031 -0.2147
    8loPI   C3A  121   5.587   5.236   9.444  0.1154 -0.2263  0.2270
    8loPI   C4A  122   5.676   5.255   8.993  0.0192  0.1517  0.1554
    8loPI   C5A  123   5.605   5.242   8.640 -0.1861  0.0698 -0.3644
    8loPI   C6A  124   5.591   5.415   8.193 -0.0096  0.0289  0.3039
    8loPI   C1B  125   4.885   5.221  10.369  0.1847  0.0762 -0.1458
    8loPI   C2B  126   4.968   5.173   9.898 -0.0796 -0.1125 -0.0782
    8loPI   C3B  127   5.134   5.263   9.506  0.4134  0.3180  0.0576
    8loPI   C4B  128   5.254   4.950   9.142 -0.0605  0.1582  0.1480
    9loPI    C1  129   7.731  14.288  11.721  0.0797  0.0509  0.0545
    9loPI    C2  130   7.439  14.082  11.901 -0.0354  0.0469 -0.1343
    9loPI    C3  131   7.733  14.244  12.119 -0.0450 -0.1571  0.0336
    9loPI   PO4  132   7.699  14.220  11.414 -0.1231 -0.1181 -0.2387
    9loPI   GL1  133   7.588  14.332  10.980 -0.1612  0.1379 -0.0694
    9loPI   GL2  134   7.235  14.294  11.016 -0.0581 -0.0773  0.1745
    9loPI   C1A  135   7.495  14.461  10.544 -0.0106 -0.2173 -0.0328
    9loPI   C2A  136   7.438  14.504  10.071  0.1369  0.2675 -0.1656
    9loPI   C3A  137   7.416  14.547   9.591  0.3345 -0.0257 -0.1374
    9loPI   C4A  138   7.480  14.562   9.200 -0.1288 -0.2751  0.1566
    9loPI   C5A  139   7.204  14.357   8.799  0.0724  0.1175  0.0358
    9loPI   C6A  140   6.938  13.988   8.638 -0.0349  0.0092  0.1253
    9loPI   C1B  141   7.096  14.150  10.554 -0.0200 -0.0615 -0.2088
    9loPI   C2B  142   7.130  14.112  10.140 -0.0832 -0.0066  0.0522
    9loPI   C3B  143   7.131  14.069   9.722 -0.0184 -0.0753  0.0171
    9loPI   C4B  144   7.070  14.170   9.215  0.3008 -0.1714 -0.3845
   10loPI    C1  145   1.398   2.882  11.985 -0.0854  0.0146  0.1281
   10loPI    C2  146   1.623   2.691  12.255  0.1986  0.1924  0.0217
   10loPI    C3  147   1.756   3.029  12.087  0.0854  0.0141 -0.4403
   10loPI   PO4  148   1.277   2.712  11.831 -0.1754  0.2568 -0.3450
   10loPI   GL1  149   1.077   2.554  11.391  0.1519 -0.0347  0.2517
   10loPI   GL2  150   0.907   2.355  11.230  0.0558  0.1925  0.0056
   10loPI   C1A  151   1.224   2.698  10.961  0.2339 -0.2409 -0.2220
   10loPI   C2A  152   1.222   2.791  10.517  0.0462 -0.3363 -0.2858
   10loPI   C3A  153   1.061   2.808  10.138  0.2124  0.0608  0.3979
   10loPI   C4A  154   1.116   2.776   9.782 -0.0098  0.1725 -0.3616
   10loPI   C5A  155   0.949   2.867   9.372 -0.0843 -0.2714 -0.2118
   10loPI   C6A  156   0.862   2.898   8.982 -0.0352 -0.0897 -0.1356
   10loPI   C1B  157   0.726   2.102  10.846  0.0397 -0.4606 -0.1448
   10loPI   C2B  158   0.649   2.131  10.486  0.1575 -0.2025  0.0545
   10loPI   C3B  159   0.592   2.095  10.083  0.3210 -0.0036 -0.1312
   10loPI   C4B  160   0.502   2.144   9.762  0.1425 -0.4218 -0.0821
   11loPI    C1  161   1.369   0.242  11.899  0.1320 -0.1505 -0.1743
   11loPI    C2  162   1.063   0.264  12.156  0.2444 -0.1122 -0.0423
   11loPI    C3  163   1.300   0.582  12.099  0.2060 -0.1127 -0.2125
   11loPI   PO4  164   1.191   0.098  11.622  0.0268  0.0068 -0.3016
   11loPI   GL1  165   0.994   0.246  11.193  0.2127 -0.0748 -0.0985
   11loPI   GL2  166   1.276   0.482  11.220 -0.5061 -0.0287 -0.2601
   11loPI   C1A  167   0.828   0.260  10.851  0.0300  0.0130 -0.1465
   11loPI   C2A  168   0.809   0.191  10.378  0.2047  0.0375 -0.0751
   11loPI   C3A  169   0.652   0.345   9.988  0.1365  0.1169  0.0001
   11loPI   C4A  170   0.799   0.365   9.548 -0.0863  0.0284 -0.0041
   11loPI   C5A  171   0.633   0.211   9.130 -0.0317 -0.5202 -0.0380
   11loPI   C6A  172   0.293   0.071   8.995 -0.2261 -0.2094  0.4137
   11loPI   C1B  173   1.294   0.461  10.829  0.0125 -0.1298 -0.1639
   11loPI   C2B  174   1.228   0.430  10.414 -0.2589 -0.0875 -0.2285
   11loPI   C3B  175   1.320   0.335  10.021  0.0648  0.0953  0.0354
   11loPI   C4B  176   1.352   0.367   9.581 -0.0902 -0.1842  0.0592
   12loPI    C1  177   5.171   2.124  11.550 -0.0271 -0.1222  0.0987
   12loPI    C2  178   4.962   2.418  11.722  0.0775 -0.0473  0.0980
   12loPI    C3  179   5.290   2.274  11.901  0.0367 -0.1513  0.0897
   12loPI   PO4  180   5.203   2.203  11.337  0.2783  0.0495 -0.0934
   12loPI   GL1  181   5.152   2.041  10.929 -0.2138  0.0437 -0.1473
   12loPI   GL2  182   5.443   2.138  10.935  0.1464 -0.1527  0.0778
   12loPI   C1A  183   5.354   1.990  10.495  0.3368  0.0770 -0.1306
   12loPI   C2A  184   5.237   1.928  10.075 -0.2280 -0.0880  0.0107
   12loPI   C3A  185   5.291   1.919   9.672 -0.0822 -0.0079  0.0685
   12loPI   C4A  186   5.466   1.974   9.287  0.0114  0.1304 -0.0018
   12loPI   C5A  187   5.461   2.104   8.759  0.3337 -0.1909 -0.0272
   12loPI   C6A  188   5.563   1.911   8.415  0.1027 -0.1037 -0.1289
   12loPI   C1B  189   5.543   2.426  10.594  0.2085 -0.2453 -0.2976
   12loPI   C2B  190   5.580   2.380  10.134 -0.0954 -0.0767  0.2209
   12loPI   C3B  191   5.681   2.389   9.684 -0.1635  0.0981  0.0440
   12loPI   C4B  192   5.642   2.495   9.236 -0.0730  0.0803 -0.2304
   13loPI    C1  193   4.492   9.698  11.557  0.1428 -0.0785 -0.1104
   13loPI    C2  194   4.705  10.033  11.508 -0.0073  0.0416  0.0453
   13loPI    C3  195   4.575   9.930  11.872 -0.0843 -0.1113 -0.0245
   13loPI   PO4  196   4.255   9.658  11.428  0.0486  0.0470 -0.0256
   13loPI   GL1  197   4.238   9.672  11.009  0.3438  0.2101 -0.0001
   13loPI   GL2  198   4.150   9.971  11.032 -0.2017 -0.2638 -0.2419
   13loPI   C1A  199   4.144   9.642  10.639  0.1905 -0.0231 -0.1693
   13loPI   C2A  200   4.101   9.665  10.163 -0.0975  0.2043 -0.1774
   13loPI   C3A  201   4.146   9.642   9.800 -0.1992  0.0561 -0.2142
   13loPI   C4A  202   4.023   9.635   9.413  0.1721 -0.1561  0.0660
   13loPI   C5A  203   3.880   9.742   9.063 -0.0353 -0.0777  0.0387
   13loPI   C6A  204   3.614  10.029   8.901 -0.1829 -0.2319  0.1125
   13loPI   C1B  205   4.155  10.129  10.597 -0.0969 -0.1023  0.1167
   13loPI   C2B  206   4.171  10.174  10.116 -0.2002  0.2468  0.1515
   13loPI   C3B  207   4.224  10.116   9.600  0.2013 -0.0126 -0.0410
   13loPI   C4B  208   4.434   9.889   9.288  0.0727 -0.1284  0.1185
   14loPI    C1  209  12.832   3.664  11.217 -0.2163 -0.0626 -0.0343
   14loPI    C2  210  13.016   3.682  11.573 -0.0211 -0.0377 -0.1350
   14loPI    C3  211  12.616   3.668  11.554 -0.0272 -0.2312  0.0913
   14loPI   PO4  212  13.042   3.560  11.003 -0.0947 -0.2702 -0.1747
   14loPI   GL1  213  13.063   3.677  10.645 -0.1510  0.0317 -0.0332
   14loPI   GL2  214  13.477   3.750  10.749  0.3513  0.3237  0.0129
   14loPI   C1A  215  13.015   3.637  10.210 -0.0300 -0.3492  0.0198
   14loPI   C2A  216  13.117   3.573   9.843 -0.0641  0.0472  0.0096
   14loPI   C3A  217  13.168   3.623   9.426 -0.0655  0.2160  0.2579
   14loPI   C4A  218  13.132   3.495   9.041 -0.0758 -0.0772  0.2040
   14loPI   C5A  219  13.349   3.302   8.739  0.1189  0.0946  0.0849
   14loPI   C6A  220  13.250   2.922   8.543 -0.0861 -0.0259 -0.1262
   14loPI   C1B  221  13.555   3.841  10.380  0.0676  0.2864  0.2987
   14loPI   C2B  222  13.637   3.770   9.990 -0.1595  0.0609  0.1446
   14loPI   C3B  223  13.700   3.833   9.478  0.1372  0.1296 -0.1176
   14loPI   C4B  224  13.798   3.809   9.097 -0.0554  0.0355  0.1002
   15loPI    C1  225  16.372  13.476  11.869  0.0414 -0.0179  0.0055
   15loPI    C2  226  16.022  13.537  12.053  0.0363  0.0270 -0.0189
   15loPI    C3  227  16.364  13.644  12.231  0.0319  0.0612 -0.0313
   15loPI   PO4  228  16.242  13.538  11.604  0.2271 -0.1752  0.0323
   15loPI   GL1  229  15.974  13.544  11.257  0.1499 -0.2651 -0.1137
   15loPI   GL2  230  15.725  13.438  11.222  0.0805  0.3012  0.2314
   15loPI   C1A  231  16.115  13.464  10.867  0.1930  0.3764  0.0770
   15loPI   C2A  232  16.128  13.404  10.484  0.1294 -0.1076  0.0373
   15loPI   C3A  233  16.078  13.442  10.051 -0.2746 -0.0570  0.1096
   15loPI   C4A  234  16.144  13.394   9.636 -0.0267 -0.2201 -0.3156
   15loPI   C5A  235  16.177  13.535   9.154  0.0743 -0.2234 -0.1116
   15loPI   C6A  236  16.524  13.530   8.764  0.2725  0.0587  0.0553
   15loPI   C1B  237  15.657  13.330  10.860  0.1195  0.3979 -0.3415
   15loPI   C2B  238  15.704  13.232  10.405  0.1116 -0.0820  0.3378
   15loPI   C3B  239  15.559  13.262  10.028 -0.1678  0.1759  0.2368
   15loPI   C4B  240  15.660  13.252   9.625  0.1199  0.1594 -0.2692
   16loPI    C1  241   9.515   0.763  11.561  0.3223  0.0732 -0.1994
   16loPI    C2  242   9.704   0.757  11.914  0.0548  0.0698 -0.0537
   16loPI    C3  243   9.430   0.479  11.829 -0.0650  0.2189 -0.1615
   16loPI   PO4  244   9.657   0.721  11.363  0.1108  0.1655  0.3393
   16loPI   GL1  245   9.561   0.710  10.893  0.2257 -0.2362 -0.1154
   16loPI   GL2  246   9.684   0.404  10.879  0.1919 -0.0355 -0.3363
   16loPI   C1A  247   9.420   0.778  10.504 -0.1080 -0.0484  0.0276
   16loPI   C2A  248   9.513   0.789  10.053 -0.0001 -0.1293 -0.2833
   16loPI   C3A  249   9.474   0.640   9.624 -0.1054  0.0090 -0.1375
   16loPI   C4A  250   9.536   0.533   9.176  0.2724 -0.3379  0.0181
   16loPI   C5A  251   9.702   0.241   8.814 -0.3113 -0.2154  0.0993
   16loPI   C6A  252  10.026   0.192   8.417 -0.1387 -0.1502 -0.1856
   16loPI   C1B  253   9.805   0.467  10.490  0.1396  0.1773  0.0760
   16loPI   C2B  254   9.903   0.462   9.983  0.0422  0.0053 -0.0909
   16loPI   C3B  255   9.953   0.483   9.504  0.0676 -0.0985 -0.1503
   16loPI   C4B  256  10.033   0.536   9.088 -0.0597 -0.0571  0.0917
   17loPI    C1  257   3.194  10.388  11.667 -0.0115  0.0648  0.1013
   17loPI    C2  258   3.113  10.179  11.998 -0.1398  0.0267  0.0461
   17loPI    C3  259   3.283  10.540  12.026  0.1628 -0.1203  0.1379
   17loPI   PO4  260   3.019  10.488  11.513 -0.1580 -0.1287 -0.0115
   17loPI   GL1  261   3.079  10.708  11.179 -0.1039  0.0907 -0.1028
   17loPI   GL2  262   3.341  10.827  10.918 -0.0996  0.1066 -0.2555
   17loPI   C1A  263   2.935  10.707  10.718 -0.0154  0.2143 -0.0836
   17loPI   C2A  264   3.028  10.626  10.216  0.1882 -0.0827  0.1555
   17loPI   C3A  265   2.848  10.663   9.807 -0.0403 -0.0620  0.0341
   17loPI   C4A  266   2.688  10.616   9.475 -0.4033  0.1347 -0.0125
   17loPI   C5A  267   2.698  10.931   9.133  0.0074 -0.0055  0.2113
   17loPI   C6A  268   2.842  11.327   9.069  0.0396  0.0706  0.0610
   17loPI   C1B  269   3.448  10.818  10.500  0.0753  0.0828  0.1788
   17loPI   C2B  270   3.446  10.819  10.052 -0.2778  0.1286 -0.0642
   17loPI   C3B  271   3.396  10.830   9.675 -0.0006  0.3272  0.4887
   17loPI   C4B  272   3.252  10.607   9.264 -0.2108  0.1335  0.0737
   18loPI    C1  273   3.064   6.874  11.394  0.0297 -0.1542  0.1226
   18loPI    C2  274   2.756   6.746  11.615  0.0072 -0.1673  0.0839
   18loPI    C3  275   3.131   6.653  11.721  0.0031 -0.0737  0.1828
   18loPI   PO4  276   3.112   6.762  11.110 -0.0932 -0.1799 -0.1301
   18loPI   GL1  277   3.095   6.296  10.893 -0.1785 -0.1653 -0.1209
   18loPI   GL2  278   3.361   6.302  10.823  0.1580  0.2255 -0.2326
   18loPI   C1A  279   2.757   6.185  10.534 -0.2607  0.1072 -0.2115
   18loPI   C2A  280   2.649   6.279  10.108  0.1371 -0.1892 -0.1507
   18loPI   C3A  281   2.628   6.185   9.734  0.0425  0.0991  0.2652
   18loPI   C4A  282   2.590   6.216   9.384 -0.1274  0.0198  0.0835
   18loPI   C5A  283   2.635   6.258   8.881 -0.1664 -0.0435  0.2880
   18loPI   C6A  284   2.589   6.228   8.430  0.0256 -0.0086 -0.1194
   18loPI   C1B  285   3.278   6.385  10.377  0.0849 -0.1132  0.5097
   18loPI   C2B  286   3.114   6.331   9.966  0.2188 -0.1474 -0.2268
   18loPI   C3B  287   3.108   6.436   9.534 -0.1692  0.0667  0.1012
   18loPI   C4B  288   3.029   6.326   9.238  0.1818  0.0127 -0.2003
   19loPI    C1  289   8.960  16.229  11.781 -0.1618  0.0642  0.1779
   19loPI    C2  290   9.156  16.551  11.647  0.0137 -0.1138  0.0003
   19loPI    C3  291   9.220  16.418  12.019  0.0212 -0.0077  0.0372
   19loPI   PO4  292   8.983  16.085  11.537  0.3043  0.1428 -0.1377
   19loPI   GL1  293   9.048  16.223  11.149 -0.3404 -0.3038  0.1508
   19loPI   GL2  294   9.239  15.957  10.973  0.2099 -0.3713  0.0971
   19loPI   C1A  295   8.727  16.204  10.871  0.2620 -0.3202 -0.0163
   19loPI   C2A  296   8.709  16.109  10.497 -0.1123  0.0322  0.0698
   19loPI   C3A  297   8.722  16.160   9.981  0.4180 -0.0797  0.1267
   19loPI   C4A  298   8.727  16.227   9.556 -0.1475  0.0982 -0.3271
   19loPI   C5A  299   8.630  16.289   9.102  0.4395 -0.1179  0.1888
   19loPI   C6A  300   8.562  16.397   8.660 -0.1276  0.0919  0.2978
   19loPI   C1B  301   9.249  15.948  10.569  0.0281  0.0544 -0.1439
   19loPI   C2B  302   9.221  16.100  10.069 -0.4378 -0.2381 -0.2723
   19loPI   C3B  303   9.338  16.158   9.677 -0.0510  0.1318 -0.0242
   19loPI   C4B  304   9.180  16.211   9.302 -0.1554 -0.0886  0.1887
   20loPI    C1  305  12.733  12.632  11.908 -0.2294 -0.3144 -0.0136
   20loPI    C2  306  12.337  12.649  11.965 -0.1983 -0.1873  0.1751
   20loPI    C3  307  12.578  12.545  12.266 -0.0829 -0.2035  0.0780
   20loPI   PO4  308  12.704  12.512  11.587  0.0006 -0.0206  0.0177
   20loPI   GL1  309  12.743  12.332  11.191  0.1517 -0.1566 -0.0092
   20loPI   GL2  310  12.912  12.204  11.103 -0.0914 -0.0423  0.0320
   20loPI   C1A  311  12.645  12.525  10.785 -0.0209 -0.0195  0.0539
   20loPI   C2A  312  12.711  12.472  10.427 -0.1749 -0.0944  0.1149
   20loPI   C3A  313  12.778  12.556  10.033  0.0066 -0.0504 -0.1849
   20loPI   C4A  314  12.776  12.647   9.626  0.0699 -0.0636  0.2053
   20loPI   C5A  315  12.939  12.742   9.222  0.1069 -0.1766 -0.0438
   20loPI   C6A  316  13.292  12.666   8.919 -0.0207  0.0461  0.2488
   20loPI   C1B  317  13.059  12.172  10.605 -0.0494  0.1087 -0.1694
   20loPI   C2B  318  13.186  12.234  10.195  0.4098 -0.0971 -0.0561
   20loPI   C3B  319  13.244  12.197   9.724  0.0035  0.2493 -0.1009
   20loPI   C4B  320  13.272  12.251   9.263  0.0001  0.1062 -0.0161
   21loPI    C1  321   6.973  13.415  11.373 -0.0440 -0.1341 -0.2719
   21loPI    C2  322   7.347  13.447  11.233 -0.0023  0.0857 -0.1154
   21loPI    C3  323   7.263  13.184  11.522 -0.0371 -0.1909 -0.3724
   21loPI   PO4  324   6.838  13.660  11.349  0.0566 -0.0914  0.0868
   21loPI   GL1  325   6.958  13.878  11.065 -0.1115  0.0833 -0.1317
   21loPI   GL2  326   6.756  13.954  10.845  0.4420  0.2844  0.0200
   21loPI   C1A  327   7.176  13.601  10.766  0.0461 -0.0986 -0.1291
   21loPI   C2A  328   7.216  13.507  10.329 -0.1626 -0.1172 -0.3356
   21loPI   C3A  329   7.231  13.616   9.850 -0.0118 -0.5283 -0.1178
   21loPI   C4A  330   7.193  13.624   9.418 -0.4115 -0.0112 -0.1537
   21loPI   C5A  331   7.110  13.589   9.051  0.1670  0.0730  0.0281
   21loPI   C6A  332   7.104  13.429   8.565  0.1217  0.2785 -0.0587
   21loPI   C1B  333   6.641  14.166  10.315  0.3834  0.1905 -0.0470
   21loPI   C2B  334   6.620  14.170   9.907  0.1552  0.2250  0.4862
   21loPI   C3B  335   6.428  14.314   9.523  0.0217 -0.1101  0.0343
   21loPI   C4B  336   6.464  14.182   9.078 -0.0041 -0.2891 -0.2109
   22loPI    C1  337  13.374   7.338  11.628 -0.0868  0.2700  0.0221
   22loPI    C2  338  13.483   7.722  11.652 -0.1965  0.2905  0.2173
   22loPI    C3  339  13.525   7.483  11.970  0.0937  0.0794  0.0254
   22loPI   PO4  340  13.396   7.268  11.367 -0.0618  0.0430  0.0567
   22loPI   GL1  341  13.636   7.431  11.060  0.1462 -0.3693 -0.1812
   22loPI   GL2  342  13.684   7.701  10.805  0.1654 -0.1947 -0.0366
   22loPI   C1A  343  13.915   7.015  10.954  0.2311  0.0820  0.2903
   22loPI   C2A  344  14.053   6.896  10.555  0.2753 -0.0402 -0.0791
   22loPI   C3A  345  14.116   6.762  10.125 -0.1924  0.0480  0.0229
   22loPI   C4A  346  14.144   6.854   9.730  0.1718  0.0917 -0.3913
   22loPI   C5A  347  14.192   6.861   9.290  0.0130 -0.0216 -0.0459
   22loPI   C6A  348  13.937   6.765   8.977 -0.0034 -0.1856  0.0217
   22loPI   C1B  349  13.724   7.736  10.396  0.1088  0.0693 -0.2010
   22loPI   C2B  350  13.784   7.690   9.990  0.2300 -0.1403  0.0323
   22loPI   C3B  351  13.775   7.688   9.600 -0.1771 -0.0684 -0.2124
   22loPI   C4B  352  13.586   7.746   9.252 -0.2621 -0.2215 -0.1150
   23loPI    C1  353   8.766  13.263  11.740  0.0893 -0.1842  0.2568
   23loPI    C2  354   8.938  13.565  11.939 -0.1723  0.0127  0.1892
   23loPI    C3  355   8.651  13.348  12.114 -0.0972 -0.0943  0.1801
   23loPI   PO4  356   8.659  13.338  11.569 -0.0266 -0.0000 -0.1448
   23loPI   GL1  357   8.674  13.335  11.175 -0.0742 -0.1329 -0.0430
   23loPI   GL2  358   8.631  13.055  11.177  0.1905  0.1295  0.0551
   23loPI   C1A  359   8.892  13.364  10.713  0.1254  0.0624  0.2957
   23loPI   C2A  360   8.863  13.295  10.264  0.2229 -0.0789  0.1764
   23loPI   C3A  361   8.851  13.231   9.908 -0.0499 -0.1640 -0.1237
   23loPI   C4A  362   8.691  13.324   9.438  0.1810 -0.1510  0.1805
   23loPI   C5A  363   8.742  13.364   9.062  0.2996 -0.1979 -0.2264
   23loPI   C6A  364   8.439  13.627   8.836 -0.1972  0.0554  0.1526
   23loPI   C1B  365   8.539  12.954  10.749 -0.1878  0.3575  0.0068
   23loPI   C2B  366   8.458  12.854  10.323  0.3067 -0.1937 -0.1770
   23loPI   C3B  367   8.483  12.771   9.911 -0.0490 -0.2860 -0.1527
   23loPI   C4B  368   8.343  12.968   9.510 -0.1745 -0.0421 -0.2129
   24loPI    C1  369   3.269  15.868  11.452  0.1568 -0.0617 -0.1375
   24loPI    C2  370   3.358  16.254  11.393  0.4150 -0.1203 -0.1431
   24loPI    C3  371   3.444  16.080  11.743 -0.1354 -0.0521  0.0346
   24loPI   PO4  372   3.050  15.887  11.387  0.2796  0.0201 -0.2003
   24loPI   GL1  373   3.174  16.060  10.973 -0.1539 -0.0395  0.1078
   24loPI   GL2  374   2.960  16.364  11.027 -0.0991  0.1213  0.1967
   24loPI   C1A  375   3.285  16.096  10.530 -0.2932  0.1482 -0.4135
   24loPI   C2A  376   3.255  16.073  10.050  0.0418  0.1035 -0.0529
   24loPI   C3A  377   3.305  16.150   9.575  0.1818  0.0100 -0.0710
   24loPI   C4A  378   3.419  16.156   9.192  0.0129 -0.2067  0.2479
   24loPI   C5A  379   3.199  16.049   8.802 -0.2023  0.2226  0.0455
   24loPI   C6A  380   2.744  16.025   8.479  0.0427  0.2911  0.2175
   24loPI   C1B  381   2.888  16.419  10.604 -0.0751  0.0195 -0.0034
   24loPI   C2B  382   2.862  16.419  10.136  0.0302 -0.2873 -0.2904
   24loPI   C3B  383   2.825  16.357   9.744 -0.0695  0.0542  0.1539
   24loPI   C4B  384   2.850  16.469   9.374 -0.0699  0.3529 -0.3638
   25loPI    C1  385   5.729  12.724  11.848 -0.1125  0.1121 -0.2067
   25loPI    C2  386   5.569  13.016  12.070 -0.0784 -0.0542  0.0414
   25loPI    C3  387   5.805  12.742  12.241  0.0446 -0.1175 -0.2245
   25loPI   PO4  388   5.884  12.775  11.651  0.2251  0.0995  0.4121
   25loPI   GL1  389   6.106  12.678  11.205 -0.0410  0.2500 -0.0101
   25loPI   GL2  390   5.973  12.335  11.104 -0.2378 -0.2599 -0.2437
   25loPI   C1A  391   6.228  12.589  10.730  0.0836  0.0012  0.1303
   25loPI   C2A  392   6.357  12.394  10.395  0.0700 -0.2466  0.2590
   25loPI   C3A  393   6.285  12.264   9.961  0.0645 -0.0816 -0.1594
   25loPI   C4A  394   6.343  11.953   9.643 -0.2482  0.2030  0.2990
   25loPI   C5A  395   6.615  11.868   9.249 -0.3623  0.4595  0.0193
   25loPI   C6A  396   7.075  11.730   9.033  0.1133  0.2054 -0.0821
   25loPI   C1B  397   5.919  12.232  10.754  0.0203  0.0218 -0.2627
   25loPI   C2B  398   5.867  12.321  10.339 -0.1134 -0.3579 -0.2728
   25loPI   C3B  399   5.810  12.339   9.843  0.2308 -0.0307  0.5374
   25loPI   C4B  400   6.092  12.396   9.490 -0.1013  0.0741  0.1526
   26loPI    C1  401   3.071   4.338  11.499 -0.1063 -0.2073  0.1358
   26loPI    C2  402   3.157   4.555  11.824 -0.3698  0.1883 -0.0502
   26loPI    C3  403   3.207   4.158  11.829  0.1891  0.2524  0.2746
   26loPI   PO4  404   3.142   4.460  11.259 -0.2888 -0.0329  0.1754
   26loPI   GL1  405   3.227   4.712  10.864 -0.3201 -0.1138 -0.3540
   26loPI   GL2  406   3.341   4.526  10.716  0.0166  0.2108  0.0544
   26loPI   C1A  407   2.919   4.834  10.541  0.2241 -0.2393  0.2046
   26loPI   C2A  408   2.859   4.878  10.187  0.1234 -0.0673 -0.1119
   26loPI   C3A  409   2.929   4.768   9.767 -0.0514  0.2874 -0.1935
   26loPI   C4A  410   2.911   4.742   9.392  0.1700  0.1567 -0.2474
   26loPI   C5A  411   2.744   4.380   9.155  0.2614 -0.1085  0.0333
   26loPI   C6A  412   2.346   4.416   9.088 -0.0429 -0.1882  0.0824
   26loPI   C1B  413   3.250   4.528  10.282 -0.1954 -0.1199  0.2277
   26loPI   C2B  414   3.261   4.402   9.820  0.0257  0.0074 -0.0576
   26loPI   C3B  415   3.301   4.450   9.395  0.3230  0.1802  0.0117
   26loPI   C4B  416   3.225   4.426   9.034 -0.3301 -0.1278 -0.1154
   27loPI    C1  417   6.474  15.453  11.612  0.1291 -0.0137 -0.2143
   27loPI    C2  418   6.635  15.175  11.850  0.1007 -0.1291 -0.3291
   27loPI    C3  419   6.407  15.464  12.006  0.2219 -0.1045 -0.1957
   27loPI   PO4  420   6.664  15.489  11.440 -0.2034 -0.1113 -0.0871
   27loPI   GL1  421   6.959  15.745  11.113 -0.0218 -0.1912  0.3636
   27loPI   GL2  422   6.720  15.881  10.900  0.2578  0.1684  0.3165
   27loPI   C1A  423   7.120  15.596  10.742  0.1931 -0.0735 -0.2223
   27loPI   C2A  424   7.053  15.472  10.313  0.1759  0.2063  0.0072
   27loPI   C3A  425   6.948  15.538   9.875 -0.1116 -0.1142 -0.0754
   27loPI   C4A  426   7.052  15.530   9.391  0.3476 -0.1744  0.0717
   27loPI   C5A  427   6.848  15.506   8.830 -0.1237 -0.3316 -0.0027
   27loPI   C6A  428   6.873  15.146   8.584  0.0450 -0.4159 -0.0278
   27loPI   C1B  429   6.909  15.945  10.461  0.3573 -0.1562 -0.0307
   27loPI   C2B  430   6.752  15.961   9.991  0.1979 -0.0132 -0.1661
   27loPI   C3B  431   6.826  16.033   9.513  0.3751 -0.1921  0.0792
   27loPI   C4B  432   6.811  16.038   9.130 -0.1316 -0.1684  0.2006
   28loPI    C1  433  17.112  13.519  11.892 -0.0342  0.0488  0.0898
   28loPI    C2  434  16.810  13.704  12.077 -0.1478 -0.0473  0.0015
   28loPI    C3  435  17.098  13.528  12.292 -0.1414  0.0655  0.0857
   28loPI   PO4  436  17.171  13.655  11.725  0.0263 -0.2984  0.0647
   28loPI   GL1  437  16.984  13.600  11.309 -0.1941  0.1053 -0.2258
   28loPI   GL2  438  17.232  13.761  11.216 -0.0902  0.0537 -0.1272
   28loPI   C1A  439  16.952  13.346  10.878  0.2580 -0.4917  0.2078
   28loPI   C2A  440  16.956  13.335  10.458  0.1362  0.1693 -0.1372
   28loPI   C3A  441  16.985  13.281  10.008  0.2792  0.0625 -0.0286
   28loPI   C4A  442  16.968  13.177   9.642 -0.2524  0.0236 -0.1157
   28loPI   C5A  443  17.189  13.095   9.092  0.2248 -0.1788  0.0946
   28loPI   C6A  444  17.532  12.888   8.920 -0.2012 -0.0222 -0.1127
   28loPI   C1B  445  17.029  13.811  10.866 -0.0183  0.0216 -0.1351
   28loPI   C2B  446  17.036  13.826  10.484 -0.0095 -0.2339 -0.3767
   28loPI   C3B  447  17.068  13.811  10.117 -0.1849 -0.0405 -0.2126
   28loPI   C4B  448  17.129  13.686   9.683  0.4158 -0.1115  0.0232
   29loPI    C1  449   2.919   5.538  11.728 -0.1100  0.1249  0.1777
   29loPI    C2  450   2.875   5.335  12.070  0.0284  0.0816  0.1706
   29loPI    C3  451   2.904   5.734  12.076 -0.1620  0.0959  0.1919
   29loPI   PO4  452   3.137   5.439  11.544 -0.2915 -0.0794 -0.0813
   29loPI   GL1  453   2.962   5.340  11.083  0.0859 -0.1030 -0.2407
   29loPI   GL2  454   3.069   5.193  10.816  0.2339 -0.0785  0.1154
   29loPI   C1A  455   2.719   5.671  10.788 -0.4084  0.0799 -0.0872
   29loPI   C2A  456   2.645   5.698  10.344  0.1433 -0.1375  0.0090
   29loPI   C3A  457   2.598   5.573   9.848 -0.1841 -0.0147 -0.5264
   29loPI   C4A  458   2.573   5.666   9.429 -0.1255 -0.0356  0.1181
   29loPI   C5A  459   2.752   5.797   9.037  0.2465  0.1248 -0.0516
   29loPI   C6A  460   2.973   5.635   8.725  0.0988  0.1289 -0.0938
   29loPI   C1B  461   3.051   5.389  10.517  0.1839  0.1024  0.1453
   29loPI   C2B  462   3.017   5.335  10.014  0.0400  0.0071  0.2367
   29loPI   C3B  463   2.962   5.257   9.575  0.3254 -0.0829 -0.2507
   29loPI   C4B  464   2.869   5.277   9.112 -0.2383 -0.0150 -0.1114
   30loPI    C1  465   2.068  10.349  11.826  0.1487  0.1412 -0.0490
   30loPI    C2  466   1.680  10.446  11.835  0.1022 -0.0094 -0.3159
   30loPI    C3  467   1.919  10.547  12.140 -0.1869 -0.0879 -0.0586
   30loPI   PO4  468   2.103  10.384  11.615  0.0293 -0.0429 -0.1792
   30loPI   GL1  469   2.268  10.549  11.293 -0.1263  0.1480  0.0513
   30loPI   GL2  470   2.657  10.445  11.142 -0.3538  0.1530 -0.1885
   30loPI   C1A  471   2.188  10.736  10.934  0.0238 -0.0403 -0.2493
   30loPI   C2A  472   2.039  10.736  10.597 -0.2662  0.0966  0.2257
   30loPI   C3A  473   2.050  10.776  10.176  0.2218 -0.0852 -0.2174
   30loPI   C4A  474   1.905  10.757   9.740  0.0629  0.2771  0.0414
   30loPI   C5A  475   1.724  11.057   9.388  0.0587  0.0162 -0.0137
   30loPI   C6A  476   1.560  11.432   9.327 -0.0525 -0.0718  0.0359
   30loPI   C1B  477   2.495  10.517  10.696 -0.1425  0.1957 -0.0777
   30loPI   C2B  478   2.470  10.500  10.271 -0.1630  0.1084  0.0106
   30loPI   C3B  479   2.318  10.355   9.878 -0.2616 -0.0450  0.0478
   30loPI   C4B  480   2.358  10.202   9.359 -0.2122 -0.2077 -0.0958
   31loPI    C1  481  10.919   3.043  11.038 -0.0096 -0.1328  0.1982
   31loPI    C2  482  10.645   3.066  11.329 -0.1057  0.0256  0.0967
   31loPI    C3  483  10.578   2.836  11.009 -0.0635 -0.0357  0.1318
   31loPI   PO4  484  10.951   3.303  10.951  0.1763 -0.3299  0.2137
   31loPI   GL1  485  11.119   3.453  10.560 -0.3266  0.0307  0.1039
   31loPI   GL2  486  11.181   3.174  10.531 -0.0655 -0.0261  0.1717
   31loPI   C1A  487  11.265   3.730  10.179 -0.0597  0.0331 -0.0100
   31loPI   C2A  488  11.216   3.618   9.751 -0.2510 -0.0078  0.2616
   31loPI   C3A  489  11.096   3.284   9.464 -0.1538  0.2274  0.1562
   31loPI   C4A  490  10.935   3.254   9.121 -0.0981  0.1432  0.1268
   31loPI   C5A  491  10.827   3.483   8.836 -0.2334  0.0024  0.2914
   31loPI   C6A  492  10.587   3.873   8.639 -0.0112  0.2591  0.3326
   31loPI   C1B  493  11.030   3.160  10.165  0.1940  0.1710  0.0724
   31loPI   C2B  494  10.884   3.082   9.846 -0.0082 -0.3265  0.2293
   31loPI   C3B  495  10.668   2.998   9.487  0.1746 -0.0014  0.1046
   31loPI   C4B  496  10.514   2.889   9.108 -0.0493  0.1361  0.2006
   32loPI    C1  497   8.072   4.709  11.640 -0.0156  0.0067 -0.0669
   32loPI    C2  498   8.236   4.369  11.771  0.2612  0.0987 -0.1668
   32loPI    C3  499   7.985   4.573  12.006 -0.0115 -0.2397 -0.1551
   32loPI   PO4  500   8.167   4.698  11.301 -0.1035 -0.0664  0.2644
   32loPI   GL1  501   8.089   4.819  10.837 -0.2546 -0.0227  0.0939
   32loPI   GL2  502   8.478   4.766  10.858 -0.0137 -0.1305  0.0158
   32loPI   C1A  503   8.177   4.838  10.410 -0.0892 -0.1856  0.0834
   32loPI   C2A  504   8.140   4.827   9.984 -0.1438  0.0401 -0.0086
   32loPI   C3A  505   8.072   4.904   9.617 -0.0520  0.1280  0.2704
   32loPI   C4A  506   8.034   4.906   9.228  0.3217  0.2716 -0.1099
   32loPI   C5A  507   8.076   4.782   8.816  0.3643 -0.3818 -0.0380
   32loPI   C6A  508   8.012   4.653   8.479 -0.0534  0.0571 -0.3639
   32loPI   C1B  509   8.600   4.687  10.537  0.1043  0.1675  0.0498
   32loPI   C2B  510   8.618   4.761  10.072  0.0870  0.1869  0.1316
   32loPI   C3B  511   8.678   4.910   9.716 -0.0538  0.1740  0.0286
   32loPI   C4B  512   8.687   4.758   9.422  0.1381  0.0400  0.0820
   33loPI    C1  513   8.688   6.129  11.438 -0.0630  0.1496  0.0178
   33loPI    C2  514   8.740   5.798  11.657  0.3284  0.1257 -0.1041
   33loPI    C3  515   8.719   6.155  11.836  0.0034  0.0481  0.0196
   33loPI   PO4  516   8.797   6.032  11.213  0.1137  0.0975  0.0442
   33loPI   GL1  517   8.975   5.811  10.918  0.2623 -0.1463 -0.0195
   33loPI   GL2  518   9.049   5.537  10.796  0.0514 -0.4555 -0.1598
   33loPI   C1A  519   9.067   6.073  10.574  0.0481  0.0648  0.1194
   33loPI   C2A  520   8.960   6.070  10.218 -0.0289 -0.0467 -0.0776
   33loPI   C3A  521   9.012   6.179   9.797  0.1881 -0.1182 -0.2045
   33loPI   C4A  522   9.113   6.187   9.371  0.1403  0.2939  0.0226
   33loPI   C5A  523   9.227   6.100   8.964  0.0684 -0.0941 -0.2304
   33loPI   C6A  524   9.434   6.088   8.632 -0.3641 -0.1465  0.0279
   33loPI   C1B  525   9.141   5.570  10.362 -0.4196 -0.1161 -0.1856
   33loPI   C2B  526   9.233   5.606  10.004  0.1249  0.0439 -0.1351
   33loPI   C3B  527   9.335   5.751   9.635  0.1321 -0.1234 -0.0630
   33loPI   C4B  528   9.244   5.543   9.272  0.1707  0.1885  0.1572
   34loPI    C1  529   3.957   2.574  11.427 -0.1370  0.0748  0.1501
   34loPI    C2  530   4.302   2.604  11.227 -0.1121 -0.1576  0.1562
   34loPI    C3  531   4.211   2.872  11.509  0.0190 -0.0394  0.0873
   34loPI   PO4  532   3.818   2.374  11.198 -0.1822 -0.1339  0.0762
   34loPI   GL1  533   3.960   2.109  10.841  0.2059 -0.2186 -0.0206
   34loPI   GL2  534   3.889   1.798  10.750  0.2679 -0.0547 -0.0012
   34loPI   C1A  535   4.018   2.405  10.535  0.1880 -0.1507 -0.1186
   34loPI   C2A  536   4.052   2.474  10.113 -0.1779  0.0709  0.0593
   34loPI   C3A  537   4.045   2.590   9.727 -0.2190  0.1648  0.2529
   34loPI   C4A  538   3.774   2.622   9.373 -0.0867  0.3532  0.3251
   34loPI   C5A  539   3.750   2.727   8.962  0.0635 -0.0660 -0.0883
   34loPI   C6A  540   3.667   2.953   8.525  0.2364  0.1270 -0.0817
   34loPI   C1B  541   3.823   1.914  10.297 -0.0507  0.3150  0.0332
   34loPI   C2B  542   3.795   2.040   9.952 -0.2361 -0.2177 -0.2110
   34loPI   C3B  543   3.715   2.097   9.618  0.0292 -0.0335  0.4539
   34loPI   C4B  544   3.684   2.177   9.224 -0.2327  0.0250  0.1029
   35loPI    C1  545   7.953   6.361  11.636  0.1280 -0.0747 -0.1564
   35loPI    C2  546   8.225   6.091  11.751  0.0295 -0.0745  0.0832
   35loPI    C3  547   8.339   6.464  11.661  0.1231 -0.1061  0.0693
   35loPI   PO4  548   7.847   6.251  11.416 -0.1297 -0.3101  0.0607
   35loPI   GL1  549   7.909   6.313  10.887 -0.0821 -0.1308  0.0565
   35loPI   GL2  550   7.880   6.636  10.797 -0.2965  0.1292 -0.2926
   35loPI   C1A  551   8.017   6.197  10.516 -0.2610 -0.0937 -0.1824
   35loPI   C2A  552   8.001   6.192  10.146 -0.0815  0.0312  0.3459
   35loPI   C3A  553   8.100   6.213   9.702  0.0987  0.0175 -0.1648
   35loPI   C4A  554   8.028   6.257   9.208  0.0533  0.5247  0.0140
   35loPI   C5A  555   8.230   6.147   8.796 -0.0762  0.2080  0.1537
   35loPI   C6A  556   8.423   5.736   8.577  0.1037  0.1363  0.1127
   35loPI   C1B  557   7.755   6.747  10.410  0.0184  0.0116 -0.0427
   35loPI   C2B  558   7.803   6.761   9.983  0.2558 -0.0070 -0.2472
   35loPI   C3B  559   7.761   6.759   9.555  0.1429  0.1721  0.2852
   35loPI   C4B  560   7.812   6.722   9.070 -0.2168  0.1985  0.0723
   36loPI    C1  561   0.498   0.539  11.983 -0.0715  0.0801 -0.0627
   36loPI    C2  562   0.488   0.784  12.299 -0.1393 -0.0829  0.0632
   36loPI    C3  563   0.192   0.521  12.240 -0.0768 -0.1222 -0.0816
   36loPI   PO4  564   0.491   0.591  11.826  0.1228  0.2690  0.1300
   36loPI   GL1  565   0.506   0.584  11.390 -0.1486  0.2189  0.2132
   36loPI   GL2  566   0.335   0.845  11.411 -0.1068 -0.3551  0.3042
   36loPI   C1A  567   0.407   0.459  11.026  0.0921  0.0444  0.0344
   36loPI   C2A  568   0.431   0.558  10.662 -0.1062 -0.0537 -0.1244
   36loPI   C3A  569   0.349   0.633  10.254 -0.0103 -0.0561 -0.0112
   36loPI   C4A  570   0.208   0.595   9.822  0.1444  0.2009 -0.2272
   36loPI   C5A  571   0.256   0.506   9.374  0.2204  0.0954  0.0838
   36loPI   C6A  572   0.356   0.584   8.988  0.0575  0.0770 -0.2546
   36loPI   C1B  573   0.047   0.899  11.066 -0.0455 -0.0831  0.0783
   36loPI   C2B  574   0.047   0.884  10.621 -0.1435  0.1683  0.0293
   36loPI   C3B  575  -0.088   0.878  10.179  0.0590  0.2487 -0.2569
   36loPI   C4B  576  -0.195   0.892   9.723 -0.2284 -0.2496  0.2721
   37loPI    C1  577  14.387   3.797  11.438 -0.0732 -0.0288  0.1417
   37loPI    C2  578  14.667   3.835  11.721 -0.1487  0.1184  0.1973
   37loPI    C3  579  14.351   4.080  11.718 -0.1414  0.1272 -0.0230
   37loPI   PO4  580  14.518   3.839  11.227  0.0427 -0.3766  0.1292
   37loPI   GL1  581  14.549   4.006  10.919  0.2215 -0.1177  0.1894
   37loPI   GL2  582  14.858   3.784  10.743 -0.2092  0.1392  0.0195
   37loPI   C1A  583  14.424   4.165  10.541 -0.3445 -0.1156  0.5339
   37loPI   C2A  584  14.475   4.072  10.126 -0.1692  0.2721  0.1658
   37loPI   C3A  585  14.556   4.194   9.721  0.1211  0.0301  0.2108
   37loPI   C4A  586  14.524   4.357   9.317 -0.2207 -0.1608 -0.0653
   37loPI   C5A  587  14.566   4.523   8.986  0.0426  0.1918  0.2882
   37loPI   C6A  588  14.558   4.343   8.669 -0.0216 -0.1888 -0.1383
   37loPI   C1B  589  14.873   3.708  10.287 -0.0990 -0.2771  0.0397
   37loPI   C2B  590  14.840   3.831   9.836 -0.0168 -0.1602 -0.1539
   37loPI   C3B  591  14.980   4.069   9.472  0.0143  0.0166  0.1286
   37loPI   C4B  592  14.771   3.998   9.102  0.2959 -0.0746 -0.2081
   38loPI    C1  593  14.151  12.723  11.932 -0.1095  0.1083 -0.2353
   38loPI    C2  594  13.784  12.586  12.018 -0.1235  0.2035 -0.1410
   38loPI    C3  595  14.063  12.603  12.304  0.0256 -0.0871 -0.2649
   38loPI   PO4  596  14.002  13.015  11.765  0.1323 -0.4866  0.1889
   38loPI   GL1  597  13.879  13.139  11.356  0.2074 -0.3143  0.0043
   38loPI   GL2  598  13.673  12.912  11.203 -0.1003 -0.0851 -0.1646
   38loPI   C1A  599  14.166  13.127  10.999 -0.1564 -0.2566 -0.0995
   38loPI   C2A  600  14.117  13.080  10.645  0.2608 -0.3007  0.0038
   38loPI   C3A  601  14.178  13.152  10.187  0.1352  0.0244  0.0189
   38loPI   C4A  602  14.247  13.194   9.752  0.0102 -0.1615  0.1277
   38loPI   C5A  603  14.254  13.117   9.308 -0.1947  0.0452  0.0373
   38loPI   C6A  604  14.556  12.969   8.982  0.2695 -0.1143  0.0384
   38loPI   C1B  605  13.714  12.823  10.814  0.3734  0.0489 -0.3254
   38loPI   C2B  606  13.761  12.865  10.371 -0.1385  0.1031  0.1856
   38loPI   C3B  607  13.795  12.950   9.888 -0.1109 -0.0492 -0.1066
   38loPI   C4B  608  13.812  12.995   9.481 -0.1537  0.1071 -0.0162
   39loPI    C1  609  16.021   1.938  12.142 -0.0512 -0.1330  0.2139
   39loPI    C2  610  15.835   2.235  12.335 -0.0177  0.0271  0.0041
   39loPI    C3  611  16.181   2.090  12.476 -0.0292  0.0938  0.1023
   39loPI   PO4  612  16.000   2.114  11.841  0.0862  0.0916  0.0452
   39loPI   GL1  613  16.109   2.216  11.410  0.2385  0.0950 -0.0468
   39loPI   GL2  614  15.827   2.108  11.257 -0.0838 -0.2569  0.1037
   39loPI   C1A  615  16.141   2.316  10.914 -0.2983  0.0592  0.0223
   39loPI   C2A  616  16.122   2.327  10.428  0.0507 -0.2900  0.2811
   39loPI   C3A  617  16.054   2.308   9.966 -0.0538  0.0268  0.1393
   39loPI   C4A  618  16.015   2.359   9.478 -0.0618  0.4329  0.0507
   39loPI   C5A  619  16.117   2.486   9.222 -0.0120 -0.1563 -0.2608
   39loPI   C6A  620  15.915   2.788   9.039 -0.0000  0.3557  0.3324
   39loPI   C1B  621  15.633   2.204  10.803  0.1978 -0.1036  0.2290
   39loPI   C2B  622  15.664   2.118  10.324 -0.1164  0.1728 -0.0910
   39loPI   C3B  623  15.555   2.150   9.853  0.4203  0.1087  0.0403
   39loPI   C4B  624  15.533   2.180   9.406 -0.0936 -0.1459  0.1332
   40loPI    C1  625   1.814   3.650  11.919  0.0570 -0.1752 -0.0693
   40loPI    C2  626   1.740   3.488  12.277  0.1166 -0.0017  0.0229
   40loPI    C3  627   1.647   3.870  12.208 -0.1143 -0.0989 -0.2243
   40loPI   PO4  628   1.907   3.437  11.815  0.1505  0.1595  0.0104
   40loPI   GL1  629   2.045   3.252  11.503 -0.1547 -0.1245  0.1720
   40loPI   GL2  630   1.934   3.557  11.314  0.1241  0.2646 -0.1322
   40loPI   C1A  631   2.159   3.135  11.088  0.0080  0.0391 -0.0669
   40loPI   C2A  632   2.201   3.104  10.616  0.1293  0.0571 -0.1897
   40loPI   C3A  633   2.083   3.140  10.158 -0.1735  0.1999 -0.1691
   40loPI   C4A  634   1.984   3.104   9.724 -0.0273 -0.1986  0.0938
   40loPI   C5A  635   1.894   3.132   9.359  0.1058 -0.0547 -0.0007
   40loPI   C6A  636   2.185   3.258   9.066  0.1458  0.0284 -0.1367
   40loPI   C1B  637   1.794   3.425  10.847 -0.1882 -0.1768  0.0994
   40loPI   C2B  638   1.831   3.456  10.436  0.1424  0.2043  0.0955
   40loPI   C3B  639   1.721   3.465  10.070  0.1639 -0.1935  0.2698
   40loPI   C4B  640   1.599   3.412   9.622 -0.2967  0.0658 -0.2343
   41loPI    C1  641   8.186  15.870  11.687 -0.0585  0.2096  0.0929
   41loPI    C2  642   7.927  16.147  11.813 -0.2678  0.1335 -0.1618
   41loPI    C3  643   7.840  15.758  11.854 -0.1010  0.1059 -0.0620
   41loPI   PO4  644   8.280  15.878  11.466  0.2671  0.1514 -0.3504
   41loPI   GL1  645   8.301  15.921  11.065  0.0583 -0.0232  0.2585
   41loPI   GL2  646   7.930  15.912  11.034 -0.0315 -0.1817  0.1443
   41loPI   C1A  647   8.443  15.736  10.705  0.3137 -0.0729 -0.0384
   41loPI   C2A  648   8.402  15.747  10.333  0.1790 -0.0014 -0.2298
   41loPI   C3A  649   8.328  15.720   9.957  0.0133  0.0456 -0.2967
   41loPI   C4A  650   8.295  15.858   9.561 -0.0393  0.1210 -0.1277
   41loPI   C5A  651   8.182  15.871   9.117 -0.1209 -0.2384  0.1474
   41loPI   C6A  652   8.112  16.084   8.643  0.0987 -0.3846  0.1094
   41loPI   C1B  653   7.854  15.765  10.669  0.2263  0.2898  0.0706
   41loPI   C2B  654   7.886  15.655  10.185  0.1729  0.1833  0.1459
   41loPI   C3B  655   7.831  15.772   9.782 -0.1795  0.0676  0.1671
   41loPI   C4B  656   7.789  15.952   9.414  0.2122 -0.0945  0.1546
   42loPI    C1  657   4.226  12.316  11.756  0.0440 -0.0048 -0.3653
   42loPI    C2  658   4.290  11.953  11.601  0.2229 -0.0362 -0.2207
   42loPI    C3  659   4.415  12.037  11.972 -0.1507  0.0554 -0.1115
   42loPI   PO4  660   4.304  12.475  11.517  0.1452 -0.3092 -0.1613
   42loPI   GL1  661   4.214  12.671  11.121  0.3126 -0.2234 -0.0037
   42loPI   GL2  662   4.013  12.430  11.098 -0.1029 -0.0938  0.0393
   42loPI   C1A  663   4.257  13.021  10.810  0.1731 -0.0159  0.3805
   42loPI   C2A  664   4.281  13.142  10.399 -0.1665 -0.1399 -0.0712
   42loPI   C3A  665   4.209  13.063   9.951  0.1584 -0.4116  0.2445
   42loPI   C4A  666   4.195  13.067   9.587 -0.1264  0.2097 -0.1803
   42loPI   C5A  667   4.319  13.006   9.184 -0.2111 -0.2822 -0.3015
   42loPI   C6A  668   4.079  13.166   8.813 -0.0536  0.0759 -0.0962
   42loPI   C1B  669   4.056  12.496  10.681 -0.2285  0.1034  0.0449
   42loPI   C2B  670   4.128  12.674  10.302  0.0188 -0.1606 -0.0508
   42loPI   C3B  671   4.137  12.575   9.835 -0.0592  0.0230  0.0992
   42loPI   C4B  672   4.035  12.586   9.359 -0.1541 -0.0754 -0.0204
   43loPI    C1  673  11.890   8.691  11.581 -0.0453  0.0850 -0.3929
   43loPI    C2  674  11.507   8.576  11.590  0.0656 -0.2782  0.0464
   43loPI    C3  675  11.618   8.919  11.764 -0.0569 -0.1746 -0.0777
   43loPI   PO4  676  11.935   8.725  11.351 -0.1013  0.3496 -0.0064
   43loPI   GL1  677  12.039   8.805  10.983 -0.3687  0.2301  0.2683
   43loPI   GL2  678  11.984   8.542  10.903 -0.0128  0.1841  0.0065
   43loPI   C1A  679  12.239   8.957  10.606 -0.5632 -0.0693 -0.0231
   43loPI   C2A  680  12.193   9.090  10.111  0.3762 -0.0911 -0.1202
   43loPI   C3A  681  12.224   8.987   9.714  0.1734  0.1369  0.2298
   43loPI   C4A  682  12.179   9.066   9.215  0.0197  0.1384  0.1222
   43loPI   C5A  683  12.157   8.845   8.836  0.3282 -0.0437  0.1932
   43loPI   C6A  684  12.142   8.424   8.699  0.2227  0.0558  0.1277
   43loPI   C1B  685  12.042   8.519  10.454  0.1446  0.1012  0.0969
   43loPI   C2B  686  12.060   8.595  10.019  0.0478 -0.1164 -0.1641
   43loPI   C3B  687  12.137   8.428   9.600 -0.3173 -0.0496  0.1036
   43loPI   C4B  688  12.234   8.487   9.146 -0.1256  0.2668 -0.4132
   44loPI    C1  689   1.665  10.029  12.055 -0.2885  0.0085  0.0078
   44loPI    C2  690   1.323   9.854  12.166 -0.2536  0.0083  0.1163
   44loPI    C3  691   1.666   9.755  12.346 -0.1841 -0.0468 -0.0439
   44loPI   PO4  692   1.700   9.967  11.821 -0.0201  0.0887 -0.2105
   44loPI   GL1  693   1.462  10.203  11.486  0.1133 -0.0358 -0.0471
   44loPI   GL2  694   1.749  10.129  11.328  0.0581 -0.0635 -0.2653
   44loPI   C1A  695   1.391  10.115  11.004  0.0722 -0.1665 -0.0451
   44loPI   C2A  696   1.307  10.106  10.662 -0.1416 -0.3566 -0.0647
   44loPI   C3A  697   1.389  10.135  10.158  0.3450  0.0510 -0.2794
   44loPI   C4A  698   1.406  10.037   9.745 -0.2156  0.0870 -0.0390
   44loPI   C5A  699   1.446  10.174   9.277  0.0282  0.0432 -0.1087
   44loPI   C6A  700   1.345  10.573   9.198 -0.0244 -0.0282  0.0045
   44loPI   C1B  701   1.882  10.347  10.936  0.0836  0.0379  0.4469
   44loPI   C2B  702   1.758  10.213  10.555  0.0500 -0.4743 -0.2507
   44loPI   C3B  703   1.877  10.322  10.142 -0.0516 -0.0114  0.1530
   44loPI   C4B  704   1.873  10.240   9.732 -0.0128  0.2677 -0.3055
   45loPI    C1  705   0.102   2.642  11.675  0.1737  0.0619  0.0358
   45loPI    C2  706   0.147   2.969  11.900 -0.3842  0.0370  0.1985
   45loPI    C3  707  -0.150   2.712  11.978 -0.2210 -0.2831 -0.2006
   45loPI   PO4  708   0.117   2.727  11.434 -0.0690 -0.4957  0.3779
   45loPI   GL1  709   0.226   2.888  11.050 -0.3316 -0.1006  0.3138
   45loPI   GL2  710   0.006   3.245  11.044 -0.1450 -0.4890 -0.0538
   45loPI   C1A  711   0.313   2.933  10.615  0.3222 -0.2194 -0.1229
   45loPI   C2A  712   0.217   2.952  10.159 -0.0743  0.1429  0.2509
   45loPI   C3A  713   0.149   2.972   9.628  0.0357  0.4793 -0.0318
   45loPI   C4A  714   0.304   2.918   9.247  0.2775 -0.0709  0.0393
   45loPI   C5A  715   0.054   2.893   8.842  0.1337 -0.0204  0.0734
   45loPI   C6A  716  -0.140   3.188   8.888  0.0974 -0.1036  0.2315
   45loPI   C1B  717  -0.133   3.190  10.705  0.3609 -0.1239 -0.0289
   45loPI   C2B  718  -0.240   3.266  10.215  0.0802  0.1045 -0.1722
   45loPI   C3B  719  -0.220   3.295   9.778  0.0205  0.3809  0.0488
   45loPI   C4B  720  -0.188   3.393   9.345  0.2409  0.2651 -0.4249
   46loPI    C1  721  14.031  11.644  11.767  0.0526  0.2283  0.1191
   46loPI    C2  722  14.320  11.385  11.670 -0.1093  0.0513  0.1033
   46loPI    C3  723  14.359  11.616  11.994  0.0394  0.0124  0.1138
   46loPI   PO4  724  13.925  11.685  11.492 -0.0058  0.0660  0.1120
   46loPI   GL1  725  13.703  11.913  11.236  0.1022  0.2202 -0.0209
   46loPI   GL2  726  13.349  11.935  11.307  0.0885 -0.0567  0.2937
   46loPI   C1A  727  14.008  12.032  10.838  0.3351  0.0916 -0.0432
   46loPI   C2A  728  13.998  12.027  10.320 -0.0224  0.1504 -0.0297
   46loPI   C3A  729  14.022  12.088   9.977 -0.0395 -0.1598  0.1241
   46loPI   C4A  730  14.089  12.183   9.589 -0.1158 -0.0815 -0.0948
   46loPI   C5A  731  14.012  12.039   9.168 -0.0731 -0.1896 -0.0349
   46loPI   C6A  732  13.966  11.625   9.149 -0.1390 -0.0117  0.3339
   46loPI   C1B  733  13.372  11.852  10.833 -0.1269 -0.1400  0.0893
   46loPI   C2B  734  13.477  11.857  10.432 -0.0394  0.0346  0.0755
   46loPI   C3B  735  13.581  11.912   9.929  0.2808  0.1162  0.0881
   46loPI   C4B  736  13.607  11.944   9.472  0.2683 -0.2256  0.0713
   47loPI    C1  737   9.267  13.275  11.627 -0.1522 -0.0007 -0.0184
   47loPI    C2  738   9.528  13.228  11.927 -0.1908  0.0962  0.0310
   47loPI    C3  739   9.149  13.107  11.971 -0.1697  0.0106 -0.0190
   47loPI   PO4  740   9.360  13.187  11.435  0.1719 -0.1799  0.1984
   47loPI   GL1  741   9.145  13.194  11.116  0.2681 -0.1315  0.0231
   47loPI   GL2  742   9.449  13.209  10.902 -0.0255 -0.1784  0.0764
   47loPI   C1A  743   9.033  12.880  10.831 -0.2940  0.2283  0.0063
   47loPI   C2A  744   8.941  12.819  10.429  0.0683  0.1659  0.4493
   47loPI   C3A  745   8.957  12.717  10.039  0.2451 -0.3718 -0.1451
   47loPI   C4A  746   8.880  12.838   9.601  0.2007  0.2865  0.2496
   47loPI   C5A  747   8.768  12.930   9.195 -0.0362  0.1249 -0.2063
   47loPI   C6A  748   8.897  12.981   8.779 -0.3568 -0.1072 -0.1886
   47loPI   C1B  749   9.315  13.167  10.447 -0.0112  0.0929 -0.0352
   47loPI   C2B  750   9.329  13.053   9.985  0.0759  0.0179  0.0001
   47loPI   C3B  751   9.267  13.190   9.603  0.0496 -0.1154 -0.0709
   47loPI   C4B  752   9.183  13.201   9.140  0.0088  0.4407  0.0664
   48loPI    C1  753   9.707   6.467  11.236  0.2512 -0.1107  0.0640
   48loPI    C2  754   9.682   6.490  11.634 -0.2899  0.0731  0.0277
   48loPI    C3  755   9.627   6.139  11.450  0.2655 -0.0740  0.1257
   48loPI   PO4  756   9.856   6.689  11.141 -0.0665 -0.2601  0.1047
   48loPI   GL1  757   9.705   6.864  10.733  0.1497  0.2579 -0.2374
   48loPI   GL2  758   9.450   6.610  10.830  0.2298 -0.2068  0.1612
   48loPI   C1A  759   9.625   6.868  10.280 -0.3392  0.0543  0.2451
   48loPI   C2A  760   9.625   6.862   9.828 -0.1334  0.1539  0.1757
   48loPI   C3A  761   9.759   6.915   9.492  0.2480 -0.0763 -0.3476
   48loPI   C4A  762   9.797   7.166   9.092 -0.2679  0.3176  0.1789
   48loPI   C5A  763   9.657   6.853   8.874 -0.1201 -0.1292 -0.2540
   48loPI   C6A  764   9.818   6.415   8.709 -0.0508  0.0634  0.1868
   48loPI   C1B  765   9.324   6.523  10.437  0.3004 -0.2213 -0.0952
   48loPI   C2B  766   9.330   6.494  10.008 -0.2828  0.3045 -0.1711
   48loPI   C3B  767   9.375   6.553   9.578 -0.2580  0.3165  0.1722
   48loPI   C4B  768   9.513   6.500   9.207  0.2005  0.0431  0.2271
   49loPI    C1  769   6.523  11.330  11.623 -0.0241  0.0095 -0.0962
   49loPI    C2  770   6.431  11.719  11.630  0.1155  0.0439 -0.1412
   49loPI    C3  771   6.424  11.506  11.969  0.0682  0.0921 -0.1115
   49loPI   PO4  772   6.711  11.296  11.404  0.0822 -0.1389  0.0752
   49loPI   GL1  773   6.736  11.260  10.960  0.1565 -0.0644 -0.0292
   49loPI   GL2  774   7.100  11.308  11.028  0.2337  0.0800 -0.4208
   49loPI   C1A  775   6.664  11.047  10.651  0.1688 -0.1181  0.0741
   49loPI   C2A  776   6.765  10.816  10.318  0.1578  0.2918 -0.3203
   49loPI   C3A  777   6.651  10.828   9.925  0.3187 -0.4095 -0.2009
   49loPI   C4A  778   6.793  10.880   9.489  0.3446  0.0822 -0.0381
   49loPI   C5A  779   6.451  10.968   9.178 -0.1543 -0.1842 -0.2580
   49loPI   C6A  780   6.358  10.993   8.730  0.2792 -0.0647  0.0419
   49loPI   C1B  781   7.096  11.245  10.550  0.4872 -0.0200  0.0958
   49loPI   C2B  782   6.955  11.301  10.203  0.1974 -0.2530 -0.0086
   49loPI   C3B  783   7.053  11.291   9.781  0.0945  0.0127 -0.1497
   49loPI   C4B  784   7.199  11.241   9.300  0.0992  0.1797 -0.0359
   50loPI    C1  785  16.595  14.980  11.849 -0.0565  0.2368  0.0143
   50loPI    C2  786  16.233  14.836  11.936  0.0141  0.0259 -0.0354
   50loPI    C3  787  16.465  14.982  12.227 -0.0237 -0.0427  0.0296
   50loPI   PO4  788  16.584  14.936  11.491  0.0192 -0.3050 -0.1026
   50loPI   GL1  789  16.434  14.987  11.159 -0.2665  0.0168 -0.1486
   50loPI   GL2  790  16.208  15.139  11.066 -0.1739  0.2949 -0.2011
   50loPI   C1A  791  16.656  15.196  10.835 -0.2962 -0.0838  0.1141
   50loPI   C2A  792  16.729  15.214  10.380 -0.2930  0.3608  0.0984
   50loPI   C3A  793  16.830  15.228   9.906 -0.1037 -0.0123  0.0961
   50loPI   C4A  794  16.803  15.158   9.424  0.0638  0.4856 -0.4022
   50loPI   C5A  795  16.866  14.961   9.093  0.0383 -0.2034  0.1360
   50loPI   C6A  796  16.731  14.880   8.634 -0.0460  0.0899  0.0419
   50loPI   C1B  797  16.307  15.020  10.547 -0.2229  0.2644  0.0417
   50loPI   C2B  798  16.275  15.096  10.064  0.1876  0.1696 -0.1776
   50loPI   C3B  799  16.336  14.996   9.541 -0.0472 -0.0945 -0.0703
   50loPI   C4B  800  16.384  15.102   9.194 -0.3454  0.1839 -0.0569
   51loPI    C1  801   5.689   0.392  11.516 -0.3011  0.2305  0.1415
   51loPI    C2  802   5.402   0.116  11.543 -0.0327 -0.0659  0.0229
   51loPI    C3  803   5.669   0.155  11.837 -0.0730  0.0728  0.0417
   51loPI   PO4  804   5.798   0.392  11.194  0.0428  0.1182  0.1975
   51loPI   GL1  805   5.569   0.585  10.940 -0.0444 -0.1277  0.0678
   51loPI   GL2  806   5.709   0.869  10.974 -0.0855  0.2036 -0.2702
   51loPI   C1A  807   5.512   0.646  10.510  0.0917 -0.3224 -0.1167
   51loPI   C2A  808   5.469   0.558  10.021 -0.0008  0.2890 -0.0543
   51loPI   C3A  809   5.510   0.577   9.627 -0.0648 -0.0992  0.3650
   51loPI   C4A  810   5.524   0.648   9.247 -0.0620 -0.1133 -0.0310
   51loPI   C5A  811   5.776   0.816   8.934 -0.1730 -0.1651 -0.1014
   51loPI   C6A  812   6.055   0.797   8.566 -0.0692 -0.2278 -0.0152
   51loPI   C1B  813   5.866   0.949  10.558 -0.0770 -0.0166 -0.0875
   51loPI   C2B  814   5.896   0.972  10.154 -0.0368 -0.1191  0.3535
   51loPI   C3B  815   5.821   0.969   9.784  0.0875 -0.0134 -0.0481
   51loPI   C4B  816   5.917   1.047   9.336 -0.3708 -0.2308 -0.0212
   52loPI    C1  817   3.321  11.895  12.091 -0.2294  0.0526 -0.0019
   52loPI    C2  818   3.090  11.585  12.197 -0.2102  0.0836  0.1318
   52loPI    C3  819   3.312  11.773  12.472 -0.2063  0.2036  0.0473
   52loPI   PO4  820   3.405  11.859  11.819 -0.2485 -0.1090 -0.3157
   52loPI   GL1  821   3.149  11.915  11.419  0.0019  0.0999  0.0295
   52loPI   GL2  822   3.061  11.659  11.202  0.1604  0.2774  0.2318
   52loPI   C1A  823   3.030  12.127  11.031  0.0193 -0.0700  0.1518
   52loPI   C2A  824   3.122  12.159  10.567 -0.0729 -0.2895  0.0752
   52loPI   C3A  825   3.218  12.198  10.137  0.0089 -0.2203  0.0379
   52loPI   C4A  826   3.098  12.257   9.675 -0.1371  0.0020  0.0187
   52loPI   C5A  827   3.222  11.992   9.322 -0.3046 -0.2105 -0.3050
   52loPI   C6A  828   3.190  11.680   8.958 -0.2482 -0.2046 -0.1263
   52loPI   C1B  829   3.039  11.702  10.798  0.0536 -0.2196 -0.0385
   52loPI   C2B  830   3.066  11.618  10.356 -0.1855  0.1862 -0.1814
   52loPI   C3B  831   3.040  11.693   9.975  0.2037 -0.1141  0.0622
   52loPI   C4B  832   2.979  11.557   9.557 -0.0629  0.0482 -0.2233
   53loPI    C1  833   6.405   2.836  11.749  0.1120 -0.2501 -0.0235
   53loPI    C2  834   6.654   3.104  11.910 -0.0468 -0.0979 -0.0280
   53loPI    C3  835   6.345   2.966  12.123  0.0478 -0.2975 -0.0172
   53loPI   PO4  836   6.372   2.971  11.476 -0.1108 -0.2443 -0.2405
   53loPI   GL1  837   6.166   2.812  11.049 -0.3139 -0.0779 -0.0220
   53loPI   GL2  838   6.348   3.127  10.955  0.2858  0.2854  0.3188
   53loPI   C1A  839   5.976   2.717  10.668  0.0787  0.2052 -0.2101
   53loPI   C2A  840   5.930   2.723  10.260 -0.2447  0.0331  0.2372
   53loPI   C3A  841   5.977   2.752   9.905  0.0555 -0.3633 -0.1907
   53loPI   C4A  842   6.074   2.893   9.448 -0.2501  0.2337  0.1559
   53loPI   C5A  843   6.125   2.765   8.997 -0.0264  0.0831  0.2547
   53loPI   C6A  844   6.265   2.754   8.589  0.0238 -0.1035 -0.3100
   53loPI   C1B  845   6.240   3.209  10.491  0.1001 -0.1288 -0.0065
   53loPI   C2B  846   6.253   3.239  10.048 -0.0928  0.0798 -0.3164
   53loPI   C3B  847   6.313   3.377   9.622 -0.0048  0.1064 -0.0691
   53loPI   C4B  848   6.376   3.276   9.220  0.1551 -0.1977  0.2481
   54loPI    C1  849  14.400   9.264  11.812 -0.3710  0.0444 -0.2868
   54loPI    C2  850  14.214   9.052  12.096 -0.0616  0.0285 -0.0914
   54loPI    C3  851  14.442   9.364  12.197  0.0655  0.0127 -0.3211
   54loPI   PO4  852  14.178   9.255  11.576 -0.1381  0.0925  0.1754
   54loPI   GL1  853  14.064   9.299  11.142 -0.2579  0.1213 -0.2660
   54loPI   GL2  854  13.934   9.128  10.992 -0.0512 -0.0367 -0.0236
   54loPI   C1A  855  14.024   9.630  10.811  0.0021 -0.2488  0.0539
   54loPI   C2A  856  14.111   9.728  10.348  0.1528 -0.2361  0.1322
   54loPI   C3A  857  14.083   9.731   9.894  0.1127 -0.3054 -0.4141
   54loPI   C4A  858  14.194   9.923   9.468 -0.2300  0.1861  0.0184
   54loPI   C5A  859  14.353   9.828   8.981  0.1141 -0.1213  0.0786
   54loPI   C6A  860  14.695   9.809   8.769 -0.1294 -0.0393  0.0626
   54loPI   C1B  861  13.974   9.253  10.518 -0.2085  0.1602  0.1832
   54loPI   C2B  862  14.009   9.200  10.105  0.0357  0.0894  0.0361
   54loPI   C3B  863  13.990   9.316   9.649  0.1682 -0.0154 -0.0590
   54loPI   C4B  864  14.140   9.393   9.243  0.2617  0.1188 -0.2348
   55loPI    C1  865   7.379   6.408  11.643  0.0923  0.0232  0.1091
   55loPI    C2  866   7.279   6.763  11.797 -0.2876 -0.0184 -0.0301
   55loPI    C3  867   7.574   6.549  11.963 -0.0108  0.3866  0.0159
   55loPI   PO4  868   7.204   6.399  11.406  0.0578 -0.2835  0.0401
   55loPI   GL1  869   7.159   6.438  11.006  0.3752 -0.1265 -0.0133
   55loPI   GL2  870   7.322   6.425  10.864 -0.1766  0.1937  0.3384
   55loPI   C1A  871   6.869   6.327  10.653  0.2855  0.0860 -0.1933
   55loPI   C2A  872   6.935   6.396  10.266 -0.0989 -0.2541 -0.0645
   55loPI   C3A  873   6.952   6.484   9.716 -0.1413 -0.0126 -0.0381
   55loPI   C4A  874   6.926   6.417   9.344  0.0227 -0.0413 -0.2096
   55loPI   C5A  875   6.870   6.454   8.882  0.0209 -0.0849 -0.1626
   55loPI   C6A  876   6.633   6.430   8.453 -0.1624 -0.1331  0.1358
   55loPI   C1B  877   7.556   6.249  10.524  0.1914  0.1270  0.1126
   55loPI   C2B  878   7.499   6.295  10.129 -0.0075  0.2333 -0.0628
   55loPI   C3B  879   7.557   6.311   9.726  0.1023 -0.2359  0.1443
   55loPI   C4B  880   7.499   6.290   9.320 -0.0998 -0.0729 -0.1492
   56loPI    C1  881   1.691  15.643  11.808  0.0388  0.2015  0.4145
   56loPI    C2  882   1.507  15.319  11.954  0.0368 -0.0046 -0.0291
   56loPI    C3  883   1.540  15.648  12.178 -0.4097 -0.1385  0.2462
   56loPI   PO4  884   1.865  15.620  11.651  0.0935  0.0324  0.1284
   56loPI   GL1  885   1.898  15.573  11.248 -0.1303  0.0821  0.3391
   56loPI   GL2  886   2.123  15.356  11.273  0.2634 -0.0411 -0.0511
   56loPI   C1A  887   1.773  15.592  10.761 -0.0465  0.1473  0.0228
   56loPI   C2A  888   1.875  15.618  10.361  0.1503  0.0202 -0.0436
   56loPI   C3A  889   1.802  15.558   9.954  0.1928 -0.0275  0.0267
   56loPI   C4A  890   1.787  15.569   9.551 -0.2258 -0.1770 -0.4254
   56loPI   C5A  891   1.862  15.530   9.139  0.1325 -0.1711  0.1762
   56loPI   C6A  892   2.199  15.359   8.913 -0.2767  0.2496 -0.2775
   56loPI   C1B  893   2.167  15.273  10.825 -0.2410  0.2101  0.0751
   56loPI   C2B  894   2.220  15.262  10.348  0.0150  0.0432  0.0431
   56loPI   C3B  895   2.256  15.250   9.914 -0.0322  0.2297 -0.2520
   56loPI   C4B  896   2.208  15.286   9.492  0.1529  0.0634  0.0710
   57loPI    C1  897   1.877  12.322  12.010  0.0700  0.1371  0.0496
   57loPI    C2  898   2.061  12.672  12.071 -0.0524  0.1675  0.2576
   57loPI    C3  899   2.075  12.388  12.351  0.0607 -0.0024  0.0823
   57loPI   PO4  900   1.610  12.415  11.880  0.1560  0.0341 -0.1588
   57loPI   GL1  901   1.527  12.362  11.454  0.0031 -0.0757 -0.2161
   57loPI   GL2  902   1.264  12.507  11.253 -0.1376 -0.0266 -0.0624
   57loPI   C1A  903   1.695  12.238  11.025  0.0637  0.0300  0.0472
   57loPI   C2A  904   1.758  12.120  10.552  0.1043  0.0165 -0.0059
   57loPI   C3A  905   1.742  12.182  10.099  0.0642  0.1559  0.0449
   57loPI   C4A  906   1.771  12.177   9.700  0.1547  0.0639  0.0275
   57loPI   C5A  907   1.732  11.932   9.353  0.1887  0.0883 -0.0062
   57loPI   C6A  908   2.007  11.639   9.158 -0.1143 -0.1070 -0.2292
   57loPI   C1B  909   1.323  12.558  10.808  0.1285 -0.2062 -0.1125
   57loPI   C2B  910   1.317  12.480  10.294  0.1997 -0.1226  0.1224
   57loPI   C3B  911   1.353  12.513   9.828  0.2005 -0.0203 -0.1107
   57loPI   C4B  912   1.477  12.416   9.371  0.1785  0.2824  0.0434
   58loPI    C1  913  10.289  11.350  11.651 -0.0757  0.1172 -0.0701
   58loPI    C2  914  10.119  11.037  11.834 -0.3272  0.2637 -0.0489
   58loPI    C3  915  10.407  11.245  12.018 -0.2295  0.1070 -0.0228
   58loPI   PO4  916  10.359  11.340  11.410 -0.1280  0.0067  0.0994
   58loPI   GL1  917  10.237  11.617  11.094 -0.1732 -0.2319  0.1674
   58loPI   GL2  918  10.505  11.821  11.316 -0.2133 -0.1660  0.2923
   58loPI   C1A  919  10.340  11.615  10.606 -0.0634 -0.1116  0.0335
   58loPI   C2A  920  10.378  11.588  10.222 -0.0033 -0.0453  0.2147
   58loPI   C3A  921  10.385  11.743   9.852 -0.3285 -0.1408  0.1804
   58loPI   C4A  922  10.350  11.793   9.473  0.1280  0.2385 -0.1864
   58loPI   C5A  923  10.256  11.677   9.053  0.0115 -0.1232 -0.1653
   58loPI   C6A  924  10.278  11.411   8.697  0.1181 -0.0954  0.2060
   58loPI   C1B  925  10.712  11.856  10.862 -0.4062  0.0475 -0.0464
   58loPI   C2B  926  10.826  11.768  10.486  0.1290  0.1914 -0.1469
   58loPI   C3B  927  10.852  11.850  10.042  0.1634 -0.0151 -0.3260
   58loPI   C4B  928  10.836  11.874   9.664 -0.0788  0.1627  0.1735
   59loPI    C1  929  15.901  11.821  11.836 -0.1441 -0.1146 -0.0015
   59loPI    C2  930  15.634  11.596  12.031 -0.0218 -0.2095  0.0572
   59loPI    C3  931  16.018  11.593  12.143  0.0028 -0.0670 -0.0219
   59loPI   PO4  932  15.901  11.744  11.602 -0.1040  0.0568 -0.2502
   59loPI   GL1  933  16.081  11.407  11.299  0.1255 -0.1847  0.2931
   59loPI   GL2  934  16.003  11.062  11.223  0.1757 -0.1743  0.0130
   59loPI   C1A  935  16.219  11.557  10.878 -0.0118  0.1589 -0.1612
   59loPI   C2A  936  16.172  11.563  10.393  0.1231 -0.3987 -0.2478
   59loPI   C3A  937  16.179  11.633   9.956  0.1853 -0.3706 -0.2571
   59loPI   C4A  938  16.265  11.657   9.522  0.0028 -0.0651 -0.2007
   59loPI   C5A  939  16.366  11.323   9.147  0.1877  0.1731  0.4630
   59loPI   C6A  940  16.198  11.257   8.700 -0.3459  0.2650 -0.4042
   59loPI   C1B  941  16.099  11.113  10.725 -0.3191  0.1108 -0.2260
   59loPI   C2B  942  16.071  11.122  10.299  0.1829 -0.2212  0.1512
   59loPI   C3B  943  16.120  11.031   9.898 -0.3342  0.1935  0.1813
   59loPI   C4B  944  16.155  11.082   9.520 -0.1658 -0.2531 -0.1921
   60loPI    C1  945  16.777  13.181  11.696  0.1420 -0.2426 -0.0999
   60loPI    C2  946  16.535  12.914  11.869  0.2453 -0.2291  0.0674
   60loPI    C3  947  16.756  13.159  12.095  0.1679 -0.0161 -0.0848
   60loPI   PO4  948  16.689  13.322  11.481  0.1809  0.1777 -0.2276
   60loPI   GL1  949  16.546  13.330  11.167 -0.0279 -0.1528 -0.0696
   60loPI   GL2  950  16.492  13.703  11.183 -0.0778  0.1387  0.1325
   60loPI   C1A  951  16.513  13.126  10.828  0.1030 -0.0857  0.2332
   60loPI   C2A  952  16.539  13.088  10.407 -0.4381  0.2642 -0.2808
   60loPI   C3A  953  16.481  13.081   9.899  0.0689 -0.2974  0.0022
   60loPI   C4A  954  16.430  13.035   9.490 -0.1087  0.2083 -0.2386
   60loPI   C5A  955  16.177  13.047   9.050 -0.2513  0.3730 -0.0504
   60loPI   C6A  956  16.051  13.123   8.592 -0.0522  0.1366  0.3581
   60loPI   C1B  957  16.546  13.645  10.708 -0.1258  0.0821 -0.0043
   60loPI   C2B  958  16.568  13.677  10.192  0.0051 -0.3241  0.1626
   60loPI   C3B  959  16.617  13.615   9.789 -0.0946 -0.1105  0.0986
   60loPI   C4B  960  16.677  13.481   9.395 -0.0023  0.1463 -0.1459
   61loPI    C1  961  13.503  10.097  11.777 -0.1928  0.2126 -0.0227
   61loPI    C2  962  13.628   9.772  11.974 -0.1666  0.0209 -0.3482
   61loPI    C3  963  13.435  10.062  12.169  0.1334 -0.0180  0.0184
   61loPI   PO4  964  13.428   9.950  11.503 -0.0773  0.2997  0.0066
   61loPI   GL1  965  13.422   9.952  11.078  0.0194 -0.0598 -0.3042
   61loPI   GL2  966  13.701   9.937  11.079 -0.2185 -0.1290 -0.1968
   61loPI   C1A  967  13.139   9.826  10.658  0.3001  0.0221 -0.1065
   61loPI   C2A  968  13.284   9.895  10.198  0.3094  0.2172  0.2224
   61loPI   C3A  969  13.226   9.889   9.774  0.1548  0.1328 -0.0985
   61loPI   C4A  970  13.291  10.029   9.347  0.2057 -0.1284 -0.0625
   61loPI   C5A  971  13.409  10.506   9.112  0.1703  0.1190 -0.0508
   61loPI   C6A  972  13.853  10.664   9.037  0.2183  0.1208 -0.0744
   61loPI   C1B  973  13.641  10.040  10.592 -0.1488 -0.0703 -0.1406
   61loPI   C2B  974  13.688  10.109  10.075  0.0848  0.3567  0.1379
   61loPI   C3B  975  13.793  10.118   9.712 -0.2232  0.0732  0.2211
   61loPI   C4B  976  13.756  10.175   9.296 -0.0800  0.0165  0.0497
   62loPI    C1  977  10.076  11.955  11.567 -0.2395 -0.1681  0.0249
   62loPI    C2  978  10.317  11.831  11.861 -0.0752  0.0769 -0.0031
   62loPI    C3  979  10.084  12.151  11.916 -0.0852  0.0900 -0.1205
   62loPI   PO4  980   9.937  11.719  11.533  0.2575  0.0068  0.0047
   62loPI   GL1  981   9.649  11.520  11.126 -0.1388 -0.0950  0.0405
   62loPI   GL2  982   9.532  11.242  11.042  0.0306  0.1947  0.1227
   62loPI   C1A  983   9.798  11.593  10.740 -0.1399  0.0285 -0.2710
   62loPI   C2A  984   9.905  11.725  10.328  0.0709  0.6304  0.1346
   62loPI   C3A  985   9.831  11.653   9.879  0.0933  0.0492  0.1022
   62loPI   C4A  986   9.831  11.669   9.398 -0.2134  0.0015  0.0867
   62loPI   C5A  987   9.654  11.779   8.968 -0.1840 -0.0720 -0.3965
   62loPI   C6A  988   9.893  12.162   8.833 -0.0991 -0.2928  0.0626
   62loPI   C1B  989   9.412  11.364  10.558  0.0817  0.2712 -0.2165
   62loPI   C2B  990   9.448  11.416  10.143  0.1349 -0.0769 -0.2080
   62loPI   C3B  991   9.450  11.391   9.648 -0.2461  0.1063  0.0328
   62loPI   C4B  992   9.456  11.328   9.149  0.0820 -0.1759  0.1860
   63loPI    C1  993  13.547   2.199  11.856  0.1000  0.1134  0.0042
   63loPI    C2  994  13.249   2.108  12.107  0.0444  0.0125 -0.0974
   63loPI    C3  995  13.530   2.371  12.216  0.0229 -0.0340  0.0717
   63loPI   PO4  996  13.345   2.255  11.627  0.2069  0.1766  0.1312
   63loPI   GL1  997  13.188   1.994  11.328 -0.2170  0.0885  0.1916
   63loPI   GL2  998  12.904   1.941  11.236  0.1967  0.0162  0.0032
   63loPI   C1A  999  13.171   1.748  10.892  0.1118  0.1050 -0.0036
   63loPI   C2A 1000  13.134   1.757  10.466  0.0416  0.2706 -0.1155
   63loPI   C3A 1001  13.199   1.682  10.111  0.2780  0.2693  0.1345
   63loPI   C4A 1002  13.247   1.751   9.767  0.0432  0.0424  0.1420
   63loPI   C5A 1003  13.315   1.894   9.312  0.0811 -0.0257 -0.0411
   63loPI   C6A 1004  13.317   2.183   8.970  0.0394 -0.2459 -0.1084
   63loPI   C1B 1005  12.741   2.037  10.792 -0.0194  0.0392 -0.2559
   63loPI   C2B 1006  12.804   2.037  10.373 -0.2385 -0.1894 -0.2666
   63loPI   C3B 1007  12.903   2.084   9.917 -0.0801 -0.1560 -0.0450
   63loPI   C4B 1008  12.879   2.094   9.454 -0.0262  0.1468 -0.3390
   64loPI    C1 1009  12.318  16.712  11.952  0.0261 -0.0996 -0.0082
   64loPI    C2 1010  12.482  16.973  12.207  0.0245 -0.1405  0.0348
   64loPI    C3 1011  12.714  16.715  12.009  0.0067 -0.2399  0.1425
   64loPI   PO4 1012  12.173  16.873  11.800 -0.0297  0.1374  0.4135
   64loPI   GL1 1013  12.201  16.828  11.325  0.0379 -0.1115  0.0980
   64loPI   GL2 1014  12.020  16.884  11.180 -0.3162  0.2274 -0.3344
   64loPI   C1A 1015  12.429  16.778  10.925 -0.0330  0.0681  0.1038
   64loPI   C2A 1016  12.488  16.810  10.474  0.0814  0.2516 -0.0108
   64loPI   C3A 1017  12.535  16.872  10.048  0.1030 -0.2111 -0.2445
   64loPI   C4A 1018  12.473  16.803   9.600  0.0231  0.0599  0.1500
   64loPI   C5A 1019  12.526  16.786   9.111 -0.3361  0.1557  0.1118
   64loPI   C6A 1020  12.561  17.138   8.757 -0.2454  0.0439 -0.1480
   64loPI   C1B 1021  12.069  17.040  10.804  0.3845 -0.2272  0.1127
   64loPI   C2B 1022  12.172  17.133  10.437  0.2458 -0.4189  0.0521
   64loPI   C3B 1023  12.158  17.277  10.021  0.3600  0.1650 -0.3046
   64loPI   C4B 1024  12.123  17.161   9.637 -0.0278 -0.3557  0.2128
   65loPI    C1 1025   6.628  12.229  12.148  0.1215 -0.0331  0.0342
   65loPI    C2 1026   6.713  11.839  12.166 -0.0922 -0.0660  0.4626
   65loPI    C3 1027   6.809  12.078  12.471  0.1595  0.2467  0.1462
   65loPI   PO4 1028   6.484  12.236  11.883 -0.1682  0.0224  0.1601
   65loPI   GL1 1029   6.633  12.191  11.414 -0.3470  0.0565  0.3939
   65loPI   GL2 1030   6.496  12.400  11.301 -0.0039  0.0284  0.0950
   65loPI   C1A 1031   6.948  12.268  11.024 -0.1995  0.0303 -0.0327
   65loPI   C2A 1032   6.860  12.259  10.612 -0.1450 -0.2237  0.1774
   65loPI   C3A 1033   6.766  12.242  10.144  0.0311 -0.1553  0.0193
   65loPI   C4A 1034   6.695  12.336   9.732  0.3648 -0.0171 -0.2031
   65loPI   C5A 1035   6.566  12.325   9.333  0.1032  0.0542 -0.0996
   65loPI   C6A 1036   6.329  12.206   8.992  0.3807  0.2253 -0.1038
   65loPI   C1B 1037   6.454  12.236  10.948  0.0099  0.1656 -0.1053
   65loPI   C2B 1038   6.303  11.911  10.724 -0.2002 -0.0688 -0.1646
   65loPI   C3B 1039   6.162  11.912  10.299 -0.0222 -0.0449 -0.1435
   65loPI   C4B 1040   6.130  11.709   9.985 -0.2261 -0.1538  0.0707
   66loPI    C1 1041   1.532  14.538  11.489  0.0255 -0.1175  0.1731
   66loPI    C2 1042   1.220  14.572  11.241 -0.0101 -0.1141  0.2181
   66loPI    C3 1043   1.159  14.520  11.633  0.0459 -0.1576  0.2212
   66loPI   PO4 1044   1.680  14.375  11.353 -0.0042  0.1073  0.1459
   66loPI   GL1 1045   1.536  14.238  10.990  0.0667  0.1502  0.0252
   66loPI   GL2 1046   1.895  14.200  10.969 -0.1959  0.1231  0.1605
   66loPI   C1A 1047   1.123  14.338  10.721 -0.2243 -0.0801  0.2224
   66loPI   C2A 1048   1.120  14.285  10.331 -0.1096  0.0398 -0.1092
   66loPI   C3A 1049   1.169  14.339   9.925  0.1172 -0.0323  0.1055
   66loPI   C4A 1050   1.276  14.389   9.460  0.0722  0.0197 -0.0929
   66loPI   C5A 1051   1.576  14.557   9.160  0.1709  0.1968  0.1009
   66loPI   C6A 1052   1.955  14.421   8.983  0.1040  0.2059 -0.0976
   66loPI   C1B 1053   2.090  14.138  10.634  0.0045 -0.1692 -0.2378
   66loPI   C2B 1054   1.992  14.140  10.226 -0.2914 -0.1193  0.0031
   66loPI   C3B 1055   2.021  14.280   9.861 -0.0032 -0.0911  0.0925
   66loPI   C4B 1056   1.991  14.194   9.501 -0.2069 -0.1771 -0.1073
   67loPI    C1 1057   8.514   3.729  11.356  0.2240 -0.2856  0.2781
   67loPI    C2 1058   8.791   4.016  11.334 -0.0998  0.0164  0.0146
   67loPI    C3 1059   8.541   4.003  11.646 -0.0963  0.0309  0.0180
   67loPI   PO4 1060   8.417   3.737  11.167 -0.3701 -0.0079  0.0575
   67loPI   GL1 1061   8.535   3.627  10.774 -0.0890  0.2076 -0.0370
   67loPI   GL2 1062   8.146   3.368  10.717  0.0347  0.1880  0.0420
   67loPI   C1A 1063   8.475   3.842  10.419  0.0326 -0.4636  0.0611
   67loPI   C2A 1064   8.437   3.941  10.020  0.1563 -0.0332  0.1395
   67loPI   C3A 1065   8.455   3.935   9.523  0.1671 -0.2861 -0.2072
   67loPI   C4A 1066   8.588   4.034   9.086 -0.1648  0.1051  0.1841
   67loPI   C5A 1067   8.470   4.551   9.019  0.1581 -0.1305  0.2622
   67loPI   C6A 1068   8.585   4.952   8.945 -0.0271 -0.1762 -0.1697
   67loPI   C1B 1069   8.148   3.514  10.244 -0.0311  0.1168 -0.0319
   67loPI   C2B 1070   8.096   3.496   9.797  0.1372  0.1807  0.2863
   67loPI   C3B 1071   8.214   3.561   9.320 -0.1223  0.1063 -0.0146
   67loPI   C4B 1072   8.378   3.617   8.995  0.2583  0.2617  0.1813
   68loPI    C1 1073   6.442  10.248  11.688 -0.0514 -0.1347 -0.0843
   68loPI    C2 1074   6.257  10.457  11.974  0.1716  0.1729 -0.1598
   68loPI    C3 1075   6.232  10.058  11.970 -0.0289  0.1792  0.1488
   68loPI   PO4 1076   6.628  10.385  11.623  0.0137 -0.2363  0.3119
   68loPI   GL1 1077   6.784  10.394  11.183  0.3243 -0.1782 -0.0982
   68loPI   GL2 1078   6.682  10.808  11.260  0.0014  0.0234 -0.0723
   68loPI   C1A 1079   6.659  10.365  10.813  0.0027 -0.2385  0.1958
   68loPI   C2A 1080   6.621  10.310  10.344  0.2529 -0.5229  0.0408
   68loPI   C3A 1081   6.565  10.339   9.895 -0.1520  0.0582 -0.0522
   68loPI   C4A 1082   6.423  10.558   9.544  0.3236  0.0032 -0.0822
   68loPI   C5A 1083   6.077  10.636   9.265 -0.0085  0.2526 -0.0571
   68loPI   C6A 1084   6.010  10.352   8.864 -0.4899  0.0081 -0.1953
   68loPI   C1B 1085   7.056  10.803  10.870  0.1872 -0.2518  0.0078
   68loPI   C2B 1086   7.238  10.787  10.490  0.0197  0.3256  0.2310
   68loPI   C3B 1087   7.198  10.887  10.007 -0.1584  0.0617  0.0828
   68loPI   C4B 1088   7.317  10.800   9.549  0.1366 -0.2070  0.1402
   69loPI    C1 1089  11.608  14.744  11.615 -0.0759 -0.0990  0.1038
   69loPI    C2 1090  11.380  15.064  11.690  0.1420  0.0860 -0.0080
   69loPI    C3 1091  11.465  14.805  11.983 -0.0598  0.1133  0.0762
   69loPI   PO4 1092  11.816  14.889  11.492  0.0370 -0.2183 -0.0060
   69loPI   GL1 1093  11.732  15.056  11.085  0.0939  0.1239  0.0354
   69loPI   GL2 1094  11.520  15.198  11.188 -0.0027 -0.2909 -0.1056
   69loPI   C1A 1095  11.982  15.098  10.677  0.0214  0.0760  0.2936
   69loPI   C2A 1096  11.976  15.110  10.286  0.2871  0.0956 -0.1044
   69loPI   C3A 1097  11.784  14.998   9.865 -0.0781  0.2336 -0.0726
   69loPI   C4A 1098  11.806  15.063   9.441 -0.1570  0.1904 -0.0409
   69loPI   C5A 1099  11.687  15.261   9.140  0.2945 -0.0461  0.2843
   69loPI   C6A 1100  11.256  15.437   8.906 -0.0962 -0.0516 -0.1766
   69loPI   C1B 1101  11.507  15.240  10.705 -0.1191  0.0852 -0.0366
   69loPI   C2B 1102  11.447  15.243  10.260  0.0388  0.2377 -0.1667
   69loPI   C3B 1103  11.333  15.328   9.840  0.0726 -0.0283 -0.0002
   69loPI   C4B 1104  11.305  15.437   9.386 -0.0692 -0.0201 -0.3983
   70loPI    C1 1105  17.027  15.808  11.544 -0.1468  0.0548 -0.0517
   70loPI    C2 1106  17.303  15.667  11.797 -0.2203 -0.1223 -0.0691
   70loPI    C3 1107  16.954  15.804  11.938 -0.1647  0.0060 -0.0554
   70loPI   PO4 1108  17.210  15.994  11.370 -0.0142  0.0683  0.0219
   70loPI   GL1 1109  17.375  15.954  11.019 -0.1340 -0.1285  0.2246
   70loPI   GL2 1110  17.480  16.102  10.791  0.1645  0.0319 -0.1139
   70loPI   C1A 1111  17.300  15.726  10.613 -0.2425 -0.1627 -0.0123
   70loPI   C2A 1112  17.289  15.817  10.155 -0.2929  0.1841  0.1411
   70loPI   C3A 1113  17.323  15.871   9.773 -0.0137  0.1040  0.1277
   70loPI   C4A 1114  17.359  15.963   9.433  0.0418 -0.1307 -0.0374
   70loPI   C5A 1115  17.386  15.976   9.004  0.0361 -0.0295 -0.1663
   70loPI   C6A 1116  17.548  15.673   8.717  0.0778  0.1577  0.1116
   70loPI   C1B 1117  17.426  16.249  10.339  0.1750 -0.1297  0.1919
   70loPI   C2B 1118  17.479  16.364   9.901  0.0109 -0.0359 -0.1660
   70loPI   C3B 1119  17.393  16.462   9.497  0.0891 -0.0768 -0.0066
   70loPI   C4B 1120  17.312  16.528   9.076  0.1228 -0.0837  0.1082
   71loPI    C1 1121  14.591  10.714  11.944 -0.1778 -0.1670 -0.0001
   71loPI    C2 1122  14.315  10.640  12.224 -0.0297 -0.2750  0.1193
   71loPI    C3 1123  14.699  10.554  12.294  0.0124 -0.2818 -0.1095
   71loPI   PO4 1124  14.324  10.754  11.708 -0.1569 -0.4334 -0.0725
   71loPI   GL1 1125  14.239  10.987  11.399 -0.2058 -0.0086  0.0444
   71loPI   GL2 1126  14.049  11.278  11.254  0.0518  0.0837 -0.0129
   71loPI   C1A 1127  14.583  11.009  11.118  0.0736 -0.0590 -0.0348
   71loPI   C2A 1128  14.685  11.035  10.628 -0.1651 -0.3767  0.1247
   71loPI   C3A 1129  14.736  11.017  10.226 -0.2281 -0.0586 -0.0128
   71loPI   C4A 1130  14.793  11.050   9.756 -0.3372 -0.4313 -0.1391
   71loPI   C5A 1131  14.839  11.106   9.398 -0.1965 -0.1693  0.0652
   71loPI   C6A 1132  15.097  10.966   9.039  0.2433  0.0956  0.0596
   71loPI   C1B 1133  14.233  11.311  10.873  0.2359 -0.0319 -0.1629
   71loPI   C2B 1134  14.324  11.329  10.446  0.0366 -0.0211 -0.0142
   71loPI   C3B 1135  14.299  11.304  10.019  0.0102  0.1151 -0.0229
   71loPI   C4B 1136  14.322  11.361   9.530 -0.1300  0.0863  0.1820
   72loPI    C1 1137   6.894   7.990  11.597  0.1984  0.2004 -0.0264
   72loPI    C2 1138   6.589   8.228  11.701 -0.1841 -0.2793 -0.0165
   72loPI    C3 1139   6.836   8.084  11.981 -0.2521 -0.2913  0.0374
   72loPI   PO4 1140   6.785   7.802  11.455  0.2795  0.1303 -0.1944
   72loPI   GL1 1141   6.794   7.739  11.026 -0.0359 -0.0427  0.1585
   72loPI   GL2 1142   6.556   7.878  10.886 -0.0028  0.1734  0.0365
   72loPI   C1A 1143   6.909   7.746  10.542 -0.2694 -0.1622  0.0774
   72loPI   C2A 1144   6.925   7.756  10.131  0.0824  0.1879  0.2052
   72loPI   C3A 1145   6.905   7.737   9.706  0.2523 -0.0502 -0.1716
   72loPI   C4A 1146   6.800   7.753   9.331 -0.1221  0.0689  0.0069
   72loPI   C5A 1147   6.863   7.986   8.920  0.0225 -0.0289 -0.3649
   72loPI   C6A 1148   6.998   8.279   8.603 -0.2120 -0.0268  0.1848
   72loPI   C1B 1149   6.546   7.978  10.374  0.3126 -0.1069  0.0711
   72loPI   C2B 1150   6.478   7.831  10.016  0.5231  0.0472  0.2134
   72loPI   C3B 1151   6.366   7.758   9.675  0.2779  0.1038 -0.0840
   72loPI   C4B 1152   6.161   7.577   9.337  0.1519  0.1102 -0.2224
   73loPI    C1 1153  11.743  13.054  11.510  0.1312 -0.0166  0.0788
   73loPI    C2 1154  11.750  13.024  11.111  0.1390  0.0565  0.0732
   73loPI    C3 1155  11.499  12.797  11.325  0.1160  0.0365  0.0250
   73loPI   PO4 1156  11.946  13.198  11.570  0.0724 -0.0745  0.0114
   73loPI   GL1 1157  12.256  13.200  11.164  0.0168  0.1522  0.0157
   73loPI   GL2 1158  12.378  13.464  10.937  0.0200 -0.1048  0.1279
   73loPI   C1A 1159  12.251  12.920  10.819 -0.0222 -0.2322  0.2248
   73loPI   C2A 1160  12.304  12.883  10.343 -0.2362 -0.1752 -0.0985
   73loPI   C3A 1161  12.373  12.855   9.883 -0.1228  0.1357  0.3290
   73loPI   C4A 1162  12.486  12.995   9.427  0.1509  0.0887  0.0411
   73loPI   C5A 1163  12.697  13.105   9.063 -0.1275  0.0144  0.3915
   73loPI   C6A 1164  12.890  13.349   8.908  0.2289 -0.2831  0.1160
   73loPI   C1B 1165  12.333  13.407  10.511 -0.1353 -0.1185  0.0621
   73loPI   C2B 1166  12.475  13.367  10.113  0.0807  0.2568  0.0869
   73loPI   C3B 1167  12.533  13.382   9.715 -0.1170 -0.0716 -0.2010
   73loPI   C4B 1168  12.568  13.490   9.304  0.0149 -0.1979  0.3832
   74loPI    C1 1169   1.625   9.402  11.948 -0.0521  0.0072 -0.0895
   74loPI    C2 1170   1.986   9.548  12.042 -0.1033  0.3239 -0.3638
   74loPI    C3 1171   1.802   9.294  12.291  0.3154  0.1405 -0.2315
   74loPI   PO4 1172   1.518   9.507  11.859  0.1755 -0.4315  0.3761
   74loPI   GL1 1173   1.676   9.681  11.427  0.2854  0.0098 -0.0700
   74loPI   GL2 1174   1.387   9.653  11.205  0.1967  0.2321  0.1235
   74loPI   C1A 1175   1.797   9.832  10.948 -0.4287 -0.3798 -0.1144
   74loPI   C2A 1176   1.887   9.753  10.473  0.1980 -0.1152  0.1877
   74loPI   C3A 1177   1.787   9.822  10.026 -0.1282 -0.0039 -0.0773
   74loPI   C4A 1178   1.835   9.793   9.493  0.3392  0.2582 -0.3647
   74loPI   C5A 1179   1.913   9.983   9.076  0.0442 -0.1160 -0.0113
   74loPI   C6A 1180   2.164  10.396   8.915 -0.0919  0.2388 -0.0116
   74loPI   C1B 1181   1.294   9.598  10.800  0.1541  0.5368 -0.0531
   74loPI   C2B 1182   1.378   9.647  10.378  0.1490 -0.2222  0.2058
   74loPI   C3B 1183   1.268   9.510   9.976 -0.2182 -0.1320 -0.1572
   74loPI   C4B 1184   1.379   9.602   9.520  0.2534 -0.0783  0.0828
   75loPI    C1 1185  14.111   9.680  12.091 -0.2534 -0.1175 -0.0200
   75loPI    C2 1186  13.963  10.005  12.271  0.2389  0.1325 -0.0509
   75loPI    C3 1187  14.272   9.809  12.433 -0.1184 -0.3912  0.0228
   75loPI   PO4 1188  14.171   9.797  11.804  0.1875  0.0512 -0.0178
   75loPI   GL1 1189  14.307   9.718  11.415 -0.3333 -0.1460 -0.1611
   75loPI   GL2 1190  14.565   9.459  11.295  0.4852  0.1556  0.0777
   75loPI   C1A 1191  14.477   9.865  11.026  0.0773 -0.2228 -0.0254
   75loPI   C2A 1192  14.528   9.967  10.569 -0.2195  0.3157 -0.1076
   75loPI   C3A 1193  14.522   9.990  10.144  0.1653 -0.2060  0.0179
   75loPI   C4A 1194  14.611  10.056   9.713 -0.2562  0.1341  0.0167
   75loPI   C5A 1195  14.777  10.147   9.210 -0.1292  0.3774 -0.1976
   75loPI   C6A 1196  14.738  10.300   8.873 -0.0228  0.2251 -0.2984
   75loPI   C1B 1197  14.490   9.403  10.908 -0.1006  0.0926  0.2085
   75loPI   C2B 1198  14.435   9.418  10.522 -0.1634  0.1143  0.0827
   75loPI   C3B 1199  14.532   9.504  10.096 -0.0988  0.1013 -0.2789
   75loPI   C4B 1200  14.465   9.464   9.655 -0.1865 -0.2473 -0.2933
   76loPI    C1 1201  14.458   1.391  11.896  0.0526  0.1371 -0.2121
   76loPI    C2 1202  14.470   1.236  12.265 -0.0959 -0.0285 -0.2755
   76loPI    C3 1203  14.734   1.517  12.157 -0.1590  0.1454  0.0111
   76loPI   PO4 1204  14.421   1.103  11.730 -0.2893 -0.0583  0.0925
   76loPI   GL1 1205  14.221   1.124  11.255  0.0386 -0.1307  0.1481
   76loPI   GL2 1206  14.293   0.824  11.250 -0.0009  0.0713 -0.0378
   76loPI   C1A 1207  14.125   1.120  10.808 -0.0625 -0.0214  0.1976
   76loPI   C2A 1208  14.050   1.054  10.399  0.0421 -0.0055  0.1424
   76loPI   C3A 1209  14.078   1.010  10.003 -0.3543  0.0119 -0.2638
   76loPI   C4A 1210  14.168   1.104   9.578  0.0653  0.2588 -0.0305
   76loPI   C5A 1211  14.067   1.126   9.138  0.0004 -0.1712  0.1905
   76loPI   C6A 1212  14.095   1.143   8.778  0.2910 -0.0599  0.2297
   76loPI   C1B 1213  14.025   0.635  10.869 -0.0041  0.0897 -0.1190
   76loPI   C2B 1214  13.930   0.571  10.531  0.0646 -0.2846 -0.0833
   76loPI   C3B 1215  13.985   0.543  10.125  0.0108 -0.1757 -0.2364
   76loPI   C4B 1216  14.077   0.551   9.687  0.0924  0.0149  0.0333
   77loPI    C1 1217   6.505   7.059  11.597 -0.0666  0.2103  0.0047
   77loPI    C2 1218   6.371   6.847  11.908 -0.0642 -0.0815 -0.1891
   77loPI    C3 1219   6.764   6.875  11.840 -0.0573  0.1185 -0.0739
   77loPI   PO4 1220   6.410   6.968  11.368 -0.0018 -0.0811  0.3605
   77loPI   GL1 1221   6.641   6.996  11.080 -0.1687  0.2779  0.0221
   77loPI   GL2 1222   6.639   6.696  10.930 -0.2544  0.1174  0.3079
   77loPI   C1A 1223   6.811   7.267  10.730  0.2706  0.2382 -0.3238
   77loPI   C2A 1224   6.654   7.402  10.345 -0.1760  0.0129 -0.2089
   77loPI   C3A 1225   6.559   7.316   9.877  0.1318 -0.1843  0.0452
   77loPI   C4A 1226   6.597   7.317   9.382  0.0372 -0.0075  0.1855
   77loPI   C5A 1227   6.279   7.181   9.096 -0.4243 -0.0617 -0.3110
   77loPI   C6A 1228   6.182   6.773   8.889  0.0431  0.0414 -0.0127
   77loPI   C1B 1229   6.773   6.805  10.513 -0.2813 -0.0715  0.3730
   77loPI   C2B 1230   6.830   6.919  10.080 -0.1716 -0.1065 -0.2101
   77loPI   C3B 1231   6.828   6.918   9.666 -0.0836  0.0492  0.1912
   77loPI   C4B 1232   6.785   6.884   9.201  0.0907  0.0088  0.1457
   78loPI    C1 1233   5.896  10.671  11.684  0.0618  0.0607  0.0254
   78loPI    C2 1234   5.975  10.295  11.572 -0.1521  0.0947 -0.2505
   78loPI    C3 1235   5.773  10.364  11.910 -0.2541 -0.0461 -0.2814
   78loPI   PO4 1236   5.813  10.763  11.503  0.0109 -0.0572 -0.1120
   78loPI   GL1 1237   5.776  10.717  11.163 -0.0979  0.2088 -0.1387
   78loPI   GL2 1238   5.472  10.784  11.073 -0.2020 -0.0076 -0.2256
   78loPI   C1A 1239   5.773  10.642  10.710  0.2248 -0.2298 -0.0957
   78loPI   C2A 1240   5.683  10.642  10.224 -0.0737  0.0929 -0.0178
   78loPI   C3A 1241   5.711  10.797   9.856 -0.1641  0.1027 -0.1708
   78loPI   C4A 1242   5.673  10.776   9.537 -0.0791 -0.2378  0.0409
   78loPI   C5A 1243   5.497  10.975   9.141 -0.2942  0.1242  0.0228
   78loPI   C6A 1244   5.322  11.314   9.013  0.2523 -0.0443 -0.1641
   78loPI   C1B 1245   5.262  10.572  10.771 -0.3100 -0.2629  0.0846
   78loPI   C2B 1246   5.173  10.554  10.384 -0.0446  0.3060  0.0171
   78loPI   C3B 1247   5.231  10.672   9.900  0.1719 -0.0152  0.0213
   78loPI   C4B 1248   5.136  10.456   9.461 -0.2256 -0.0140  0.1259
   79loPI    C1 1249  14.226   1.862  11.945 -0.0864  0.0725 -0.1199
   79loPI    C2 1250  14.605   1.969  11.877 -0.0677  0.0687 -0.0235
   79loPI    C3 1251  14.463   1.962  12.251 -0.1768  0.1167 -0.0636
   79loPI   PO4 1252  14.054   2.016  11.749  0.4064 -0.1146 -0.2006
   79loPI   GL1 1253  14.117   1.893  11.334 -0.2167 -0.0141 -0.2043
   79loPI   GL2 1254  14.208   1.595  11.061 -0.2496 -0.0367 -0.2389
   79loPI   C1A 1255  14.161   2.066  10.977 -0.2175 -0.0700 -0.0956
   79loPI   C2A 1256  14.234   2.115  10.515 -0.1109 -0.1947  0.1634
   79loPI   C3A 1257  14.265   2.078  10.008 -0.2075  0.0352 -0.0109
   79loPI   C4A 1258  14.330   2.177   9.565 -0.1111  0.1152 -0.0106
   79loPI   C5A 1259  14.250   2.158   9.201 -0.1119  0.1335  0.1434
   79loPI   C6A 1260  14.201   2.075   8.810 -0.0154  0.0985 -0.0440
   79loPI   C1B 1261  14.168   1.668  10.625  0.1060  0.0166 -0.0612
   79loPI   C2B 1262  14.167   1.532  10.237  0.1394  0.0687  0.0816
   79loPI   C3B 1263  14.181   1.593   9.789 -0.0373 -0.3244  0.2229
   79loPI   C4B 1264  14.037   1.645   9.390  0.1724 -0.2379  0.1052
   80loPI    C1 1265  11.587   1.680  11.593  0.2180  0.0243  0.1801
   80loPI    C2 1266  11.230   1.516  11.670  0.1923 -0.0402 -0.0679
   80loPI    C3 1267  11.503   1.548  11.961  0.0736 -0.2126  0.0646
   80loPI   PO4 1268  11.494   1.907  11.363  0.1367  0.0030  0.0662
   80loPI   GL1 1269  11.783   2.035  11.017 -0.1018  0.1278  0.0485
   80loPI   GL2 1270  11.539   1.859  10.878 -0.0611  0.0026 -0.0005
   80loPI   C1A 1271  11.963   2.042  10.497  0.0929  0.0154 -0.1115
   80loPI   C2A 1272  12.008   2.176  10.112 -0.1226  0.1925  0.0100
   80loPI   C3A 1273  12.069   2.138   9.642 -0.0730 -0.0220 -0.1647
   80loPI   C4A 1274  12.076   2.078   9.132  0.0435 -0.1199 -0.3495
   80loPI   C5A 1275  12.063   1.698   8.914 -0.1072 -0.0257  0.0622
   80loPI   C6A 1276  12.049   1.215   8.749  0.1171  0.1891  0.0504
   80loPI   C1B 1277  11.499   1.849  10.446  0.3561  0.0248  0.1216
   80loPI   C2B 1278  11.611   1.880   9.967  0.1725 -0.0441 -0.0922
   80loPI   C3B 1279  11.528   1.903   9.523  0.1711  0.1523 -0.0298
   80loPI   C4B 1280  11.454   2.016   9.092 -0.0643 -0.1198 -0.2664
   81loPI    C1 1281  11.973   3.406  11.327 -0.0123  0.1275  0.0941
   81loPI    C2 1282  11.958   3.778  11.473 -0.0615  0.0482  0.2939
   81loPI    C3 1283  11.623   3.562  11.441 -0.0533  0.0692  0.0491
   81loPI   PO4 1284  12.275   3.456  11.263 -0.1375 -0.0388  0.0580
   81loPI   GL1 1285  12.479   3.570  10.899 -0.0302 -0.3536  0.2280
   81loPI   GL2 1286  12.443   3.293  10.698 -0.0918  0.0219  0.0940
   81loPI   C1A 1287  12.607   3.821  10.493 -0.1051 -0.0737  0.0274
   81loPI   C2A 1288  12.624   3.889  10.068 -0.0560  0.2033 -0.0070
   81loPI   C3A 1289  12.706   3.891   9.616  0.0472 -0.0140  0.0464
   81loPI   C4A 1290  12.784   3.902   9.240  0.0593  0.1780 -0.3199
   81loPI   C5A 1291  12.867   3.933   8.798 -0.3696  0.0675  0.3650
   81loPI   C6A 1292  12.767   3.990   8.346 -0.0105  0.1508 -0.0939
   81loPI   C1B 1293  12.516   3.370  10.326 -0.1009 -0.2221 -0.3964
   81loPI   C2B 1294  12.637   3.403   9.896  0.1159 -0.1141 -0.3778
   81loPI   C3B 1295  12.698   3.390   9.506  0.1127  0.0433  0.0188
   81loPI   C4B 1296  12.654   3.345   9.163 -0.2419  0.0114  0.1081
   82loPI    C1 1297  13.458   0.696  11.768  0.0011 -0.0893 -0.0294
   82loPI    C2 1298  13.796   0.518  11.884 -0.0126  0.0050  0.1596
   82loPI    C3 1299  13.689   0.868  12.045 -0.1250  0.0492 -0.0085
   82loPI   PO4 1300  13.425   0.731  11.535 -0.0691 -0.1817 -0.1918
   82loPI   GL1 1301  13.613   0.708  11.201 -0.0108 -0.1561  0.0722
   82loPI   GL2 1302  13.716   0.938  11.143 -0.0231  0.1583 -0.3015
   82loPI   C1A 1303  13.565   0.429  10.933  0.2934  0.2275  0.1368
   82loPI   C2A 1304  13.510   0.382  10.435  0.1163  0.0701 -0.1851
   82loPI   C3A 1305  13.491   0.412   9.966  0.0449  0.0218 -0.1348
   82loPI   C4A 1306  13.605   0.326   9.579  0.4258 -0.1956  0.1089
   82loPI   C5A 1307  13.483   0.341   9.117  0.3810 -0.0674 -0.0520
   82loPI   C6A 1308  13.794   0.324   8.735 -0.2313  0.0120 -0.0126
   82loPI   C1B 1309  13.562   0.904  10.705  0.3009  0.1789  0.1072
   82loPI   C2B 1310  13.607   0.861  10.264  0.0567 -0.2897  0.0713
   82loPI   C3B 1311  13.677   0.876   9.801  0.0891  0.2622  0.0432
   82loPI   C4B 1312  13.766   0.789   9.358  0.0106 -0.2731 -0.2851
   83loPI    C1 1313   9.122  11.351  11.709 -0.1976 -0.1511 -0.1290
   83loPI    C2 1314   8.769  11.538  11.736 -0.1237 -0.0299  0.0144
   83loPI    C3 1315   8.974  11.448  12.068  0.1083  0.1465 -0.0783
   83loPI   PO4 1316   9.173  11.433  11.468  0.2177 -0.1474 -0.1706
   83loPI   GL1 1317   9.011  11.649  11.146 -0.0497  0.3679 -0.0155
   83loPI   GL2 1318   9.027  11.321  10.997  0.1241 -0.2343  0.0119
   83loPI   C1A 1319   9.342  11.784  10.827  0.2162 -0.0068 -0.0726
   83loPI   C2A 1320   9.262  11.814  10.350 -0.2583 -0.0902  0.1537
   83loPI   C3A 1321   9.247  11.792   9.886  0.0520 -0.0927  0.1979
   83loPI   C4A 1322   9.453  11.949   9.577 -0.1396 -0.2977  0.2404
   83loPI   C5A 1323   9.235  11.911   9.226  0.2790  0.1899 -0.4046
   83loPI   C6A 1324   9.218  12.121   8.820 -0.1760  0.1499 -0.2028
   83loPI   C1B 1325   8.937  11.442  10.646  0.0277  0.1482 -0.2379
   83loPI   C2B 1326   8.915  11.461  10.184 -0.0229  0.1544 -0.0502
   83loPI   C3B 1327   8.899  11.499   9.738 -0.0184  0.0763  0.0343
   83loPI   C4B 1328   9.047  11.501   9.377 -0.0908  0.0713  0.2013
   84loPI    C1 1329   5.745  12.255  11.605  0.0895 -0.2053  0.1207
   84loPI    C2 1330   6.138  12.200  11.554  0.1219  0.0971  0.0230
   84loPI    C3 1331   5.988  12.246  11.922  0.1480 -0.2218  0.0757
   84loPI   PO4 1332   5.678  12.084  11.425  0.0313 -0.1920  0.0550
   84loPI   GL1 1333   5.474  12.174  11.009 -0.1952  0.1264  0.0725
   84loPI   GL2 1334   5.629  11.873  10.995 -0.1957  0.0535  0.4124
   84loPI   C1A 1335   5.384  12.051  10.577 -0.0028 -0.2268  0.2102
   84loPI   C2A 1336   5.356  12.199  10.099 -0.0601 -0.0473  0.0319
   84loPI   C3A 1337   5.345  12.191   9.663 -0.2945  0.1548  0.1384
   84loPI   C4A 1338   5.456  12.122   9.215  0.1908 -0.1135 -0.1431
   84loPI   C5A 1339   5.832  12.149   8.934 -0.2196  0.3012 -0.0754
   84loPI   C6A 1340   5.968  12.265   8.606  0.1259  0.2315 -0.1419
   84loPI   C1B 1341   5.835  11.772  10.602  0.0898  0.2903 -0.4664
   84loPI   C2B 1342   5.670  11.829  10.255 -0.0215 -0.1030 -0.0148
   84loPI   C3B 1343   5.682  11.877   9.826 -0.0863  0.1784  0.0535
   84loPI   C4B 1344   5.870  11.933   9.465  0.0984 -0.0005  0.2291
   85loPI    C1 1345   6.741   9.263  11.770  0.1833 -0.1524  0.0518
   85loPI    C2 1346   6.819   9.436  12.123  0.1272  0.1110 -0.0620
   85loPI    C3 1347   6.896   9.047  12.069 -0.0383  0.0232  0.2998
   85loPI   PO4 1348   6.764   9.405  11.582 -0.0382 -0.1488  0.2393
   85loPI   GL1 1349   6.589   9.491  11.186  0.2076 -0.0842  0.0707
   85loPI   GL2 1350   6.871   9.589  11.075  0.1745  0.2796  0.1235
   85loPI   C1A 1351   6.435   9.555  10.821  0.0072  0.4885 -0.0199
   85loPI   C2A 1352   6.480   9.861  10.518  0.2130 -0.1947  0.0288
   85loPI   C3A 1353   6.450   9.894  10.077  0.2238  0.1812 -0.0119
   85loPI   C4A 1354   6.554   9.864   9.626  0.0349  0.1387  0.0618
   85loPI   C5A 1355   6.821   9.775   9.258  0.0578  0.2287 -0.1409
   85loPI   C6A 1356   6.885   9.673   8.794  0.0732  0.1842 -0.0001
   85loPI   C1B 1357   6.863   9.874  10.819 -0.0889 -0.1396 -0.3433
   85loPI   C2B 1358   6.970   9.945  10.406 -0.1252  0.1785 -0.0717
   85loPI   C3B 1359   6.962   9.958  10.001  0.1486  0.1314  0.1864
   85loPI   C4B 1360   7.187  10.005   9.522 -0.1480  0.3039 -0.0080
   86loPI    C1 1361   4.239  11.554  12.015  0.0872 -0.0539  0.0922
   86loPI    C2 1362   4.348  11.253  12.255 -0.1531 -0.0552  0.2025
   86loPI    C3 1363   4.497  11.619  12.313  0.1834 -0.1606  0.0335
   86loPI   PO4 1364   4.168  11.445  11.761  0.2980 -0.0915 -0.0540
   86loPI   GL1 1365   3.939  11.634  11.377  0.0836 -0.0356 -0.3495
   86loPI   GL2 1366   3.661  11.730  11.391  0.2324 -0.2039  0.1011
   86loPI   C1A 1367   3.959  11.969  11.089 -0.0316  0.1002  0.2590
   86loPI   C2A 1368   4.010  11.998  10.631  0.1012 -0.0824 -0.2677
   86loPI   C3A 1369   4.114  12.006  10.246  0.0323  0.2739  0.2037
   86loPI   C4A 1370   3.984  12.067   9.708  0.0054 -0.2144 -0.2222
   86loPI   C5A 1371   3.955  11.940   9.312 -0.1271  0.3127 -0.4300
   86loPI   C6A 1372   4.080  11.907   8.870 -0.0478  0.1165  0.0409
   86loPI   C1B 1373   3.491  11.844  11.027 -0.0665 -0.2659  0.1971
   86loPI   C2B 1374   3.512  11.862  10.609  0.2582 -0.1868 -0.1378
   86loPI   C3B 1375   3.605  11.833  10.149 -0.2195  0.2964  0.1492
   86loPI   C4B 1376   3.461  11.929   9.750 -0.2041  0.0810  0.4782
   87loPI    C1 1377  10.695  15.719  11.470 -0.2194  0.0108  0.0519
   87loPI    C2 1378  11.008  15.473  11.430 -0.0961  0.1994 -0.1681
   87loPI    C3 1379  10.811  15.493  11.778  0.0941  0.0298 -0.0495
   87loPI   PO4 1380  10.724  15.937  11.337  0.0923 -0.3001  0.0554
   87loPI   GL1 1381  10.407  16.084  10.972  0.1386 -0.2426  0.0216
   87loPI   GL2 1382  10.214  15.838  10.864  0.2608  0.0437  0.1186
   87loPI   C1A 1383  10.506  16.293  10.609  0.1107 -0.1610 -0.0751
   87loPI   C2A 1384  10.551  16.212  10.187 -0.1145 -0.0462 -0.1174
   87loPI   C3A 1385  10.600  16.183   9.765 -0.0266  0.0518 -0.2117
   87loPI   C4A 1386  10.434  16.207   9.426 -0.0105 -0.0057  0.0508
   87loPI   C5A 1387  10.194  15.930   9.191 -0.2848  0.1380  0.0292
   87loPI   C6A 1388  10.036  15.924   8.777 -0.0599 -0.2638 -0.0885
   87loPI   C1B 1389  10.301  15.866  10.448  0.1574 -0.1916  0.0092
   87loPI   C2B 1390  10.181  15.801  10.035  0.0795 -0.0103 -0.2032
   87loPI   C3B 1391  10.469  15.751   9.632 -0.0488 -0.0828 -0.1413
   87loPI   C4B 1392  10.525  15.556   9.242 -0.2325 -0.0558  0.3834
   88loPI    C1 1393   7.950   0.013  11.551 -0.1068 -0.2616 -0.0422
   88loPI    C2 1394   7.958   0.412  11.579  0.1756 -0.2431 -0.3288
   88loPI    C3 1395   8.128   0.188  11.864 -0.2683 -0.1737  0.0016
   88loPI   PO4 1396   7.957  -0.008  11.208  0.1887 -0.1236 -0.1142
   88loPI   GL1 1397   8.245   0.090  10.795  0.1433  0.3120  0.1441
   88loPI   GL2 1398   8.331  -0.243  10.809 -0.1857  0.0103 -0.1581
   88loPI   C1A 1399   8.122   0.271  10.463  0.1581  0.0091  0.2319
   88loPI   C2A 1400   8.209   0.280  10.113 -0.0746  0.1678 -0.1053
   88loPI   C3A 1401   8.067   0.433   9.817 -0.0890  0.0593 -0.0551
   88loPI   C4A 1402   8.219   0.481   9.356  0.0221  0.1552  0.1339
   88loPI   C5A 1403   8.122   0.431   9.026  0.0447  0.0404  0.2145
   88loPI   C6A 1404   8.238   0.483   8.565 -0.1754  0.1553  0.0214
   88loPI   C1B 1405   8.366  -0.173  10.328  0.2256  0.2285 -0.3020
   88loPI   C2B 1406   8.366  -0.183   9.918 -0.1933 -0.0650 -0.0221
   88loPI   C3B 1407   8.352  -0.091   9.535  0.1211  0.1447  0.0596
   88loPI   C4B 1408   8.476   0.060   9.118 -0.0734 -0.2878  0.0077
   89loPI    C1 1409  14.423   7.104  11.924  0.0916 -0.0162 -0.0661
   89loPI    C2 1410  14.291   6.780  12.118  0.1158  0.0136  0.0007
   89loPI    C3 1411  14.289   7.136  12.300 -0.2750  0.1218 -0.2041
   89loPI   PO4 1412  14.217   7.010  11.673  0.0647  0.2653  0.3886
   89loPI   GL1 1413  14.278   6.860  11.318  0.0644 -0.1455  0.1608
   89loPI   GL2 1414  14.091   6.598  11.154  0.0324 -0.0210  0.1328
   89loPI   C1A 1415  14.437   6.996  10.929  0.0651  0.0293 -0.0043
   89loPI   C2A 1416  14.525   7.023  10.530 -0.4499  0.2837  0.2374
   89loPI   C3A 1417  14.621   6.995  10.084  0.0323  0.0956 -0.0858
   89loPI   C4A 1418  14.569   7.079   9.696 -0.1243  0.1457  0.2430
   89loPI   C5A 1419  14.781   6.930   9.325  0.0309 -0.0794 -0.1095
   89loPI   C6A 1420  15.035   6.535   9.249 -0.2308  0.1160  0.2197
   89loPI   C1B 1421  13.717   6.571  10.995 -0.2275 -0.2083 -0.0296
   89loPI   C2B 1422  13.681   6.536  10.637 -0.1844 -0.0948 -0.0964
   89loPI   C3B 1423  13.677   6.535  10.175 -0.0282 -0.2218 -0.0733
   89loPI   C4B 1424  13.702   6.685   9.800  0.1101 -0.1522 -0.1156
   90loPI    C1 1425  11.280  10.374  11.624  0.0277  0.0418  0.1639
   90loPI    C2 1426  11.209   9.991  11.714  0.1075 -0.0742 -0.2492
   90loPI    C3 1427  10.916  10.261  11.744  0.1095 -0.1206  0.2627
   90loPI   PO4 1428  11.429  10.340  11.382  0.0872  0.2217 -0.3075
   90loPI   GL1 1429  11.491   9.942  11.205 -0.0564 -0.2385  0.0534
   90loPI   GL2 1430  11.718  10.144  11.010 -0.0143  0.0924 -0.0216
   90loPI   C1A 1431  11.679   9.678  10.847  0.0719 -0.0081  0.1468
   90loPI   C2A 1432  11.731   9.730  10.396  0.0300  0.4945  0.0300
   90loPI   C3A 1433  11.740   9.876  10.042  0.1819  0.0683  0.0511
   90loPI   C4A 1434  11.842   9.825   9.687  0.0651 -0.0506  0.4279
   90loPI   C5A 1435  11.890   9.906   9.280 -0.1044 -0.1331 -0.0253
   90loPI   C6A 1436  12.066   9.867   8.838 -0.2094 -0.2240  0.1683
   90loPI   C1B 1437  11.830  10.288  10.663  0.1344  0.0812 -0.0152
   90loPI   C2B 1438  11.786  10.372  10.282  0.0008 -0.2490 -0.0458
   90loPI   C3B 1439  11.881  10.432   9.890  0.0149  0.0283  0.3384
   90loPI   C4B 1440  11.961  10.370   9.515 -0.1154  0.2224  0.1252
   91loPI    C1 1441   8.529   8.591  11.411  0.0016  0.0324  0.0759
   91loPI    C2 1442   8.874   8.405  11.328 -0.0134  0.0646 -0.0606
   91loPI    C3 1443   8.871   8.720  11.575 -0.0158 -0.2357  0.3316
   91loPI   PO4 1444   8.452   8.573  11.068 -0.0747  0.0691  0.1696
   91loPI   GL1 1445   8.476   8.850  10.711  0.0656 -0.2715 -0.0776
   91loPI   GL2 1446   8.478   9.092  10.749 -0.4180 -0.0050  0.2359
   91loPI   C1A 1447   8.486   8.759  10.257 -0.0992 -0.0185 -0.0514
   91loPI   C2A 1448   8.526   8.899   9.814 -0.0179 -0.0914  0.1443
   91loPI   C3A 1449   8.600   8.894   9.372  0.0976 -0.5065  0.0308
   91loPI   C4A 1450   8.606   8.980   8.947 -0.1280  0.3702  0.3257
   91loPI   C5A 1451   8.457   8.850   8.597  0.3910 -0.0416  0.1236
   91loPI   C6A 1452   8.209   8.499   8.472 -0.1122 -0.0104  0.1037
   91loPI   C1B 1453   8.755   9.185  10.371  0.1684  0.0547  0.0935
   91loPI   C2B 1454   8.887   9.225   9.900  0.1812  0.2481  0.0435
   91loPI   C3B 1455   8.941   9.216   9.467 -0.0130 -0.1756 -0.1938
   91loPI   C4B 1456   9.049   9.225   9.111 -0.1418 -0.3262 -0.1059
   92loPI    C1 1457   2.867   9.703  11.902  0.1731 -0.0684  0.2062
   92loPI    C2 1458   3.035   9.376  11.744 -0.0661 -0.0400 -0.1162
   92loPI    C3 1459   2.891   9.366  12.117 -0.0765 -0.3041 -0.1254
   92loPI   PO4 1460   2.815   9.834  11.678 -0.0257  0.0954 -0.3030
   92loPI   GL1 1461   2.836   9.822  11.298  0.1261 -0.1480 -0.1351
   92loPI   GL2 1462   2.981  10.090  11.211  0.1493 -0.2999  0.1288
   92loPI   C1A 1463   2.721   9.639  10.968 -0.2486 -0.0096  0.0891
   92loPI   C2A 1464   2.814   9.662  10.504  0.2577 -0.3461 -0.0923
   92loPI   C3A 1465   2.792   9.669  10.039  0.1538 -0.2481 -0.1481
   92loPI   C4A 1466   2.682   9.566   9.647 -0.2721  0.0462  0.2098
   92loPI   C5A 1467   2.460   9.762   9.261 -0.0467  0.0820 -0.1807
   92loPI   C6A 1468   2.419  10.026   8.920  0.0007  0.3971  0.2959
   92loPI   C1B 1469   2.907  10.194  10.765  0.3365 -0.0633 -0.0669
   92loPI   C2B 1470   2.894  10.137  10.263 -0.0608 -0.2772 -0.1964
   92loPI   C3B 1471   2.774  10.144   9.957  0.1410  0.0986 -0.2643
   92loPI   C4B 1472   2.807  10.126   9.586  0.0032  0.0706 -0.0240
   93loPI    C1 1473  13.318  11.068  11.894 -0.1137 -0.2273  0.0629
   93loPI    C2 1474  12.944  11.159  11.785  0.0730  0.0333 -0.3921
   93loPI    C3 1475  13.133  11.383  12.057 -0.1023 -0.1083 -0.1494
   93loPI   PO4 1476  13.389  10.940  11.658 -0.0535 -0.0649  0.3254
   93loPI   GL1 1477  13.774  10.847  11.336  0.0830  0.1891 -0.0732
   93loPI   GL2 1478  13.664  10.974  11.077 -0.1986 -0.2700 -0.0561
   93loPI   C1A 1479  14.125  10.774  10.948  0.1246  0.2808  0.0866
   93loPI   C2A 1480  14.245  10.826  10.494  0.0226  0.2213  0.0239
   93loPI   C3A 1481  14.296  10.766  10.122 -0.1380 -0.3146 -0.1366
   93loPI   C4A 1482  14.347  10.887   9.728  0.1038 -0.1488 -0.0464
   93loPI   C5A 1483  14.302  10.862   9.374 -0.2532 -0.1930 -0.0937
   93loPI   C6A 1484  14.602  10.844   9.007  0.3205  0.0058 -0.3471
   93loPI   C1B 1485  13.842  11.053  10.647  0.0847  0.0906  0.1759
   93loPI   C2B 1486  13.860  11.065  10.222  0.1244 -0.1399 -0.0627
   93loPI   C3B 1487  13.870  11.044   9.749  0.0390  0.0890 -0.2482
   93loPI   C4B 1488  13.886  11.173   9.298 -0.2485  0.5250  0.2067
   94loPI    C1 1489   4.335  14.277  11.880  0.5063 -0.1035  0.0788
   94loPI    C2 1490   4.649  14.525  11.880  0.3647  0.0775  0.1077
   94loPI    C3 1491   4.468  14.432  12.224  0.1370  0.2952  0.0499
   94loPI   PO4 1492   4.357  14.111  11.767 -0.2601 -0.0545  0.2932
   94loPI   GL1 1493   4.295  14.068  11.397 -0.0005  0.1227 -0.0751
   94loPI   GL2 1494   3.966  13.955  11.324  0.1699 -0.0356 -0.2489
   94loPI   C1A 1495   4.323  14.232  11.005 -0.0010  0.0445 -0.1040
   94loPI   C2A 1496   4.374  14.097  10.513 -0.2260  0.0201  0.3137
   94loPI   C3A 1497   4.320  14.087  10.129  0.1970  0.1195  0.0115
   94loPI   C4A 1498   4.394  14.096   9.668  0.0993 -0.0809  0.2940
   94loPI   C5A 1499   4.230  14.007   9.304  0.1465  0.1102  0.2753
   94loPI   C6A 1500   3.808  13.871   9.156 -0.0636  0.0188 -0.0567
   94loPI   C1B 1501   3.908  13.883  10.850  0.3069 -0.0214 -0.1086
   94loPI   C2B 1502   3.901  13.854  10.419 -0.0498  0.0287 -0.0156
   94loPI   C3B 1503   3.844  13.854  10.076 -0.1388  0.0620 -0.1141
   94loPI   C4B 1504   3.873  13.967   9.762  0.2064 -0.2675 -0.1634
   95loPI    C1 1505   4.626   6.533  11.101  0.0159 -0.0038  0.1663
   95loPI    C2 1506   4.808   6.242  11.305 -0.1520 -0.0630  0.2338
   95loPI    C3 1507   4.412   6.288  11.334 -0.1376  0.1182  0.1556
   95loPI   PO4 1508   4.762   6.544  10.901 -0.2112  0.1870 -0.2748
   95loPI   GL1 1509   4.892   6.811  10.647  0.0709  0.0441 -0.1349
   95loPI   GL2 1510   4.615   6.970  10.524 -0.1970 -0.1929  0.0110
   95loPI   C1A 1511   5.095   6.668  10.289 -0.0704 -0.2304  0.0146
   95loPI   C2A 1512   5.000   6.718   9.824  0.2633 -0.1919 -0.1867
   95loPI   C3A 1513   4.962   6.755   9.417 -0.2004  0.3118  0.0414
   95loPI   C4A 1514   4.962   6.546   8.994  0.2223  0.1213  0.0560
   95loPI   C5A 1515   5.089   6.487   8.557 -0.0685 -0.0651  0.1616
   95loPI   C6A 1516   5.348   6.161   8.385 -0.0585 -0.3123  0.2003
   95loPI   C1B 1517   4.656   6.917  10.113  0.2116  0.1170 -0.0656
   95loPI   C2B 1518   4.521   6.983   9.671  0.1943  0.0023 -0.1314
   95loPI   C3B 1519   4.569   6.963   9.301  0.1091 -0.0301  0.2674
   95loPI   C4B 1520   4.439   7.260   8.903  0.2086  0.0395 -0.0479
   96loPI    C1 1521   0.371  17.073  11.617  0.4127  0.0597  0.3123
   96loPI    C2 1522   0.045  17.008  11.839  0.1646  0.0983 -0.0333
   96loPI    C3 1523   0.403  16.891  11.972 -0.0032 -0.0563  0.2961
   96loPI   PO4 1524   0.288  16.953  11.406  0.1358  0.0280 -0.1890
   96loPI   GL1 1525   0.237  16.867  10.977  0.1174  0.0728  0.1133
   96loPI   GL2 1526  -0.125  17.046  10.946 -0.0908  0.1141  0.2279
   96loPI   C1A 1527   0.201  16.887  10.529  0.1667 -0.2174 -0.1852
   96loPI   C2A 1528   0.240  16.897  10.066  0.1446 -0.1829  0.0870
   96loPI   C3A 1529   0.314  16.889   9.576  0.0387 -0.1179 -0.2447
   96loPI   C4A 1530   0.407  16.738   9.194 -0.0679  0.0786 -0.0325
   96loPI   C5A 1531   0.772  16.514   8.992  0.1187 -0.1040 -0.1138
   96loPI   C6A 1532   1.114  16.770   8.777 -0.1170 -0.1011  0.2123
   96loPI   C1B 1533  -0.218  17.194  10.542  0.2410  0.1924  0.1416
   96loPI   C2B 1534  -0.224  17.215  10.099 -0.1078 -0.0549  0.0259
   96loPI   C3B 1535  -0.152  17.107   9.691 -0.1300 -0.3341  0.3401
   96loPI   C4B 1536  -0.032  17.028   9.196 -0.0142 -0.0863 -0.0630
   97loPI    C1 1537  13.879   4.105  11.547  0.3847  0.0876 -0.2110
   97loPI    C2 1538  13.789   4.436  11.753 -0.2362 -0.2322  0.0604
   97loPI    C3 1539  13.908   4.107  11.946  0.0007 -0.2869 -0.1737
   97loPI   PO4 1540  13.667   4.238  11.317 -0.2822  0.1451 -0.0787
   97loPI   GL1 1541  13.639   4.227  10.889  0.3623 -0.1017 -0.1958
   97loPI   GL2 1542  13.908   4.116  10.707 -0.0431 -0.0610  0.1829
   97loPI   C1A 1543  13.603   4.372  10.461  0.0274 -0.6668  0.0275
   97loPI   C2A 1544  13.684   4.363  10.068  0.2685 -0.2334 -0.1557
   97loPI   C3A 1545  13.723   4.285   9.631 -0.0995  0.0700  0.3241
   97loPI   C4A 1546  13.679   4.311   9.210  0.1260 -0.0341 -0.0894
   97loPI   C5A 1547  13.470   4.228   8.733  0.0572 -0.1042 -0.0877
   97loPI   C6A 1548  13.375   3.834   8.602  0.0831  0.0153  0.1373
   97loPI   C1B 1549  14.054   3.988  10.290  0.0813  0.0092  0.0122
   97loPI   C2B 1550  14.047   4.003   9.834  0.4021  0.0045 -0.1570
   97loPI   C3B 1551  14.126   4.041   9.431 -0.1586  0.2317  0.0118
   97loPI   C4B 1552  14.284   4.010   8.945 -0.2180  0.0950 -0.0869
   98loPI    C1 1553   9.164   4.831  11.591  0.2409  0.0104 -0.1425
   98loPI    C2 1554   9.388   5.066  11.825 -0.0284  0.2189 -0.0895
   98loPI    C3 1555   9.074   4.871  11.979  0.1989 -0.1911 -0.1303
   98loPI   PO4 1556   9.166   4.897  11.378  0.3592 -0.0072  0.1838
   98loPI   GL1 1557   9.124   4.916  10.971  0.4616  0.0181 -0.1454
   98loPI   GL2 1558   8.900   5.050  10.927 -0.1389  0.0560 -0.1200
   98loPI   C1A 1559   9.110   4.690  10.616  0.1955  0.1270 -0.1934
   98loPI   C2A 1560   9.082   4.683  10.179  0.3739  0.0160 -0.1346
   98loPI   C3A 1561   9.144   4.784   9.750  0.2243  0.4031 -0.1959
   98loPI   C4A 1562   9.214   4.779   9.349  0.1272 -0.0391  0.0415
   98loPI   C5A 1563   9.191   4.850   8.867  0.0897  0.4539 -0.0450
   98loPI   C6A 1564   9.177   4.673   8.384 -0.4087  0.0341 -0.3288
   98loPI   C1B 1565   8.842   5.087  10.473  0.0925 -0.1864 -0.1957
   98loPI   C2B 1566   8.941   5.139  10.063 -0.1087  0.1446  0.0915
   98loPI   C3B 1567   9.019   5.278   9.622 -0.1776 -0.0614 -0.0757
   98loPI   C4B 1568   8.848   5.272   9.196 -0.2633  0.1318 -0.1107
   99loPI    C1 1569  10.285   4.065  11.017 -0.0022  0.1648  0.1380
   99loPI    C2 1570  10.454   3.883  11.330 -0.0098  0.0948  0.1015
   99loPI    C3 1571  10.190   4.178  11.389 -0.0557  0.0420  0.1620
   99loPI   PO4 1572  10.424   4.030  10.847 -0.0880  0.1772  0.1714
   99loPI   GL1 1573  10.472   4.271  10.511  0.0646 -0.1133 -0.0333
   99loPI   GL2 1574  10.261   4.549  10.390  0.2823  0.0891  0.2247
   99loPI   C1A 1575  10.394   4.207  10.033 -0.0898 -0.0370 -0.2121
   99loPI   C2A 1576  10.412   4.141   9.542 -0.0852 -0.1121  0.3424
   99loPI   C3A 1577  10.645   4.335   9.336 -0.1504  0.2080 -0.0364
   99loPI   C4A 1578  10.873   4.308   8.887 -0.2340  0.2268 -0.0293
   99loPI   C5A 1579  11.162   4.584   8.615 -0.0645 -0.0128  0.3152
   99loPI   C6A 1580  11.398   4.959   8.417  0.1646  0.2222  0.1738
   99loPI   C1B 1581  10.124   4.616   9.960 -0.2005 -0.2941 -0.1339
   99loPI   C2B 1582  10.301   4.624   9.557  0.0506  0.0693  0.2524
   99loPI   C3B 1583  10.284   4.823   9.121 -0.0610 -0.0978 -0.3719
   99loPI   C4B 1584  10.247   4.979   8.713  0.2001 -0.1518  0.0873
  100loPI    C1 1585   6.063  16.979  11.739 -0.3399  0.1944  0.0474
  100loPI    C2 1586   6.141  16.812  12.095 -0.0749 -0.0083 -0.1020
  100loPI    C3 1587   6.069  17.205  12.069 -0.1206  0.0034  0.1771
  100loPI   PO4 1588   6.295  16.956  11.537 -0.0636  0.1898  0.0942
  100loPI   GL1 1589   6.330  17.005  11.158 -0.1770 -0.0550  0.3282
  100loPI   GL2 1590   6.603  17.116  10.908 -0.0267  0.1964  0.0494
  100loPI   C1A 1591   6.299  16.764  10.747  0.0008 -0.1369 -0.2745
  100loPI   C2A 1592   6.450  16.859  10.316 -0.1189 -0.0079  0.1127
  100loPI   C3A 1593   6.511  16.901   9.901  0.0977 -0.0649 -0.0493
  100loPI   C4A 1594   6.435  16.979   9.473  0.1949 -0.2923 -0.3103
  100loPI   C5A 1595   6.189  16.870   9.035  0.2472  0.1355 -0.0771
  100loPI   C6A 1596   5.974  17.040   8.721  0.0054 -0.1614 -0.1318
  100loPI   C1B 1597   6.761  17.269  10.437  0.2876  0.0597 -0.0704
  100loPI   C2B 1598   6.770  17.369  10.024  0.0512 -0.1693  0.1308
  100loPI   C3B 1599   6.743  17.374   9.660 -0.0439  0.0733 -0.3098
  100loPI   C4B 1600   6.768  17.334   9.125  0.1301  0.1054 -0.0751
  101loPI    C1 1601  10.126  13.655  11.453  0.4125 -0.0374  0.0132
  101loPI    C2 1602  10.250  13.622  11.832  0.1105 -0.1516  0.1049
  101loPI    C3 1603   9.904  13.456  11.719  0.0641  0.1142 -0.1573
  101loPI   PO4 1604  10.306  13.522  11.352 -0.1511  0.0947  0.0662
  101loPI   GL1 1605  10.356  13.380  11.012 -0.0665  0.2290  0.0339
  101loPI   GL2 1606  10.393  13.119  10.871 -0.0061  0.2212 -0.0060
  101loPI   C1A 1607  10.097  13.507  10.665  0.0876 -0.2298  0.4114
  101loPI   C2A 1608  10.166  13.523  10.275 -0.0530 -0.0215  0.0196
  101loPI   C3A 1609  10.185  13.445   9.842  0.1079  0.0985  0.0568
  101loPI   C4A 1610  10.215  13.637   9.433  0.1388 -0.0531  0.2476
  101loPI   C5A 1611  10.160  13.452   9.056 -0.0520 -0.2357 -0.2019
  101loPI   C6A 1612  10.137  13.074   8.817 -0.0739 -0.0620  0.1785
  101loPI   C1B 1613  10.488  13.201  10.512  0.0786 -0.0398 -0.2225
  101loPI   C2B 1614  10.508  13.120  10.184  0.1131  0.3363  0.0647
  101loPI   C3B 1615  10.633  13.204   9.739 -0.3762  0.0690 -0.0853
  101loPI   C4B 1616  10.599  13.319   9.314 -0.1574 -0.0802  0.1391
  102loPI    C1 1617  10.213  14.461  11.651 -0.0487 -0.1387  0.0204
  102loPI    C2 1618  10.223  14.110  11.842  0.1780 -0.1259  0.0341
  102loPI    C3 1619   9.950  14.384  11.943  0.1059 -0.2340  0.1361
  102loPI   PO4 1620  10.321  14.287  11.389 -0.2909  0.1899 -0.0076
  102loPI   GL1 1621  10.399  13.956  11.143 -0.1955  0.4085  0.1142
  102loPI   GL2 1622  10.749  14.088  11.127  0.0157  0.1060  0.1989
  102loPI   C1A 1623  10.475  13.832  10.798  0.1728 -0.1018 -0.0700
  102loPI   C2A 1624  10.556  13.749  10.454  0.0195 -0.1921  0.0172
  102loPI   C3A 1625  10.610  13.634  10.060 -0.2743 -0.0013 -0.0043
  102loPI   C4A 1626  10.617  13.724   9.647 -0.0801 -0.1213  0.1966
  102loPI   C5A 1627  10.593  13.820   9.191 -0.2352 -0.2943 -0.4482
  102loPI   C6A 1628  10.516  14.309   9.067 -0.0305 -0.1145  0.0081
  102loPI   C1B 1629  10.688  14.234  10.637 -0.0674  0.2523  0.0085
  102loPI   C2B 1630  10.672  14.202  10.230 -0.0676 -0.0499 -0.0286
  102loPI   C3B 1631  10.705  14.272   9.771  0.1835  0.0139 -0.0457
  102loPI   C4B 1632  10.869  14.156   9.408 -0.1799 -0.1257 -0.3513
  103loPI    C1 1633   5.149   4.363  11.476 -0.1218 -0.0998  0.0554
  103loPI    C2 1634   4.866   4.271  11.744 -0.3431  0.1229 -0.0963
  103loPI    C3 1635   4.935   4.653  11.650 -0.1123  0.0594 -0.1931
  103loPI   PO4 1636   5.139   4.221  11.294  0.0888  0.3044  0.0788
  103loPI   GL1 1637   5.052   4.173  10.955 -0.0742  0.0657  0.0120
  103loPI   GL2 1638   4.847   3.932  10.789 -0.1368  0.3290 -0.0312
  103loPI   C1A 1639   5.211   4.170  10.555 -0.0402 -0.1233  0.1502
  103loPI   C2A 1640   5.328   4.212  10.200  0.0895 -0.0135  0.3665
  103loPI   C3A 1641   5.303   4.287   9.809 -0.0218  0.1148 -0.2101
  103loPI   C4A 1642   5.344   4.278   9.386 -0.1953 -0.0115 -0.1336
  103loPI   C5A 1643   5.448   4.241   9.018  0.2913  0.0512  0.2584
  103loPI   C6A 1644   5.553   3.841   8.666 -0.0734  0.0559  0.1158
  103loPI   C1B 1645   4.983   3.792  10.344 -0.0190 -0.0686 -0.0260
  103loPI   C2B 1646   5.000   3.791   9.886 -0.0306 -0.0290 -0.0675
  103loPI   C3B 1647   5.090   3.870   9.513  0.0858 -0.3307  0.2324
  103loPI   C4B 1648   5.188   3.837   9.072 -0.1773  0.0251 -0.0470
  104loPI    C1 1649   0.362  10.974  11.942 -0.2280 -0.2035  0.0191
  104loPI    C2 1650   0.228  11.163  12.268 -0.1356 -0.2154  0.0643
  104loPI    C3 1651   0.618  11.086  12.228 -0.1627 -0.3271  0.0098
  104loPI   PO4 1652   0.303  11.075  11.737 -0.0460 -0.0099  0.1662
  104loPI   GL1 1653   0.421  10.990  11.237  0.1584 -0.2697  0.1712
  104loPI   GL2 1654   0.181  11.142  11.115 -0.1191  0.1655 -0.0926
  104loPI   C1A 1655   0.520  10.862  10.751 -0.0043 -0.2351  0.0465
  104loPI   C2A 1656   0.619  10.831  10.318  0.1118  0.0415  0.1692
  104loPI   C3A 1657   0.665  10.728   9.927  0.0915 -0.0265 -0.0852
  104loPI   C4A 1658   0.526  10.780   9.466  0.1860  0.1208  0.1567
  104loPI   C5A 1659   0.550  10.839   9.019  0.0055 -0.0259  0.3139
  104loPI   C6A 1660   0.539  10.968   8.590  0.2505 -0.2369  0.0982
  104loPI   C1B 1661   0.122  11.167  10.735  0.2536 -0.0441  0.2446
  104loPI   C2B 1662   0.184  11.135  10.267 -0.4246  0.1113 -0.3401
  104loPI   C3B 1663   0.211  11.052   9.783 -0.0331 -0.0920 -0.1205
  104loPI   C4B 1664   0.134  11.017   9.374  0.0364 -0.0423 -0.0362
  105loPI    C1 1665   3.584  13.998  11.626  0.0410  0.0596 -0.1542
  105loPI    C2 1666   3.542  14.185  11.978  0.1142  0.1149 -0.1746
  105loPI    C3 1667   3.890  14.013  11.883  0.0103 -0.1376 -0.1048
  105loPI   PO4 1668   3.480  14.181  11.486 -0.1452  0.0811 -0.3329
  105loPI   GL1 1669   3.497  14.337  11.069 -0.1207 -0.0128 -0.2825
  105loPI   GL2 1670   3.240  14.398  11.099  0.2567 -0.0201  0.1827
  105loPI   C1A 1671   3.494  14.202  10.612  0.2121  0.1523 -0.0079
  105loPI   C2A 1672   3.503  14.132  10.208  0.2949 -0.0033  0.1280
  105loPI   C3A 1673   3.485  14.261   9.735  0.0933 -0.3910  0.3013
  105loPI   C4A 1674   3.474  14.322   9.341 -0.2429  0.0708  0.1808
  105loPI   C5A 1675   3.803  14.422   9.026 -0.0800  0.1524 -0.0157
  105loPI   C6A 1676   4.256  14.478   9.027  0.1064  0.1407 -0.1035
  105loPI   C1B 1677   3.123  14.539  10.701  0.2098  0.0887  0.1061
  105loPI   C2B 1678   3.077  14.481  10.276  0.0327  0.1089 -0.0528
  105loPI   C3B 1679   2.967  14.527   9.875  0.1446 -0.3117  0.0800
  105loPI   C4B 1680   2.926  14.520   9.437  0.2372 -0.3642  0.1088
  106loPI    C1 1681  12.770   2.847  11.556 -0.1451 -0.1970  0.2313
  106loPI    C2 1682  12.566   3.146  11.726  0.0532  0.0402  0.0596
  106loPI    C3 1683  12.936   3.209  11.589  0.0185 -0.2302 -0.1685
  106loPI   PO4 1684  12.547   2.765  11.392 -0.1545 -0.3177 -0.0196
  106loPI   GL1 1685  12.582   2.642  10.977  0.0134  0.0136 -0.0730
  106loPI   GL2 1686  12.848   2.507  10.876 -0.0105  0.0728  0.0541
  106loPI   C1A 1687  12.500   2.832  10.567  0.1877 -0.1509 -0.0558
  106loPI   C2A 1688  12.517   2.874  10.154  0.1158  0.1233 -0.3172
  106loPI   C3A 1689  12.486   2.904   9.796  0.0249 -0.1530 -0.0117
  106loPI   C4A 1690  12.613   2.897   9.355  0.0890 -0.1107  0.2460
  106loPI   C5A 1691  12.431   2.831   8.949  0.0353  0.0396  0.0162
  106loPI   C6A 1692  12.249   3.210   8.673 -0.0470 -0.2033  0.2238
  106loPI   C1B 1693  12.887   2.551  10.432  0.1698 -0.1197  0.4217
  106loPI   C2B 1694  13.006   2.570   9.965 -0.1521 -0.4397 -0.0545
  106loPI   C3B 1695  12.993   2.646   9.545  0.0984  0.1577  0.2418
  106loPI   C4B 1696  12.989   2.523   9.180  0.3668 -0.0792  0.1118
  107loPI    C1 1697   4.470  15.983  11.488  0.0802 -0.1220  0.1064
  107loPI    C2 1698   4.699  16.251  11.675  0.0027 -0.1169  0.1946
  107loPI    C3 1699   4.706  15.868  11.789  0.1796 -0.1698  0.0108
  107loPI   PO4 1700   4.217  16.107  11.312  0.0387  0.1658 -0.0365
  107loPI   GL1 1701   4.153  16.261  10.988  0.1894  0.3506 -0.0817
  107loPI   GL2 1702   4.338  16.551  10.802 -0.1262  0.2936  0.2814
  107loPI   C1A 1703   3.788  16.209  10.741 -0.0770 -0.1067 -0.0234
  107loPI   C2A 1704   3.754  16.248  10.357 -0.0370 -0.0979  0.3049
  107loPI   C3A 1705   3.715  16.283   9.969  0.3830 -0.0302 -0.2351
  107loPI   C4A 1706   3.852  16.258   9.512  0.0317 -0.1322  0.1202
  107loPI   C5A 1707   4.179  16.259   9.221  0.2490  0.4324  0.1730
  107loPI   C6A 1708   4.457  16.269   8.867 -0.0032  0.2487 -0.2335
  107loPI   C1B 1709   4.298  16.372  10.433  0.0676 -0.0991 -0.0710
  107loPI   C2B 1710   4.228  16.426  10.023  0.1034 -0.0443 -0.2254
  107loPI   C3B 1711   4.335  16.427   9.650 -0.0753  0.1768 -0.0264
  107loPI   C4B 1712   4.274  16.781   9.208 -0.1833 -0.0108  0.1894
  108loPI    C1 1713   4.544  10.466  11.769 -0.1370 -0.1072  0.0359
  108loPI    C2 1714   4.564  10.792  12.000 -0.0079  0.0213 -0.1529
  108loPI    C3 1715   4.620  10.430  12.160  0.1154  0.1109  0.0103
  108loPI   PO4 1716   4.611  10.584  11.508 -0.1443 -0.0332  0.0403
  108loPI   GL1 1717   4.538  10.285  11.094  0.0192  0.0344 -0.1632
  108loPI   GL2 1718   4.257  10.449  10.954 -0.1419  0.0628  0.0398
  108loPI   C1A 1719   4.717  10.423  10.785  0.0488 -0.0164 -0.1423
  108loPI   C2A 1720   4.692  10.390  10.377  0.2062 -0.1774  0.1119
  108loPI   C3A 1721   4.672  10.292   9.944  0.1400  0.0682 -0.3214
  108loPI   C4A 1722   4.603  10.413   9.544  0.0572 -0.0790 -0.0824
  108loPI   C5A 1723   4.692  10.334   9.126  0.2374 -0.1022 -0.5433
  108loPI   C6A 1724   4.578  10.077   8.809  0.0000 -0.1768 -0.1260
  108loPI   C1B 1725   4.247  10.723  10.612  0.2940  0.0158 -0.2170
  108loPI   C2B 1726   4.335  10.669  10.144  0.2272  0.2565  0.1091
  108loPI   C3B 1727   4.245  10.715   9.708  0.1190 -0.1168 -0.2132
  108loPI   C4B 1728   4.152  10.516   9.365  0.1158 -0.3617  0.1593
  109loPI    C1 1729  14.386   6.375  11.754  0.0034  0.0142  0.0698
  109loPI    C2 1730  14.641   6.683  11.755  0.0195  0.0027  0.3569
  109loPI    C3 1731  14.648   6.417  12.054 -0.0162 -0.2593  0.1281
  109loPI   PO4 1732  14.367   6.362  11.475 -0.2535 -0.1294  0.1496
  109loPI   GL1 1733  14.489   6.165  11.111 -0.0466 -0.0104 -0.1735
  109loPI   GL2 1734  14.348   5.960  11.050 -0.0402  0.0516  0.1302
  109loPI   C1A 1735  14.478   6.431  10.770  0.2972 -0.2978  0.2287
  109loPI   C2A 1736  14.543   6.476  10.309 -0.2371  0.1225  0.3863
  109loPI   C3A 1737  14.494   6.509   9.900 -0.0482  0.1303 -0.1380
  109loPI   C4A 1738  14.467   6.506   9.432  0.0312 -0.0277  0.0399
  109loPI   C5A 1739  14.358   6.488   8.990  0.1508  0.2288 -0.0594
  109loPI   C6A 1740  14.292   6.296   8.626  0.0501  0.0488 -0.1310
  109loPI   C1B 1741  14.367   5.944  10.525 -0.0616 -0.0969  0.0512
  109loPI   C2B 1742  14.513   6.021  10.060 -0.1990 -0.0399 -0.2902
  109loPI   C3B 1743  14.371   5.959   9.705  0.2668 -0.4051 -0.1856
  109loPI   C4B 1744  14.335   6.077   9.245  0.1859  0.2420  0.0208
  110loPI    C1 1745   5.004  16.579  11.548 -0.1028 -0.2908  0.1716
  110loPI    C2 1746   4.721  16.852  11.476  0.0416 -0.2307 -0.1873
  110loPI    C3 1747   5.008  16.928  11.745 -0.0017 -0.0890 -0.1800
  110loPI   PO4 1748   5.098  16.540  11.271  0.0651  0.1156 -0.2288
  110loPI   GL1 1749   5.329  16.287  10.995 -0.1583 -0.0079  0.1525
  110loPI   GL2 1750   5.641  16.262  11.036  0.2561 -0.1495 -0.0145
  110loPI   C1A 1751   5.204  16.414  10.566 -0.3618 -0.0007  0.2245
  110loPI   C2A 1752   5.058  16.444  10.175  0.1676 -0.0877 -0.2594
  110loPI   C3A 1753   5.192  16.507   9.763 -0.5931 -0.1134 -0.1218
  110loPI   C4A 1754   5.215  16.281   9.400  0.2981  0.1549  0.0398
  110loPI   C5A 1755   5.437  16.100   9.042 -0.1915  0.0566 -0.1058
  110loPI   C6A 1756   5.489  15.989   8.555  0.1523  0.2182 -0.0493
  110loPI   C1B 1757   5.718  16.433  10.694  0.1107  0.2187 -0.0853
  110loPI   C2B 1758   5.577  16.508  10.294 -0.1513 -0.0388 -0.2020
  110loPI   C3B 1759   5.701  16.592   9.817  0.1406 -0.1990  0.4773
  110loPI   C4B 1760   5.604  16.593   9.331 -0.0039 -0.0775  0.1497
  111loPI    C1 1761   7.746  13.252  11.701  0.1890 -0.0057  0.1143
  111loPI    C2 1762   7.626  12.922  11.893  0.1098 -0.1165 -0.1215
  111loPI    C3 1763   7.895  13.165  12.062  0.0697 -0.2309  0.1112
  111loPI   PO4 1764   7.750  13.172  11.418  0.0878  0.1708  0.1110
  111loPI   GL1 1765   7.940  12.831  11.193 -0.0048 -0.1194 -0.1675
  111loPI   GL2 1766   8.081  13.095  10.997  0.0562 -0.1393  0.1261
  111loPI   C1A 1767   7.807  12.603  10.843  0.0266  0.3391  0.0230
  111loPI   C2A 1768   7.643  12.568  10.459 -0.2180  0.0279 -0.1545
  111loPI   C3A 1769   7.530  12.462  10.038 -0.1736  0.0192 -0.0614
  111loPI   C4A 1770   7.562  12.657   9.636  0.0381  0.0346  0.0261
  111loPI   C5A 1771   7.558  12.824   9.240  0.1274 -0.2540  0.5229
  111loPI   C6A 1772   7.507  13.277   9.098 -0.0855  0.0388 -0.0002
  111loPI   C1B 1773   8.033  12.938  10.627 -0.0464  0.0770 -0.0729
  111loPI   C2B 1774   7.998  12.866  10.202  0.2489  0.1604 -0.0714
  111loPI   C3B 1775   7.900  12.975   9.785 -0.3516 -0.2036 -0.1831
  111loPI   C4B 1776   7.914  13.104   9.336 -0.0938 -0.1515 -0.1223
  112loPI    C1 1777  15.571  15.859  11.917  0.2391 -0.1657 -0.1555
  112loPI    C2 1778  15.535  15.508  12.105 -0.3661  0.0285  0.1174
  112loPI    C3 1779  15.594  15.843  12.316 -0.1283  0.1376 -0.1163
  112loPI   PO4 1780  15.412  15.811  11.659 -0.3549  0.2625  0.0106
  112loPI   GL1 1781  15.504  16.078  11.330  0.2335 -0.1391  0.1207
  112loPI   GL2 1782  15.377  15.985  11.015 -0.1951  0.0360 -0.1312
  112loPI   C1A 1783  15.789  16.269  11.011  0.3202 -0.0894 -0.1357
  112loPI   C2A 1784  15.979  16.291  10.581  0.3503 -0.2841  0.0756
  112loPI   C3A 1785  16.018  16.317  10.119 -0.0189  0.1294  0.0020
  112loPI   C4A 1786  16.002  16.286   9.610  0.2438 -0.2299  0.1195
  112loPI   C5A 1787  16.067  16.293   9.196 -0.0029 -0.0864 -0.3007
  112loPI   C6A 1788  16.038  16.429   8.791 -0.1391 -0.1398 -0.0847
  112loPI   C1B 1789  15.530  15.976  10.571  0.0950  0.1950  0.0053
  112loPI   C2B 1790  15.587  16.097  10.103  0.0035 -0.2789 -0.2058
  112loPI   C3B 1791  15.560  16.217   9.725  0.1716  0.2476  0.0257
  112loPI   C4B 1792  15.581  16.112   9.239  0.2090  0.2000 -0.0426
  113loPI    C1 1793   7.627  10.860  11.685  0.0381 -0.1099 -0.2566
  113loPI    C2 1794   7.496  10.533  11.875  0.0438  0.0547  0.0361
  113loPI    C3 1795   7.723  10.800  12.069  0.0502  0.2266 -0.2035
  113loPI   PO4 1796   7.651  10.825  11.475 -0.1990 -0.2794 -0.0252
  113loPI   GL1 1797   7.472  10.934  11.076  0.0119  0.0888  0.0857
  113loPI   GL2 1798   7.401  10.553  11.106  0.0634 -0.1930 -0.1202
  113loPI   C1A 1799   7.519  11.089  10.735  0.0631  0.0897 -0.1481
  113loPI   C2A 1800   7.530  11.123  10.317 -0.0980  0.2967 -0.2191
  113loPI   C3A 1801   7.567  11.241   9.838 -0.0184 -0.2801 -0.0334
  113loPI   C4A 1802   7.674  11.179   9.357  0.2435 -0.0792  0.1269
  113loPI   C5A 1803   7.880  11.259   8.951 -0.2484 -0.0868  0.1159
  113loPI   C6A 1804   7.976  11.417   8.554 -0.2738  0.0447 -0.1184
  113loPI   C1B 1805   7.641  10.571  10.700  0.1260  0.0140 -0.2336
  113loPI   C2B 1806   7.598  10.572  10.267  0.0736 -0.1502 -0.0385
  113loPI   C3B 1807   7.679  10.753   9.864 -0.0820 -0.2433  0.1246
  113loPI   C4B 1808   7.817  10.741   9.397 -0.0842  0.4916 -0.1780
  114loPI    C1 1809   2.453  14.956  11.677 -0.0712 -0.0849 -0.2319
  114loPI    C2 1810   2.717  14.756  11.902 -0.2490 -0.1175 -0.0492
  114loPI    C3 1811   2.353  14.839  12.046 -0.2435  0.1725 -0.1937
  114loPI   PO4 1812   2.638  15.091  11.497  0.3313  0.1827  0.0993
  114loPI   GL1 1813   2.611  15.219  11.120 -0.1424 -0.1265  0.1756
  114loPI   GL2 1814   2.629  14.935  10.945 -0.1204 -0.1635 -0.2688
  114loPI   C1A 1815   2.625  15.390  10.770  0.2008  0.2784 -0.1196
  114loPI   C2A 1816   2.724  15.393  10.329 -0.0959 -0.2816  0.1376
  114loPI   C3A 1817   2.811  15.395   9.847  0.1724 -0.1250  0.3290
  114loPI   C4A 1818   2.747  15.425   9.420 -0.2578  0.1925  0.0370
  114loPI   C5A 1819   2.800  15.471   9.098 -0.2152 -0.0867 -0.0759
  114loPI   C6A 1820   2.904  15.446   8.665 -0.2764 -0.0559  0.1451
  114loPI   C1B 1821   2.676  14.815  10.563 -0.1764 -0.0881  0.4157
  114loPI   C2B 1822   2.555  14.881  10.111  0.1961  0.2932 -0.1789
  114loPI   C3B 1823   2.709  14.960   9.659  0.1529  0.1034 -0.0036
  114loPI   C4B 1824   2.580  14.932   9.310  0.2237  0.2435 -0.3347
  115loPI    C1 1825   3.722   6.984  11.272 -0.0641 -0.1433  0.0522
  115loPI    C2 1826   3.584   6.725  11.544 -0.1171 -0.0129  0.1512
  115loPI    C3 1827   3.802   7.039  11.660 -0.2151  0.0928  0.0516
  115loPI   PO4 1828   3.548   7.089  11.130  0.4072  0.2120  0.0686
  115loPI   GL1 1829   3.357   7.097  10.809 -0.1960  0.0676 -0.1962
  115loPI   GL2 1830   3.455   6.760  10.724  0.0408  0.0688 -0.0698
  115loPI   C1A 1831   3.363   7.335  10.544 -0.1163  0.0856 -0.1295
  115loPI   C2A 1832   3.353   7.409  10.115  0.0445  0.2574 -0.0077
  115loPI   C3A 1833   3.245   7.370   9.666  0.0774 -0.3459 -0.1261
  115loPI   C4A 1834   3.157   7.379   9.306  0.0755  0.6685  0.1542
  115loPI   C5A 1835   3.049   7.317   8.832  0.1998  0.1387 -0.0748
  115loPI   C6A 1836   3.299   7.128   8.541  0.0199 -0.1511  0.2444
  115loPI   C1B 1837   3.278   6.855  10.330  0.1486 -0.0934 -0.4594
  115loPI   C2B 1838   3.131   6.812   9.898  0.0317  0.1351  0.0447
  115loPI   C3B 1839   3.053   6.939   9.524  0.0349  0.2225 -0.0047
  115loPI   C4B 1840   3.028   6.833   9.002  0.0412  0.1364 -0.0499
  116loPI    C1 1841   6.799   4.900  11.504 -0.0253 -0.1295  0.0218
  116loPI    C2 1842   6.998   4.653  11.747 -0.0632 -0.0257  0.1596
  116loPI    C3 1843   6.858   5.001  11.886 -0.1552 -0.0014  0.0091
  116loPI   PO4 1844   6.761   4.769  11.301  0.0346 -0.1321  0.0947
  116loPI   GL1 1845   6.771   4.668  10.857  0.1797 -0.1114  0.1425
  116loPI   GL2 1846   6.606   4.350  10.714  0.0424  0.0953  0.1220
  116loPI   C1A 1847   6.654   4.900  10.540  0.0407 -0.1531  0.1997
  116loPI   C2A 1848   6.551   4.970  10.149  0.3256  0.0403 -0.2352
  116loPI   C3A 1849   6.486   5.112   9.819 -0.3168  0.0422  0.2212
  116loPI   C4A 1850   6.541   5.095   9.442 -0.4089 -0.1920  0.0418
  116loPI   C5A 1851   6.625   5.041   9.092  0.0305 -0.1566  0.0943
  116loPI   C6A 1852   6.618   5.312   8.748 -0.2535  0.0501 -0.1307
  116loPI   C1B 1853   6.650   4.460  10.213  0.2488  0.0412 -0.5402
  116loPI   C2B 1854   6.689   4.609   9.721  0.2899  0.1933 -0.0884
  116loPI   C3B 1855   6.767   4.604   9.372 -0.0166 -0.0111 -0.0108
  116loPI   C4B 1856   6.790   4.570   8.938  0.0592 -0.0827  0.0512
  117loPI    C1 1857   2.334   0.664  11.927 -0.2315  0.0876  0.0743
  117loPI    C2 1858   2.542   0.869  12.200 -0.0265 -0.2607  0.1854
  117loPI    C3 1859   2.158   0.959  12.133 -0.0016  0.0101  0.3888
  117loPI   PO4 1860   2.391   0.728  11.680  0.3185 -0.1668 -0.3175
  117loPI   GL1 1861   2.036   0.547  11.431  0.0056  0.1070  0.2044
  117loPI   GL2 1862   2.149   0.788  11.261  0.1173  0.0259 -0.0690
  117loPI   C1A 1863   1.816   0.543  10.974 -0.1932  0.3334  0.1913
  117loPI   C2A 1864   1.756   0.522  10.602  0.2719  0.4000  0.1074
  117loPI   C3A 1865   1.703   0.591  10.188 -0.0980 -0.2463  0.2776
  117loPI   C4A 1866   1.791   0.570   9.748 -0.1745  0.3869 -0.2653
  117loPI   C5A 1867   1.826   0.484   9.412  0.2365 -0.0821 -0.0228
  117loPI   C6A 1868   1.564   0.504   9.049 -0.3138 -0.0994  0.0968
  117loPI   C1B 1869   1.941   1.052  10.907  0.0925 -0.0138  0.2174
  117loPI   C2B 1870   1.877   1.129  10.477  0.0723 -0.2962 -0.2326
  117loPI   C3B 1871   1.752   1.111  10.021 -0.0177 -0.1783  0.2188
  117loPI   C4B 1872   1.782   1.114   9.548 -0.1481  0.2379 -0.0163
  118loPI    C1 1873   7.846  12.267  11.913  0.0713  0.1452  0.0781
  118loPI    C2 1874   7.569  12.444  12.141  0.0225  0.0370  0.1035
  118loPI    C3 1875   7.824  12.181  12.303 -0.0726 -0.1106  0.0163
  118loPI   PO4 1876   7.672  12.284  11.680  0.0678 -0.0145 -0.1576
  118loPI   GL1 1877   7.728  12.321  11.270 -0.0212 -0.2565 -0.0120
  118loPI   GL2 1878   7.899  12.108  11.026  0.1923  0.0766 -0.1328
  118loPI   C1A 1879   7.349  12.490  11.042  0.4845  0.0166 -0.0645
  118loPI   C2A 1880   7.230  12.612  10.703 -0.0045  0.3187 -0.1703
  118loPI   C3A 1881   7.104  12.666  10.312  0.0578 -0.1874  0.0099
  118loPI   C4A 1882   7.098  12.675   9.864 -0.2712  0.2474 -0.4557
  118loPI   C5A 1883   7.043  12.684   9.413 -0.0275 -0.0839  0.2770
  118loPI   C6A 1884   7.020  13.077   9.181  0.0268 -0.0617  0.0885
  118loPI   C1B 1885   7.835  12.118  10.656 -0.1345 -0.0440  0.2194
  118loPI   C2B 1886   7.766  12.092  10.294 -0.3195  0.0049  0.0039
  118loPI   C3B 1887   7.700  12.055   9.862  0.1640 -0.2086 -0.4113
  118loPI   C4B 1888   7.668  12.109   9.495 -0.1527 -0.1821  0.1095
  119loPI    C1 1889   6.071  14.093  11.503 -0.0938 -0.0786 -0.1235
  119loPI    C2 1890   6.114  14.251  11.868 -0.0593  0.2043 -0.2470
  119loPI    C3 1891   5.905  13.914  11.819 -0.0778  0.1734  0.0308
  119loPI   PO4 1892   5.951  14.307  11.376 -0.1525  0.3559  0.1620
  119loPI   GL1 1893   5.774  14.312  10.988  0.2651 -0.0489 -0.0139
  119loPI   GL2 1894   5.813  13.995  10.932 -0.0520 -0.3980 -0.0873
  119loPI   C1A 1895   5.927  14.564  10.610  0.2848  0.0345 -0.1671
  119loPI   C2A 1896   5.979  14.519  10.216  0.0419  0.1622  0.1591
  119loPI   C3A 1897   6.004  14.626   9.804  0.0185  0.1564  0.0775
  119loPI   C4A 1898   5.934  14.647   9.293 -0.2940  0.0612 -0.3891
  119loPI   C5A 1899   5.841  14.736   8.888 -0.0087  0.3674  0.0328
  119loPI   C6A 1900   5.876  14.584   8.519 -0.0540  0.2575 -0.5386
  119loPI   C1B 1901   5.737  14.139  10.522 -0.3431  0.5793  0.0456
  119loPI   C2B 1902   5.676  14.197   9.935  0.0255 -0.1738  0.1322
  119loPI   C3B 1903   5.779  14.252   9.559 -0.0681 -0.1441 -0.0959
  119loPI   C4B 1904   5.665  14.257   9.113 -0.0922  0.1545 -0.1232
  120loPI    C1 1905   0.021   6.636  11.767 -0.3257  0.1152  0.0370
  120loPI    C2 1906   0.092   6.410  12.089 -0.0136  0.0829 -0.0519
  120loPI    C3 1907   0.010   6.799  12.132 -0.1227  0.0466  0.0749
  120loPI   PO4 1908  -0.148   6.550  11.637 -0.2112 -0.0464  0.1844
  120loPI   GL1 1909  -0.262   6.489  11.230  0.0255  0.1283  0.0124
  120loPI   GL2 1910  -0.390   6.777  10.983  0.0086 -0.2038  0.1748
  120loPI   C1A 1911  -0.082   6.519  10.717 -0.0568  0.0047  0.0449
  120loPI   C2A 1912  -0.021   6.614  10.355  0.0014  0.0628 -0.0931
  120loPI   C3A 1913  -0.037   6.670   9.987 -0.2979  0.2771  0.2828
  120loPI   C4A 1914  -0.093   6.695   9.680 -0.0656 -0.0367  0.1143
  120loPI   C5A 1915  -0.116   6.614   9.278 -0.0452 -0.1061 -0.0472
  120loPI   C6A 1916   0.088   6.571   8.918 -0.0582 -0.2336 -0.2771
  120loPI   C1B 1917  -0.383   7.010  10.525  0.0836 -0.2647 -0.0558
  120loPI   C2B 1918  -0.470   6.986  10.100 -0.0581  0.1473  0.1721
  120loPI   C3B 1919  -0.511   7.008   9.685  0.3485 -0.1970  0.1467
  120loPI   C4B 1920  -0.472   6.983   9.291  0.1546 -0.0960  0.0189
  121loPI    C1 1921   8.619   4.537  11.417 -0.0411 -0.0513  0.0046
  121loPI    C2 1922   8.644   4.810  11.707  0.0519  0.0030 -0.0540
  121loPI    C3 1923   8.834   4.460  11.745 -0.0962 -0.0689  0.0368
  121loPI   PO4 1924   8.734   4.532  11.226 -0.1316 -0.0173  0.2078
  121loPI   GL1 1925   8.906   4.273  10.880 -0.1771 -0.0041  0.0736
  121loPI   GL2 1926   8.605   4.164  10.890 -0.0976  0.2441 -0.0281
  121loPI   C1A 1927   8.831   4.239  10.438  0.0377 -0.2057 -0.0829
  121loPI   C2A 1928   8.800   4.323  10.008  0.2353  0.0073  0.1926
  121loPI   C3A 1929   8.839   4.307   9.644 -0.1804  0.3592  0.1342
  121loPI   C4A 1930   8.961   4.352   9.136 -0.0643 -0.1367 -0.1752
  121loPI   C5A 1931   8.892   4.341   8.687  0.0911  0.1619  0.1879
  121loPI   C6A 1932   8.824   3.947   8.505  0.1792 -0.0574 -0.1187
  121loPI   C1B 1933   8.270   4.348  10.657  0.0785 -0.0296 -0.0879
  121loPI   C2B 1934   8.265   4.322  10.220  0.2737 -0.1426  0.3161
  121loPI   C3B 1935   8.327   4.423   9.767  0.1647  0.0396  0.2423
  121loPI   C4B 1936   8.196   4.402   9.433 -0.1637  0.0009  0.0377
  122loPI    C1 1937   4.467   0.014  11.329  0.0235  0.1215  0.2106
  122loPI    C2 1938   4.155   0.171  11.134  0.0481  0.0110  0.0803
  122loPI    C3 1939   4.108   0.028  11.505 -0.0608 -0.0238  0.0533
  122loPI   PO4 1940   4.637  -0.006  11.152 -0.3873  0.1324 -0.0328
  122loPI   GL1 1941   4.634   0.204  10.801 -0.1421  0.1766  0.0076
  122loPI   GL2 1942   4.892   0.441  10.648 -0.2172  0.2619 -0.2775
  122loPI   C1A 1943   4.681   0.125  10.321 -0.2183 -0.1722 -0.2442
  122loPI   C2A 1944   4.769   0.147   9.931 -0.0961 -0.2160  0.1247
  122loPI   C3A 1945   4.708   0.264   9.496 -0.1615  0.2174  0.0640
  122loPI   C4A 1946   4.660   0.334   9.116 -0.2849  0.0453  0.0875
  122loPI   C5A 1947   4.761   0.351   8.762  0.2103  0.0289 -0.0890
  122loPI   C6A 1948   4.872   0.636   8.461 -0.0668 -0.1354  0.1105
  122loPI   C1B 1949   5.032   0.631  10.265 -0.0186 -0.0183  0.1848
  122loPI   C2B 1950   5.041   0.566   9.819 -0.1684  0.5394  0.0970
  122loPI   C3B 1951   4.969   0.641   9.428  0.0724 -0.2028 -0.0840
  122loPI   C4B 1952   5.037   0.728   8.990  0.0192 -0.1788  0.0050
  123loPI    C1 1953  12.978   6.233  11.271  0.0483  0.0075 -0.0191
  123loPI    C2 1954  12.663   6.237  11.024  0.0155 -0.1545  0.0189
  123loPI    C3 1955  12.673   6.482  11.341 -0.0244 -0.0747 -0.0412
  123loPI   PO4 1956  13.009   6.027  11.334 -0.1252 -0.3093  0.0258
  123loPI   GL1 1957  13.045   5.707  10.940 -0.0386 -0.2997 -0.1111
  123loPI   GL2 1958  12.990   6.062  10.727  0.3575  0.1635 -0.1011
  123loPI   C1A 1959  13.039   5.606  10.519  0.0539 -0.2345  0.2560
  123loPI   C2A 1960  13.178   5.496  10.102  0.1245  0.1093 -0.0613
  123loPI   C3A 1961  13.334   5.561   9.700  0.1538  0.1210  0.1169
  123loPI   C4A 1962  13.412   5.618   9.358  0.0902  0.0888 -0.0235
  123loPI   C5A 1963  13.597   5.720   8.980  0.0967  0.1732  0.1872
  123loPI   C6A 1964  13.571   5.939   8.625  0.0398  0.1468 -0.2212
  123loPI   C1B 1965  12.889   6.049  10.240  0.0654  0.0492  0.2190
  123loPI   C2B 1966  13.050   5.992   9.817  0.2766  0.1079  0.0158
  123loPI   C3B 1967  12.998   5.971   9.423  0.1000 -0.0835 -0.0034
  123loPI   C4B 1968  12.929   5.887   8.961 -0.0075  0.0649  0.1358
  124loPI    C1 1969  12.528   1.099  11.853 -0.3081 -0.0279  0.1121
  124loPI    C2 1970  12.494   1.484  11.957 -0.1530  0.0449 -0.0998
  124loPI    C3 1971  12.690   1.229  12.194  0.0285  0.1672 -0.1165
  124loPI   PO4 1972  12.460   1.159  11.534  0.4047  0.1150  0.1627
  124loPI   GL1 1973  12.290   0.912  11.124  0.2540 -0.1102 -0.1281
  124loPI   GL2 1974  12.180   0.612  11.183  0.0995 -0.1199  0.3744
  124loPI   C1A 1975  12.273   0.750  10.636  0.2553  0.1020 -0.0533
  124loPI   C2A 1976  12.260   0.833  10.159 -0.0057  0.0512 -0.0594
  124loPI   C3A 1977  12.327   0.894   9.685  0.3012  0.0328  0.1665
  124loPI   C4A 1978  12.409   0.800   9.312  0.1859  0.2302  0.2682
  124loPI   C5A 1979  12.513   0.447   9.076 -0.1447  0.1895 -0.0405
  124loPI   C6A 1980  12.608   0.323   8.748 -0.0202  0.2291 -0.1420
  124loPI   C1B 1981  12.613   0.451  10.951  0.2248 -0.0868 -0.0240
  124loPI   C2B 1982  12.750   0.438  10.477 -0.2564  0.0766  0.0630
  124loPI   C3B 1983  12.688   0.501  10.007 -0.0890 -0.0612  0.0942
  124loPI   C4B 1984  12.726   0.501   9.555  0.3093 -0.0025  0.3356
  125loPI    C1 1985  13.355   1.159  11.816  0.0074 -0.1664  0.0053
  125loPI    C2 1986  13.440   1.318  12.173 -0.1736  0.2289 -0.1222
  125loPI    C3 1987  13.162   1.032  12.142  0.1498 -0.1206  0.1085
  125loPI   PO4 1988  13.632   1.263  11.628 -0.0801 -0.0491  0.0805
  125loPI   GL1 1989  13.328   1.151  11.298 -0.0426 -0.0317 -0.0281
  125loPI   GL2 1990  13.276   1.483  11.272  0.1957  0.0330  0.0659
  125loPI   C1A 1991  13.130   1.258  10.870 -0.1981  0.2288 -0.3738
  125loPI   C2A 1992  13.156   1.183  10.477  0.1860  0.0531  0.1996
  125loPI   C3A 1993  13.250   1.169   9.991  0.3031 -0.2932 -0.2300
  125loPI   C4A 1994  13.311   1.173   9.605  0.0851  0.0117  0.0534
  125loPI   C5A 1995  13.581   1.337   9.179 -0.0705  0.0147 -0.1468
  125loPI   C6A 1996  13.404   1.693   8.847  0.0461  0.0719 -0.1432
  125loPI   C1B 1997  13.651   1.891  11.085 -0.0382 -0.0372  0.2391
  125loPI   C2B 1998  13.775   1.967  10.649  0.0233 -0.3159 -0.0717
  125loPI   C3B 1999  13.836   1.943  10.199 -0.2067  0.0073  0.1185
  125loPI   C4B 2000  13.730   1.938   9.735 -0.0691 -0.0424 -0.0938
  126loPI    C1 2001   4.406  15.100  11.740  0.0675 -0.0155  0.0693
  126loPI    C2 2002   4.207  14.794  11.903  0.1946  0.0046  0.2664
  126loPI    C3 2003   4.107  15.170  11.997 -0.0810  0.0330 -0.1147
  126loPI   PO4 2004   4.323  15.059  11.418  0.5098 -0.0085 -0.2977
  126loPI   GL1 2005   4.035  14.890  11.078 -0.1750 -0.1478  0.0717
  126loPI   GL2 2006   3.980  14.553  11.175 -0.1700  0.1348  0.0347
  126loPI   C1A 2007   4.059  14.877  10.669  0.1487  0.1182  0.2009
  126loPI   C2A 2008   4.074  14.951  10.233 -0.1953  0.1269  0.0881
  126loPI   C3A 2009   4.059  14.960   9.761  0.2305  0.3460 -0.2594
  126loPI   C4A 2010   3.999  14.821   9.268  0.2648  0.1130  0.1958
  126loPI   C5A 2011   4.021  14.887   8.856  0.1320 -0.2340 -0.2841
  126loPI   C6A 2012   4.306  15.052   8.573  0.1641 -0.2199  0.1188
  126loPI   C1B 2013   3.921  14.372  10.789 -0.0788 -0.3428  0.0422
  126loPI   C2B 2014   3.908  14.354  10.428  0.0098 -0.3238  0.0216
  126loPI   C3B 2015   3.940  14.438   9.978 -0.0143  0.0787 -0.0148
  126loPI   C4B 2016   4.018  14.396   9.521  0.0829  0.1272 -0.0919
  127loPI    C1 2017   8.921   9.890  11.515 -0.0431 -0.2260 -0.0162
  127loPI    C2 2018   8.577  10.094  11.497 -0.0842 -0.2909  0.0297
  127loPI    C3 2019   8.773  10.061  11.845  0.1577  0.0545 -0.0676
  127loPI   PO4 2020   9.107  10.068  11.312 -0.1629 -0.2756 -0.3681
  127loPI   GL1 2021   9.073   9.975  10.898 -0.0436 -0.2732  0.4587
  127loPI   GL2 2022   9.374   9.821  10.838  0.4125  0.0626 -0.0024
  127loPI   C1A 2023   9.021  10.085  10.477  0.0149 -0.3049  0.2217
  127loPI   C2A 2024   8.943  10.100   9.992 -0.0342  0.1418  0.0719
  127loPI   C3A 2025   9.045  10.130   9.583 -0.0108  0.2309 -0.0569
  127loPI   C4A 2026   9.192  10.423   9.282 -0.1674  0.1621 -0.0261
  127loPI   C5A 2027   9.092  10.591   8.971  0.1990  0.0176 -0.0329
  127loPI   C6A 2028   8.674  10.676   8.889 -0.1472 -0.2388  0.2130
  127loPI   C1B 2029   9.497   9.797  10.416 -0.1156 -0.1714  0.2386
  127loPI   C2B 2030   9.469   9.874   9.974 -0.0001  0.1728  0.3344
  127loPI   C3B 2031   9.638   9.978   9.505  0.0150 -0.0433  0.0324
  127loPI   C4B 2032   9.358   9.902   9.267  0.1993  0.3031 -0.0857
  128loPI    C1 2033   7.288   9.445  11.482 -0.0362  0.2224  0.0567
  128loPI    C2 2034   7.280   9.298  11.854 -0.0409  0.2185  0.0550
  128loPI    C3 2035   7.132   9.662  11.779 -0.2715  0.1172  0.0119
  128loPI   PO4 2036   7.211   9.213  11.309  0.3189  0.0520  0.0699
  128loPI   GL1 2037   7.127   9.152  10.898  0.0447 -0.3387  0.0662
  128loPI   GL2 2038   7.335   9.148  10.726  0.0751 -0.0239  0.3636
  128loPI   C1A 2039   6.850   9.372  10.508 -0.1256 -0.1501 -0.1270
  128loPI   C2A 2040   6.733   9.463  10.146  0.1217 -0.3207  0.0406
  128loPI   C3A 2041   6.927   9.530   9.756 -0.0990  0.4552  0.1423
  128loPI   C4A 2042   7.179   9.439   9.463  0.3539 -0.0343 -0.3433
  128loPI   C5A 2043   7.604   9.587   9.344 -0.0076 -0.2874  0.1272
  128loPI   C6A 2044   7.810   9.760   9.059  0.0239  0.1851  0.1555
  128loPI   C1B 2045   7.255   9.126  10.350  0.0584  0.1276 -0.0595
  128loPI   C2B 2046   7.216   9.038   9.879 -0.2671 -0.1227 -0.2485
  128loPI   C3B 2047   6.861   9.069   9.600  0.1331  0.1096 -0.2811
  128loPI   C4B 2048   6.746   9.289   9.218  0.1092  0.1915 -0.4290
  129loPI    C1 2049   6.782   2.032  11.619  0.3195  0.0117  0.0762
  129loPI    C2 2050   6.719   2.327  11.881  0.1495 -0.0161  0.0680
  129loPI    C3 2051   6.756   1.950  12.009 -0.0749 -0.0482  0.0410
  129loPI   PO4 2052   6.923   2.203  11.439  0.2152 -0.0908  0.0142
  129loPI   GL1 2053   6.855   2.334  11.043  0.0372  0.1451  0.0684
  129loPI   GL2 2054   6.565   2.503  10.900  0.0652 -0.0522  0.1439
  129loPI   C1A 2055   6.978   2.567  10.683  0.1462  0.1540  0.3459
  129loPI   C2A 2056   6.915   2.697  10.272 -0.0328 -0.0653  0.0267
  129loPI   C3A 2057   6.979   2.753   9.858 -0.1343 -0.0096 -0.1878
  129loPI   C4A 2058   7.061   2.792   9.425 -0.1125  0.0266 -0.0475
  129loPI   C5A 2059   7.213   2.823   8.997  0.2090  0.1588  0.1498
  129loPI   C6A 2060   7.091   3.033   8.647  0.0892 -0.3274  0.1769
  129loPI   C1B 2061   6.473   2.757  10.634 -0.2224  0.2175  0.2935
  129loPI   C2B 2062   6.410   2.755  10.172  0.0729  0.2317 -0.1894
  129loPI   C3B 2063   6.491   2.815   9.753  0.1982 -0.0212 -0.2490
  129loPI   C4B 2064   6.565   2.750   9.364 -0.1848 -0.1916 -0.0896
  130loPI    C1 2065  15.191  10.802  12.082  0.0607  0.0307  0.1333
  130loPI    C2 2066  14.994  11.011  12.359 -0.0460 -0.0753  0.1384
  130loPI    C3 2067  15.374  11.102  12.272 -0.1672  0.2801 -0.0351
  130loPI   PO4 2068  15.099  10.768  11.891 -0.2742  0.0991  0.0281
  130loPI   GL1 2069  15.226  10.747  11.461  0.0787 -0.1397 -0.3354
  130loPI   GL2 2070  15.600  10.709  11.349  0.0098 -0.0278  0.0478
  130loPI   C1A 2071  15.062  10.827  11.083  0.1202  0.0469  0.0471
  130loPI   C2A 2072  14.971  10.616  10.683  0.1165 -0.1316 -0.0813
  130loPI   C3A 2073  15.055  10.603  10.266 -0.1800 -0.0385  0.1707
  130loPI   C4A 2074  15.175  10.709   9.881  0.4691  0.0853 -0.2399
  130loPI   C5A 2075  15.274  10.725   9.511  0.1093  0.2192 -0.0611
  130loPI   C6A 2076  15.567  10.852   9.190 -0.1181  0.2192  0.0865
  130loPI   C1B 2077  15.549  10.863  10.940 -0.0299  0.2038  0.0751
  130loPI   C2B 2078  15.636  10.922  10.489  0.0945 -0.1632  0.2019
  130loPI   C3B 2079  15.654  10.839  10.098  0.1817 -0.0273  0.0697
  130loPI   C4B 2080  15.637  10.938   9.726  0.1270 -0.0531  0.1791
  131loPI    C1 2081   1.861   5.759  11.827 -0.3062  0.2807  0.2033
  131loPI    C2 2082   2.105   5.915  12.103  0.1264  0.0658 -0.0467
  131loPI    C3 2083   2.010   5.527  12.117 -0.0045  0.0957 -0.0923
  131loPI   PO4 2084   1.993   6.027  11.580  0.0329 -0.0335  0.1127
  131loPI   GL1 2085   1.936   6.019  11.078  0.1068 -0.0706 -0.0681
  131loPI   GL2 2086   1.764   6.229  11.029  0.1987  0.0064 -0.3243
  131loPI   C1A 2087   1.821   5.824  10.673  0.3392  0.4919 -0.2614
  131loPI   C2A 2088   1.746   5.838  10.273  0.0965  0.0822 -0.0148
  131loPI   C3A 2089   1.741   5.809   9.824  0.1823 -0.1105 -0.0292
  131loPI   C4A 2090   1.596   5.762   9.451  0.0374 -0.0622 -0.0688
  131loPI   C5A 2091   1.507   5.544   9.059  0.2180  0.0217  0.1748
  131loPI   C6A 2092   1.169   5.623   8.750 -0.1164  0.0872  0.3062
  131loPI   C1B 2093   1.910   6.344  10.611 -0.2033  0.0332 -0.0764
  131loPI   C2B 2094   1.711   6.419  10.210  0.1254  0.2929  0.0213
  131loPI   C3B 2095   1.763   6.330   9.843  0.0556 -0.0874  0.0798
  131loPI   C4B 2096   1.720   6.234   9.420 -0.1271  0.1225 -0.3232
  132loPI    C1 2097  11.322   5.588  11.380 -0.0348  0.0118 -0.1199
  132loPI    C2 2098  11.285   5.368  11.712  0.0439  0.0713 -0.0714
  132loPI    C3 2099  11.115   5.729  11.692  0.0432  0.0697 -0.0943
  132loPI   PO4 2100  11.494   5.275  11.185  0.1499  0.0740  0.2797
  132loPI   GL1 2101  11.496   4.994  10.807  0.3099  0.2252  0.0833
  132loPI   GL2 2102  11.266   4.731  10.599 -0.0616  0.1268 -0.0316
  132loPI   C1A 2103  11.717   5.062  10.482  0.0683 -0.1103  0.1091
  132loPI   C2A 2104  11.853   5.002  10.037  0.0711  0.0621  0.0634
  132loPI   C3A 2105  11.979   5.022   9.607  0.0782 -0.1048  0.0415
  132loPI   C4A 2106  12.010   5.093   9.215  0.0987  0.2046 -0.0913
  132loPI   C5A 2107  12.054   5.044   8.750  0.0754 -0.1210 -0.0413
  132loPI   C6A 2108  12.398   4.850   8.404  0.2902  0.3463  0.0119
  132loPI   C1B 2109  11.436   4.761  10.186 -0.1123 -0.2233 -0.1599
  132loPI   C2B 2110  11.396   4.895   9.823 -0.2056 -0.0463 -0.1102
  132loPI   C3B 2111  11.504   4.902   9.386 -0.1958  0.0360  0.1552
  132loPI   C4B 2112  11.507   4.891   8.927  0.0733  0.2828  0.0581
  133loPI    C1 2113  16.725  11.675  11.835  0.0275 -0.2448  0.0240
  133loPI    C2 2114  16.525  11.845  11.533  0.0602 -0.1750  0.0412
  133loPI    C3 2115  16.384  11.871  11.906  0.1816  0.0095  0.0752
  133loPI   PO4 2116  16.955  11.733  11.761 -0.0777  0.1597  0.2134
  133loPI   GL1 2117  16.981  11.888  11.326 -0.2687 -0.0003  0.2634
  133loPI   GL2 2118  16.856  12.301  11.174  0.1388 -0.4940 -0.1722
  133loPI   C1A 2119  17.120  11.929  10.986  0.0444  0.0920 -0.1225
  133loPI   C2A 2120  17.143  11.931  10.584  0.2196  0.1720  0.2700
  133loPI   C3A 2121  17.152  11.917  10.144  0.1838 -0.1752 -0.1133
  133loPI   C4A 2122  17.179  11.948   9.648  0.2563  0.1393 -0.1056
  133loPI   C5A 2123  17.447  11.724   9.163 -0.2022 -0.0067  0.0790
  133loPI   C6A 2124  17.524  11.401   9.036 -0.0044  0.0874 -0.2280
  133loPI   C1B 2125  16.760  12.244  10.754  0.1310  0.1132  0.0790
  133loPI   C2B 2126  16.815  12.324  10.331 -0.1741 -0.0122  0.0799
  133loPI   C3B 2127  16.745  12.245   9.874  0.1738 -0.2924 -0.2565
  133loPI   C4B 2128  16.766  12.171   9.466 -0.0590 -0.0269 -0.2821
  134loPI    C1 2129   1.298   2.194  11.651  0.1051  0.1026 -0.0406
  134loPI    C2 2130   1.285   1.802  11.730 -0.0614  0.1257  0.0513
  134loPI    C3 2131   1.598   2.020  11.850  0.0821  0.0019 -0.0930
  134loPI   PO4 2132   1.362   2.140  11.373  0.1083  0.0936  0.0323
  134loPI   GL1 2133   1.344   2.094  11.036  0.0437 -0.3208 -0.2759
  134loPI   GL2 2134   1.576   1.931  10.908  0.0790  0.1588  0.0115
  134loPI   C1A 2135   1.184   2.208  10.605 -0.0123 -0.0730 -0.2873
  134loPI   C2A 2136   1.071   2.298  10.304 -0.4451  0.0441  0.1447
  134loPI   C3A 2137   1.018   2.219   9.833  0.2550  0.0773  0.1582
  134loPI   C4A 2138   0.992   2.317   9.416  0.1993 -0.0165  0.3697
  134loPI   C5A 2139   1.074   2.435   8.951  0.2770 -0.0419 -0.1175
  134loPI   C6A 2140   1.371   2.601   8.657 -0.0890 -0.1097  0.3872
  134loPI   C1B 2141   1.563   1.924  10.413 -0.1927  0.1418 -0.0048
  134loPI   C2B 2142   1.430   2.022   9.984  0.1418  0.1575  0.0241
  134loPI   C3B 2143   1.362   1.950   9.562  0.0460 -0.0631 -0.0645
  134loPI   C4B 2144   1.327   1.957   9.196  0.0432 -0.1423 -0.0804
  135loPI    C1 2145  14.940   9.371  12.055 -0.1535 -0.2655 -0.1548
  135loPI    C2 2146  15.246   9.166  12.212  0.1205  0.3535  0.1573
  135loPI    C3 2147  14.908   9.215  12.421  0.0860  0.2932  0.1164
  135loPI   PO4 2148  14.934   9.292  11.767 -0.0733 -0.3084 -0.1050
  135loPI   GL1 2149  15.033   9.469  11.477  0.1806 -0.2415 -0.0152
  135loPI   GL2 2150  15.045   9.227  11.270 -0.3223 -0.0581 -0.2905
  135loPI   C1A 2151  14.949   9.632  11.053 -0.4413  0.2081 -0.2043
  135loPI   C2A 2152  14.969   9.629  10.630 -0.1266 -0.0227  0.2861
  135loPI   C3A 2153  15.076   9.590  10.220  0.1623  0.0800 -0.1376
  135loPI   C4A 2154  14.933   9.688   9.788  0.2638  0.1573 -0.1957
  135loPI   C5A 2155  14.883   9.728   9.454 -0.3588 -0.0703  0.2252
  135loPI   C6A 2156  14.872   9.472   9.061 -0.2065  0.2310  0.3766
  135loPI   C1B 2157  14.899   9.136  10.841 -0.0573 -0.3082  0.3706
  135loPI   C2B 2158  14.852   9.123  10.458  0.1637  0.0190 -0.1663
  135loPI   C3B 2159  14.828   9.135  10.019 -0.3121  0.0625  0.1897
  135loPI   C4B 2160  14.865   9.179   9.477  0.0541  0.0851  0.0138
  136loPI    C1 2161  15.849  16.697  11.974 -0.2572  0.1860 -0.0264
  136loPI    C2 2162  15.742  16.332  12.097  0.0833  0.0624 -0.0859
  136loPI    C3 2163  16.033  16.530  12.287  0.1905  0.1259 -0.3123
  136loPI   PO4 2164  15.830  16.691  11.703  0.3269 -0.1919 -0.2999
  136loPI   GL1 2165  15.962  16.739  11.297  0.0896  0.1113  0.0043
  136loPI   GL2 2166  16.261  16.833  11.263 -0.0439  0.0918 -0.0926
  136loPI   C1A 2167  15.785  16.753  10.857 -0.0181 -0.3877  0.1126
  136loPI   C2A 2168  15.642  16.636  10.363 -0.3909  0.1276  0.0162
  136loPI   C3A 2169  15.667  16.643   9.931  0.1390  0.1017 -0.3326
  136loPI   C4A 2170  15.656  16.648   9.480 -0.2221 -0.0856  0.0369
  136loPI   C5A 2171  15.597  16.606   9.045 -0.1362 -0.2312 -0.0818
  136loPI   C6A 2172  15.603  16.695   8.591  0.0247  0.0112 -0.2914
  136loPI   C1B 2173  16.167  17.033  10.898  0.2755 -0.0959  0.0200
  136loPI   C2B 2174  16.225  17.222  10.454 -0.1882 -0.3247  0.0048
  136loPI   C3B 2175  16.238  17.271   9.961  0.0527 -0.5767 -0.0520
  136loPI   C4B 2176  16.198  17.387   9.442  0.4669  0.0805 -0.2216
  137loPI    C1 2177  10.882   6.013  11.312  0.1969 -0.0326 -0.3258
  137loPI    C2 2178  11.267   6.096  11.240  0.1748  0.2589 -0.1257
  137loPI    C3 2179  11.111   6.167  11.601  0.0794 -0.4138 -0.0212
  137loPI   PO4 2180  10.901   5.766  11.167  0.0677  0.1992  0.1074
  137loPI   GL1 2181  11.182   5.625  10.851 -0.2159 -0.0716 -0.1679
  137loPI   GL2 2182  11.449   5.759  10.909 -0.0338  0.0890  0.0720
  137loPI   C1A 2183  11.406   5.466  10.547 -0.2002  0.0864 -0.1134
  137loPI   C2A 2184  11.449   5.375  10.072 -0.0387  0.1964 -0.0190
  137loPI   C3A 2185  11.615   5.391   9.690  0.1171  0.0684 -0.0741
  137loPI   C4A 2186  11.570   5.339   9.180  0.2090  0.0073 -0.1678
  137loPI   C5A 2187  11.555   5.399   8.719 -0.0214 -0.3086  0.1015
  137loPI   C6A 2188  11.787   5.333   8.392  0.0996  0.4795  0.0312
  137loPI   C1B 2189  11.520   5.953  10.545  0.0707  0.2389 -0.0575
  137loPI   C2B 2190  11.568   5.836  10.081  0.0497 -0.2917  0.1251
  137loPI   C3B 2191  11.624   5.903   9.667 -0.1384 -0.0659  0.0805
  137loPI   C4B 2192  11.725   5.964   9.198  0.0224  0.1490 -0.0077
  138loPI    C1 2193   6.596   1.307  11.387  0.1454  0.2549  0.2030
  138loPI    C2 2194   6.229   1.228  11.525  0.0868  0.0224 -0.0774
  138loPI    C3 2195   6.541   1.013  11.653  0.0601 -0.0683 -0.1636
  138loPI   PO4 2196   6.664   1.236  11.156  0.0831  0.2366 -0.2285
  138loPI   GL1 2197   6.861   1.400  10.821  0.0731 -0.0373 -0.2076
  138loPI   GL2 2198   6.578   1.427  10.665  0.0731  0.1506 -0.0640
  138loPI   C1A 2199   6.928   1.689  10.379 -0.1001 -0.2728 -0.0734
  138loPI   C2A 2200   6.943   1.831   9.937 -0.2483  0.0993 -0.1042
  138loPI   C3A 2201   6.848   1.899   9.547 -0.0525 -0.0488  0.0188
  138loPI   C4A 2202   6.976   1.837   9.115  0.1411  0.0816 -0.3037
  138loPI   C5A 2203   6.853   2.006   8.697  0.1299  0.0190  0.3924
  138loPI   C6A 2204   6.702   2.222   8.340 -0.0922 -0.0138  0.1569
  138loPI   C1B 2205   6.480   1.376  10.251 -0.2419 -0.1746  0.3336
  138loPI   C2B 2206   6.597   1.481   9.827  0.1938  0.0848 -0.0113
  138loPI   C3B 2207   6.683   1.437   9.366  0.0661  0.1597  0.1750
  138loPI   C4B 2208   6.664   1.357   8.919 -0.0998  0.2351  0.0089
  139loPI    C1 2209  12.525   2.352  11.733 -0.0885 -0.1954 -0.1322
  139loPI    C2 2210  12.141   2.455  11.771 -0.0170  0.0569 -0.0747
  139loPI    C3 2211  12.428   2.705  11.894  0.1645 -0.1725 -0.0249
  139loPI   PO4 2212  12.483   2.154  11.378 -0.1544 -0.2990  0.3238
  139loPI   GL1 2213  12.278   2.153  11.003  0.0244  0.2458 -0.1934
  139loPI   GL2 2214  12.295   1.843  11.035  0.1377  0.3585  0.1588
  139loPI   C1A 2215  12.396   2.341  10.559  0.2161 -0.0808 -0.0021
  139loPI   C2A 2216  12.454   2.373  10.113  0.2712  0.1290 -0.0276
  139loPI   C3A 2217  12.526   2.449   9.683  0.3144  0.1400  0.1866
  139loPI   C4A 2218  12.503   2.386   9.273  0.2118 -0.0683 -0.1167
  139loPI   C5A 2219  12.697   2.228   8.959 -0.0156  0.0632 -0.0871
  139loPI   C6A 2220  12.440   2.006   8.646 -0.1104  0.1284  0.0632
  139loPI   C1B 2221  12.316   1.698  10.636  0.0548  0.3491  0.2415
  139loPI   C2B 2222  12.397   1.841  10.161 -0.2587  0.0697  0.0480
  139loPI   C3B 2223  12.499   1.888   9.685 -0.0930  0.0648 -0.2157
  139loPI   C4B 2224  12.466   1.746   9.205 -0.1422 -0.2046 -0.0102
  140loPI    C1 2225   3.618  11.415  11.785  0.1889 -0.0198  0.0149
  140loPI    C2 2226   3.427  11.230  12.084  0.2840 -0.1779 -0.0205
  140loPI    C3 2227   3.714  11.497  12.164 -0.0368  0.1590  0.0352
  140loPI   PO4 2228   3.616  11.262  11.616 -0.2013 -0.1315 -0.1224
  140loPI   GL1 2229   3.518  11.348  11.100  0.2066  0.1009 -0.3156
  140loPI   GL2 2230   3.251  11.208  11.231 -0.2197 -0.0275  0.0936
  140loPI   C1A 2231   3.447  11.401  10.597 -0.0156  0.3188 -0.1411
  140loPI   C2A 2232   3.479  11.296  10.189  0.2350  0.1446 -0.1601
  140loPI   C3A 2233   3.461  11.425   9.750  0.1461 -0.0665  0.0287
  140loPI   C4A 2234   3.621  11.537   9.397 -0.4222 -0.1592  0.1726
  140loPI   C5A 2235   3.647  11.534   8.990  0.0233 -0.0467 -0.0168
  140loPI   C6A 2236   3.848  11.542   8.517 -0.0757  0.1690  0.2048
  140loPI   C1B 2237   3.022  11.171  10.852  0.0181  0.0620 -0.0747
  140loPI   C2B 2238   3.019  11.106  10.395 -0.0681 -0.1283 -0.0640
  140loPI   C3B 2239   3.019  11.188   9.945  0.0780 -0.1651 -0.0551
  140loPI   C4B 2240   2.948  11.082   9.512  0.0377 -0.0452  0.1042
  141loPI    C1 2241   1.512  13.038  11.622  0.0785 -0.0335 -0.0200
  141loPI    C2 2242   1.529  12.964  12.015  0.0141  0.0093 -0.0090
  141loPI    C3 2243   1.200  13.127  11.857  0.0174 -0.0619 -0.0900
  141loPI   PO4 2244   1.598  12.846  11.467 -0.3089  0.0957  0.0224
  141loPI   GL1 2245   1.741  12.860  11.102 -0.1398  0.1347 -0.1548
  141loPI   GL2 2246   1.439  13.048  10.960 -0.4850  0.1841 -0.2058
  141loPI   C1A 2247   1.799  12.724  10.754 -0.0369 -0.0389  0.0129
  141loPI   C2A 2248   1.820  12.631  10.392  0.2285  0.3099 -0.1817
  141loPI   C3A 2249   1.794  12.688   9.967  0.0665 -0.1435  0.0084
  141loPI   C4A 2250   1.987  12.650   9.518 -0.1414  0.0798  0.0226
  141loPI   C5A 2251   1.970  12.412   9.197  0.0047 -0.1427 -0.0520
  141loPI   C6A 2252   1.968  12.083   8.917  0.0207  0.0061 -0.0129
  141loPI   C1B 2253   1.371  12.970  10.577  0.0458  0.2813 -0.1439
  141loPI   C2B 2254   1.421  12.964  10.183 -0.1278  0.0038 -0.0717
  141loPI   C3B 2255   1.350  13.032   9.762  0.1439  0.2296 -0.0487
  141loPI   C4B 2256   1.608  12.921   9.390  0.1428 -0.1839 -0.5266
  142loPI    C1 2257  11.919  10.585  11.548  0.1431 -0.0487  0.3344
  142loPI    C2 2258  11.597  10.823  11.535  0.2412  0.0715  0.0178
  142loPI    C3 2259  11.697  10.641  11.877 -0.1018  0.1156  0.1456
  142loPI   PO4 2260  12.096  10.722  11.302 -0.0189 -0.3156 -0.1321
  142loPI   GL1 2261  11.931  10.823  10.969 -0.1464 -0.0969 -0.1601
  142loPI   GL2 2262  11.663  10.615  11.075 -0.2453 -0.0149 -0.2683
  142loPI   C1A 2263  11.917  10.783  10.577  0.3404  0.0655  0.1898
  142loPI   C2A 2264  11.923  10.868  10.158 -0.0479 -0.2624 -0.0442
  142loPI   C3A 2265  11.992  10.901   9.704  0.1762  0.0283 -0.2377
  142loPI   C4A 2266  12.038  10.874   9.359  0.1248  0.0260  0.0750
  142loPI   C5A 2267  12.094  11.031   9.008 -0.1595  0.4426  0.1690
  142loPI   C6A 2268  12.197  11.208   8.665 -0.3298  0.1640  0.0120
  142loPI   C1B 2269  11.433  10.601  10.709  0.3531  0.1780 -0.1457
  142loPI   C2B 2270  11.450  10.689  10.462  0.1025  0.2497  0.4446
  142loPI   C3B 2271  11.448  10.680  10.042  0.0783 -0.0670  0.0460
  142loPI   C4B 2272  11.530  10.744   9.611  0.3521  0.2078 -0.3511
  143loPI    C1 2273  15.929   3.880  11.995  0.1176 -0.0615 -0.1807
  143loPI    C2 2274  15.937   4.199  12.236  0.0894 -0.3117  0.1579
  143loPI    C3 2275  16.271   3.989  12.172  0.1781 -0.0409 -0.3092
  143loPI   PO4 2276  15.774   3.866  11.752  0.1225 -0.3148 -0.3464
  143loPI   GL1 2277  15.861   3.799  11.336 -0.2384  0.3287  0.1675
  143loPI   GL2 2278  15.939   4.060  11.158 -0.0050 -0.1677  0.0551
  143loPI   C1A 2279  15.801   3.683  10.869  0.1944  0.0139 -0.1075
  143loPI   C2A 2280  15.890   3.688  10.398  0.3239 -0.0106  0.0899
  143loPI   C3A 2281  15.915   3.606  10.029  0.1604  0.0970  0.2791
  143loPI   C4A 2282  15.878   3.779   9.559 -0.1866 -0.0154  0.0189
  143loPI   C5A 2283  15.813   3.729   9.021 -0.3482 -0.0118  0.2764
  143loPI   C6A 2284  15.630   3.779   8.729  0.1343 -0.3445  0.0947
  143loPI   C1B 2285  15.952   4.106  10.650  0.0190 -0.2291  0.3215
  143loPI   C2B 2286  15.973   4.191  10.222 -0.0523 -0.1618 -0.1294
  143loPI   C3B 2287  15.863   4.252   9.809  0.2541  0.1252 -0.0990
  143loPI   C4B 2288  15.968   4.383   9.432 -0.2190  0.0146  0.0901
  144loPI    C1 2289  16.519   5.455  11.679 -0.2782  0.1669 -0.0421
  144loPI    C2 2290  16.711   5.804  11.722 -0.1033  0.0688 -0.0207
  144loPI    C3 2291  16.581   5.606  12.045 -0.2109  0.1187 -0.0334
  144loPI   PO4 2292  16.646   5.309  11.410 -0.0730 -0.0939  0.1228
  144loPI   GL1 2293  16.562   5.209  11.045  0.2208 -0.0880 -0.1047
  144loPI   GL2 2294  16.563   4.857  10.856  0.2151 -0.0947 -0.0120
  144loPI   C1A 2295  16.616   5.370  10.658  0.4333 -0.0459  0.2596
  144loPI   C2A 2296  16.680   5.358  10.251 -0.0458 -0.0647 -0.0806
  144loPI   C3A 2297  16.590   5.484   9.840  0.1156 -0.1652 -0.1035
  144loPI   C4A 2298  16.592   5.540   9.472  0.1695  0.2102  0.2505
  144loPI   C5A 2299  16.724   5.628   9.074  0.0808 -0.0623  0.1193
  144loPI   C6A 2300  16.828   5.910   8.774  0.2672 -0.2210  0.0478
  144loPI   C1B 2301  16.521   4.854  10.491  0.3863  0.0793 -0.0717
  144loPI   C2B 2302  16.525   4.911  10.035 -0.2164  0.0342 -0.1314
  144loPI   C3B 2303  16.505   5.068   9.640  0.0082  0.0732  0.2565
  144loPI   C4B 2304  16.498   5.139   9.243 -0.0195  0.1606  0.1624
  145loPI    C1 2305   3.601   0.096  11.577  0.1256  0.1889  0.1792
  145loPI    C2 2306   3.258  -0.082  11.680  0.0237  0.3388  0.1035
  145loPI    C3 2307   3.303   0.312  11.733  0.2052  0.3112  0.1636
  145loPI   PO4 2308   3.597   0.128  11.299  0.3109 -0.0975  0.0589
  145loPI   GL1 2309   3.347   0.174  10.885 -0.0902 -0.0121  0.1030
  145loPI   GL2 2310   3.026   0.059  10.846  0.1180 -0.1788 -0.1803
  145loPI   C1A 2311   3.536   0.162  10.474 -0.0406  0.1080  0.1519
  145loPI   C2A 2312   3.699   0.139  10.106  0.3487 -0.0327 -0.0727
  145loPI   C3A 2313   3.621   0.226   9.685  0.0900  0.0379  0.4592
  145loPI   C4A 2314   3.564   0.358   9.202  0.2060  0.4551  0.1914
  145loPI   C5A 2315   3.308   0.441   8.850  0.0663  0.0092  0.0826
  145loPI   C6A 2316   3.012   0.268   8.598  0.1427 -0.0040  0.1934
  145loPI   C1B 2317   3.033   0.026  10.383  0.2357  0.2164  0.1239
  145loPI   C2B 2318   3.222   0.141   9.998 -0.0743 -0.1676  0.0964
  145loPI   C3B 2319   3.151   0.089   9.590  0.2573  0.1340 -0.1679
  145loPI   C4B 2320   3.083   0.083   9.175 -0.1153  0.0341 -0.1060
  146loPI    C1 2321   5.456  14.579  11.512  0.1414 -0.0704 -0.1463
  146loPI    C2 2322   5.219  14.410  11.786 -0.0375  0.0001 -0.2554
  146loPI    C3 2323   5.613  14.344  11.794 -0.0785 -0.2439 -0.1651
  146loPI   PO4 2324   5.349  14.505  11.338 -0.1848 -0.0282 -0.2127
  146loPI   GL1 2325   5.196  14.279  11.116  0.1747  0.0290  0.0805
  146loPI   GL2 2326   5.317  14.030  10.970  0.0756 -0.0450  0.1233
  146loPI   C1A 2327   5.429  14.501  10.692  0.2334  0.2998 -0.2367
  146loPI   C2A 2328   5.449  14.492  10.254  0.1270  0.0856  0.1636
  146loPI   C3A 2329   5.268  14.460   9.861 -0.1020  0.0928 -0.0983
  146loPI   C4A 2330   5.277  14.393   9.464  0.1598 -0.1532  0.0903
  146loPI   C5A 2331   4.934  14.447   9.101 -0.2840 -0.1322  0.1432
  146loPI   C6A 2332   4.683  14.146   8.975  0.0916 -0.1304 -0.2586
  146loPI   C1B 2333   5.247  14.018  10.526  0.1366  0.1936 -0.0048
  146loPI   C2B 2334   5.245  14.005  10.139 -0.0073  0.0891  0.0758
  146loPI   C3B 2335   5.292  13.964   9.755 -0.0104 -0.2227  0.0332
  146loPI   C4B 2336   5.342  13.852   9.419 -0.1194  0.0036 -0.0080
  147loPI    C1 2337   3.085  15.131  11.944  0.2544  0.0076 -0.1719
  147loPI    C2 2338   3.198  14.855  12.212  0.0650 -0.1047 -0.2057
  147loPI    C3 2339   3.162  15.238  12.321 -0.0489 -0.1561 -0.0600
  147loPI   PO4 2340   3.212  15.005  11.710  0.1921 -0.0149  0.0142
  147loPI   GL1 2341   3.345  15.095  11.264 -0.2014  0.0970 -0.0124
  147loPI   GL2 2342   3.046  15.017  11.185 -0.0546 -0.2370  0.1417
  147loPI   C1A 2343   3.507  14.782  10.912 -0.1834  0.1156  0.0196
  147loPI   C2A 2344   3.571  14.672  10.490 -0.0845 -0.2442  0.0634
  147loPI   C3A 2345   3.463  14.708  10.066  0.2469 -0.0426 -0.2099
  147loPI   C4A 2346   3.563  14.710   9.682  0.1100 -0.1202  0.0166
  147loPI   C5A 2347   3.504  14.770   9.175 -0.3125 -0.0619  0.0118
  147loPI   C6A 2348   3.554  14.998   8.666 -0.1671 -0.0478  0.0221
  147loPI   C1B 2349   3.087  15.154  10.762  0.0156  0.1338 -0.0742
  147loPI   C2B 2350   3.076  14.995  10.388 -0.1445 -0.2789 -0.0389
  147loPI   C3B 2351   3.119  15.018   9.952 -0.0011  0.4650  0.1014
  147loPI   C4B 2352   3.192  14.973   9.531  0.1730 -0.2178  0.1114
  148loPI    C1 2353  13.275   6.841  11.634 -0.0732  0.0669  0.0820
  148loPI    C2 2354  12.995   7.059  11.817  0.0491  0.0826  0.2529
  148loPI    C3 2355  13.126   6.720  11.984 -0.1273 -0.1157 -0.0026
  148loPI   PO4 2356  13.103   6.791  11.379 -0.1596 -0.0099  0.0987
  148loPI   GL1 2357  13.177   6.613  11.040  0.2609 -0.1857 -0.1012
  148loPI   GL2 2358  13.351   6.938  10.987  0.1162 -0.1837 -0.0392
  148loPI   C1A 2359  13.188   6.495  10.729 -0.1530 -0.1497 -0.0502
  148loPI   C2A 2360  13.185   6.491  10.358  0.1977 -0.2081  0.1054
  148loPI   C3A 2361  13.199   6.497   9.919  0.1966 -0.0514  0.1000
  148loPI   C4A 2362  13.137   6.489   9.454 -0.2156  0.1354 -0.1406
  148loPI   C5A 2363  12.989   6.518   9.036 -0.0448 -0.3104  0.0869
  148loPI   C6A 2364  12.876   6.679   8.617 -0.0146  0.3028 -0.1906
  148loPI   C1B 2365  13.550   7.138  10.639  0.2260  0.0369  0.3239
  148loPI   C2B 2366  13.621   7.000  10.233 -0.1190 -0.1828 -0.1069
  148loPI   C3B 2367  13.741   7.196   9.819 -0.1269  0.2099  0.0644
  148loPI   C4B 2368  13.746   7.082   9.403  0.2471  0.1607  0.1091
  149loPI    C1 2369  15.265  13.710  11.996  0.0909  0.0022  0.0776
  149loPI    C2 2370  15.589  13.714  12.230  0.1402 -0.0853  0.0116
  149loPI    C3 2371  15.502  13.388  12.015  0.0372 -0.0432 -0.0111
  149loPI   PO4 2372  15.323  13.980  11.813  0.0641  0.0369 -0.2098
  149loPI   GL1 2373  15.387  14.101  11.418 -0.1887  0.3051 -0.0927
  149loPI   GL2 2374  15.614  13.975  11.260 -0.0652 -0.2028 -0.0371
  149loPI   C1A 2375  15.345  14.211  10.923 -0.1908 -0.1596 -0.0970
  149loPI   C2A 2376  15.324  14.482  10.584 -0.2476 -0.1338  0.2516
  149loPI   C3A 2377  15.359  14.546  10.126  0.1760 -0.0759 -0.1011
  149loPI   C4A 2378  15.453  14.627   9.739 -0.1844 -0.3150 -0.2369
  149loPI   C5A 2379  15.436  14.590   9.250 -0.0801 -0.4015  0.0757
  149loPI   C6A 2380  15.690  14.568   8.927  0.1953  0.0378  0.1642
  149loPI   C1B 2381  15.749  13.877  10.891 -0.0448 -0.0869  0.0676
  149loPI   C2B 2382  15.733  13.764  10.506 -0.0267  0.0836  0.2232
  149loPI   C3B 2383  15.606  13.754  10.098  0.0948  0.1203 -0.2014
  149loPI   C4B 2384  15.801  13.748   9.701 -0.0095  0.1768  0.2401
  150loPI    C1 2385  12.494   7.371  11.865  0.0625 -0.0562  0.1566
  150loPI    C2 2386  12.515   7.695  12.098 -0.1526  0.0357  0.0510
  150loPI    C3 2387  12.188   7.465  12.105 -0.0567 -0.1031  0.0242
  150loPI   PO4 2388  12.505   7.503  11.599  0.1857 -0.0049 -0.1880
  150loPI   GL1 2389  12.592   7.626  11.203  0.0650 -0.1212  0.1119
  150loPI   GL2 2390  12.515   7.373  11.047 -0.3560 -0.0700 -0.1738
  150loPI   C1A 2391  12.699   7.855  10.873  0.3177 -0.2969 -0.1375
  150loPI   C2A 2392  12.813   7.865  10.453  0.0622 -0.0292 -0.2370
  150loPI   C3A 2393  12.887   7.886  10.033  0.3719  0.0601 -0.0172
  150loPI   C4A 2394  12.989   7.752   9.678 -0.1347 -0.0673  0.0697
  150loPI   C5A 2395  13.031   7.810   9.272 -0.3810  0.2368  0.0891
  150loPI   C6A 2396  13.298   8.166   8.995 -0.2849  0.1255 -0.1057
  150loPI   C1B 2397  12.763   7.393  10.580 -0.1689  0.0301 -0.1354
  150loPI   C2B 2398  12.824   7.419  10.130 -0.1480 -0.0644  0.0079
  150loPI   C3B 2399  12.801   7.284   9.729  0.0643 -0.1040 -0.4163
  150loPI   C4B 2400  12.855   7.323   9.366  0.0630 -0.2779  0.0619
  151loPI    C1 2401  10.698   2.549  11.399  0.1687  0.1677 -0.0090
  151loPI    C2 2402  10.397   2.734  11.586 -0.0103 -0.1103 -0.0150
  151loPI    C3 2403  10.754   2.700  11.765  0.0589  0.3299 -0.0585
  151loPI   PO4 2404  10.603   2.320  11.291 -0.3536  0.3743 -0.4135
  151loPI   GL1 2405  10.554   2.116  10.913 -0.0900 -0.0053 -0.0554
  151loPI   GL2 2406  10.238   2.186  10.860 -0.0013 -0.2479  0.2166
  151loPI   C1A 2407  10.662   2.120  10.551  0.0696  0.1318  0.1319
  151loPI   C2A 2408  10.590   2.088  10.086  0.1236  0.1232 -0.1325
  151loPI   C3A 2409  10.699   1.978   9.657 -0.0240 -0.1812 -0.2809
  151loPI   C4A 2410  10.563   1.948   9.220  0.0425 -0.0836 -0.3345
  151loPI   C5A 2411  10.130   1.898   9.079 -0.1838  0.2040  0.0472
  151loPI   C6A 2412   9.804   1.883   8.867  0.1544 -0.2338  0.0785
  151loPI   C1B 2413  10.176   1.980  10.420 -0.2758 -0.2409  0.0412
  151loPI   C2B 2414  10.119   1.875  10.037  0.2310 -0.4229  0.1812
  151loPI   C3B 2415  10.081   1.831   9.606 -0.1592  0.0353  0.1767
  151loPI   C4B 2416   9.817   2.063   9.423  0.1198 -0.0333 -0.1603
  152loPI    C1 2417   1.754   6.816  11.771 -0.1836  0.0751  0.1551
  152loPI    C2 2418   1.425   6.602  11.850 -0.1940  0.0312 -0.0047
  152loPI    C3 2419   1.786   6.456  11.942 -0.2209  0.0987  0.2119
  152loPI   PO4 2420   1.703   6.899  11.428  0.2313 -0.0901  0.3008
  152loPI   GL1 2421   1.321   7.002  11.216 -0.2311  0.1495  0.2946
  152loPI   GL2 2422   1.248   6.699  11.277  0.0628 -0.0658  0.0440
  152loPI   C1A 2423   1.326   7.211  10.808  0.3551 -0.0475  0.2044
  152loPI   C2A 2424   1.385   7.261  10.437  0.0059 -0.1323  0.4374
  152loPI   C3A 2425   1.381   7.308  10.050  0.1589  0.1216  0.1500
  152loPI   C4A 2426   1.395   7.253   9.622  0.1174 -0.2289  0.2698
  152loPI   C5A 2427   1.356   7.058   9.286  0.2659  0.1106 -0.0514
  152loPI   C6A 2428   1.526   6.530   9.111 -0.0600  0.1869  0.2151
  152loPI   C1B 2429   1.431   6.631  10.792  0.0359 -0.0581  0.1385
  152loPI   C2B 2430   1.341   6.774  10.365 -0.2318  0.0666 -0.0609
  152loPI   C3B 2431   1.289   6.831   9.944  0.2370 -0.2241  0.1132
  152loPI   C4B 2432   1.307   6.673   9.595 -0.0325 -0.3133 -0.1677
  153loPI    C1 2433   6.997   7.003  11.429  0.0940  0.0963 -0.1647
  153loPI    C2 2434   6.958   7.347  11.228  0.0375  0.2191  0.0532
  153loPI    C3 2435   6.892   7.337  11.622  0.0708 -0.0358  0.0541
  153loPI   PO4 2436   7.143   6.887  11.272  0.0606  0.2595 -0.0147
  153loPI   GL1 2437   7.137   6.967  10.863 -0.0103  0.3028  0.1204
  153loPI   GL2 2438   7.405   6.919  10.834 -0.1004 -0.2145  0.2896
  153loPI   C1A 2439   7.149   7.168  10.396 -0.5283  0.0611 -0.1646
  153loPI   C2A 2440   7.106   7.337  10.011 -0.0851 -0.1573  0.1109
  153loPI   C3A 2441   7.124   7.347   9.545 -0.0318 -0.0706 -0.1348
  153loPI   C4A 2442   7.017   7.358   9.166 -0.0994  0.1293  0.1239
  153loPI   C5A 2443   6.730   7.400   8.894  0.0636 -0.2002 -0.0918
  153loPI   C6A 2444   6.416   7.283   8.634  0.3697  0.0764 -0.2207
  153loPI   C1B 2445   7.261   6.713  10.417 -0.0811 -0.0852  0.2251
  153loPI   C2B 2446   7.303   6.838   9.950  0.0604  0.1132 -0.1240
  153loPI   C3B 2447   7.277   6.725   9.463 -0.1208 -0.0936 -0.0768
  153loPI   C4B 2448   7.339   6.721   8.998  0.0358 -0.0855 -0.0729
  154loPI    C1 2449   4.168   7.238  11.199  0.1373 -0.0205 -0.1490
  154loPI    C2 2450   4.101   7.428  11.544  0.0464  0.0720 -0.2168
  154loPI    C3 2451   4.476   7.343  11.432  0.0761  0.0410 -0.0953
  154loPI   PO4 2452   4.027   7.284  11.080  0.0304 -0.2780  0.1585
  154loPI   GL1 2453   3.857   7.649  10.873 -0.0803 -0.1781  0.3957
  154loPI   GL2 2454   3.567   7.606  10.919 -0.0108 -0.0060  0.1508
  154loPI   C1A 2455   3.919   7.608  10.398 -0.2525 -0.2223 -0.1264
  154loPI   C2A 2456   3.817   7.585  10.058 -0.0326  0.0057 -0.0656
  154loPI   C3A 2457   3.648   7.586   9.555 -0.0740  0.0287 -0.1033
  154loPI   C4A 2458   3.569   7.548   9.169  0.1384 -0.0387  0.1691
  154loPI   C5A 2459   3.479   7.605   8.737  0.0438 -0.6037 -0.1055
  154loPI   C6A 2460   3.195   7.616   8.457  0.0495  0.0593  0.3583
  154loPI   C1B 2461   3.439   7.833  10.553 -0.1748  0.3353 -0.1424
  154loPI   C2B 2462   3.405   7.916  10.115 -0.2443 -0.2908 -0.1946
  154loPI   C3B 2463   3.292   7.917   9.727  0.0915  0.3557 -0.0068
  154loPI   C4B 2464   3.218   7.856   9.338  0.0045  0.1471 -0.3312
  155loPI    C1 2465  13.326   2.728  11.501  0.1272  0.1327 -0.2089
  155loPI    C2 2466  13.263   2.946  11.830 -0.1186 -0.1128 -0.0899
  155loPI    C3 2467  13.569   2.690  11.817 -0.0742 -0.0609 -0.0742
  155loPI   PO4 2468  13.209   2.846  11.358 -0.2112 -0.0121 -0.0651
  155loPI   GL1 2469  13.098   2.921  11.077  0.3343 -0.2395 -0.0364
  155loPI   GL2 2470  12.904   3.159  10.734 -0.3212  0.1005  0.1807
  155loPI   C1A 2471  13.243   2.758  10.719  0.0803  0.3099 -0.0041
  155loPI   C2A 2472  13.426   2.730  10.238 -0.1326 -0.0011  0.0129
  155loPI   C3A 2473  13.451   2.804   9.757 -0.2252  0.0201  0.0985
  155loPI   C4A 2474  13.507   2.732   9.330 -0.1995 -0.0726 -0.0578
  155loPI   C5A 2475  13.377   2.736   8.975 -0.1240 -0.2210 -0.1211
  155loPI   C6A 2476  12.966   2.539   8.628  0.2640  0.1182 -0.0268
  155loPI   C1B 2477  12.936   3.145  10.296 -0.0949  0.2177 -0.0010
  155loPI   C2B 2478  13.010   3.060   9.823  0.1316  0.1960  0.0767
  155loPI   C3B 2479  13.112   3.125   9.387 -0.1330 -0.0960 -0.1098
  155loPI   C4B 2480  12.933   2.987   8.933 -0.1379 -0.0778 -0.0419
  156loPI    C1 2481  16.466  16.072  11.759  0.0175  0.0683  0.1808
  156loPI    C2 2482  16.507  15.853  12.091  0.0928 -0.1245  0.0463
  156loPI    C3 2483  16.192  16.095  12.049 -0.0431 -0.2795  0.1560
  156loPI   PO4 2484  16.533  15.908  11.583  0.4086 -0.1851 -0.0021
  156loPI   GL1 2485  16.768  15.943  11.134 -0.0971 -0.2834 -0.1241
  156loPI   GL2 2486  16.926  15.678  11.060  0.0825 -0.1935  0.3712
  156loPI   C1A 2487  16.941  16.128  10.627  0.1213  0.0922  0.2710
  156loPI   C2A 2488  16.906  16.214  10.248  0.1181  0.3282 -0.0104
  156loPI   C3A 2489  16.914  16.231   9.784  0.1761 -0.1359  0.0559
  156loPI   C4A 2490  16.986  16.246   9.292  0.1601 -0.2845 -0.3000
  156loPI   C5A 2491  16.922  15.994   8.989 -0.1267 -0.1322 -0.2340
  156loPI   C6A 2492  16.793  15.933   8.575 -0.2027 -0.3273 -0.0318
  156loPI   C1B 2493  16.768  15.683  10.691 -0.1375 -0.2484  0.0220
  156loPI   C2B 2494  16.854  15.654  10.350 -0.0583  0.1006 -0.0465
  156loPI   C3B 2495  16.865  15.742   9.891  0.0684 -0.2542 -0.0501
  156loPI   C4B 2496  16.873  15.793   9.487 -0.0064 -0.2158  0.0227
  157loPI    C1 2497   9.011  17.249  11.349  0.1353  0.3732  0.1120
  157loPI    C2 2498   8.923  17.020  11.664  0.0446  0.2861  0.0244
  157loPI    C3 2499   9.107  17.371  11.717  0.0383  0.2677  0.1728
  157loPI   PO4 2500   9.131  17.132  11.166 -0.1552  0.0075 -0.3619
  157loPI   GL1 2501   9.277  17.026  10.803  0.0682  0.2028  0.1709
  157loPI   GL2 2502   9.504  17.244  10.801  0.0094 -0.0864 -0.3276
  157loPI   C1A 2503   9.331  16.856  10.429  0.1738  0.1222 -0.1100
  157loPI   C2A 2504   9.314  16.914   9.962 -0.0671  0.0236 -0.1106
  157loPI   C3A 2505   9.347  17.032   9.463  0.3166 -0.1722 -0.0900
  157loPI   C4A 2506   9.358  17.282   9.057 -0.1572 -0.1828  0.1624
  157loPI   C5A 2507   9.347  17.143   8.615 -0.0898  0.0352 -0.0718
  157loPI   C6A 2508   9.519  17.413   8.369 -0.1114  0.2066 -0.0697
  157loPI   C1B 2509   9.620  17.264  10.410 -0.4129 -0.0219 -0.1223
  157loPI   C2B 2510   9.732  17.270  10.101  0.2581 -0.2353 -0.1129
  157loPI   C3B 2511   9.645  17.287   9.733  0.0797  0.2304  0.0556
  157loPI   C4B 2512   9.801  17.315   9.352  0.2363 -0.2136  0.0660
  158loPI    C1 2513   4.202  16.734  11.335 -0.2767 -0.0047 -0.2259
  158loPI    C2 2514   4.170  16.842  11.719 -0.1348  0.0157 -0.2193
  158loPI    C3 2515   4.233  16.459  11.624 -0.2204  0.0027 -0.2249
  158loPI   PO4 2516   4.293  16.872  11.225 -0.1834  0.0480 -0.0038
  158loPI   GL1 2517   4.722  16.861  10.986 -0.3442  0.0346 -0.1426
  158loPI   GL2 2518   4.792  16.636  10.813  0.0975 -0.0193  0.2876
  158loPI   C1A 2519   4.883  17.122  10.624 -0.0212 -0.1372  0.0458
  158loPI   C2A 2520   4.970  17.083  10.188 -0.2093  0.0825 -0.2689
  158loPI   C3A 2521   4.931  17.060   9.733 -0.0245  0.2775  0.0556
  158loPI   C4A 2522   4.803  17.079   9.379 -0.1955  0.0276 -0.2068
  158loPI   C5A 2523   4.597  17.177   8.922 -0.0628  0.1853 -0.1552
  158loPI   C6A 2524   4.249  17.318   8.721 -0.0796  0.2549  0.1037
  158loPI   C1B 2525   4.718  16.698  10.351 -0.0907 -0.0115  0.0866
  158loPI   C2B 2526   4.750  16.637   9.838 -0.1126  0.0966 -0.1576
  158loPI   C3B 2527   4.789  16.573   9.450 -0.2068 -0.1066  0.1933
  158loPI   C4B 2528   4.717  16.627   9.034 -0.1018 -0.0013  0.1485
  159loPI    C1 2529   2.508   8.337  11.930 -0.0833  0.0662 -0.0576
  159loPI    C2 2530   2.157   8.264  12.108 -0.0398 -0.2019 -0.0778
  159loPI    C3 2531   2.414   7.964  12.042  0.1586 -0.0208 -0.1383
  159loPI   PO4 2532   2.542   8.490  11.646 -0.0421  0.0048  0.2477
  159loPI   GL1 2533   2.270   8.509  11.242  0.3614  0.1618 -0.3233
  159loPI   GL2 2534   2.444   8.250  11.163  0.0982  0.5507  0.0192
  159loPI   C1A 2535   2.124   8.416  10.788 -0.1681  0.1462 -0.1929
  159loPI   C2A 2536   2.109   8.377  10.393  0.1547  0.0765  0.2949
  159loPI   C3A 2537   2.054   8.430   9.999 -0.0430  0.2814 -0.2216
  159loPI   C4A 2538   2.058   8.368   9.633 -0.0000  0.0148 -0.2383
  159loPI   C5A 2539   2.010   8.406   9.204  0.3027 -0.0380  0.3057
  159loPI   C6A 2540   1.922   8.633   8.823  0.0211  0.1579  0.0957
  159loPI   C1B 2541   2.627   8.532  10.808  0.0633  0.1654 -0.0273
  159loPI   C2B 2542   2.637   8.556  10.408 -0.1710 -0.2352 -0.0684
  159loPI   C3B 2543   2.503   8.700   9.952  0.0672 -0.0306 -0.1452
  159loPI   C4B 2544   2.530   8.519   9.565 -0.2164 -0.1280 -0.0595
  160loPI    C1 2545  11.360   0.301  11.624 -0.0068 -0.2515  0.2472
  160loPI    C2 2546  10.989   0.230  11.757 -0.0956 -0.0785  0.0970
  160loPI    C3 2547  11.264   0.387  12.002 -0.2703  0.2811  0.0687
  160loPI   PO4 2548  11.224   0.288  11.288 -0.0003  0.3503 -0.2065
  160loPI   GL1 2549  10.991   0.370  10.897  0.2766  0.1553 -0.2543
  160loPI   GL2 2550  11.336   0.359  10.826 -0.0104 -0.3033 -0.0357
  160loPI   C1A 2551  10.703   0.332  10.603 -0.0764 -0.1400  0.2692
  160loPI   C2A 2552  10.775   0.297  10.156  0.1329 -0.2020 -0.2355
  160loPI   C3A 2553  10.851   0.352   9.754 -0.0526  0.2699  0.2314
  160loPI   C4A 2554  10.804   0.244   9.265  0.0442  0.0974  0.0687
  160loPI   C5A 2555  10.464   0.256   9.031  0.0548 -0.0398  0.2823
  160loPI   C6A 2556  10.166   0.070   8.884 -0.1423  0.0823 -0.1420
  160loPI   C1B 2557  11.241   0.484  10.465 -0.0794  0.1128 -0.0185
  160loPI   C2B 2558  11.350   0.432  10.087 -0.0435 -0.1875  0.1189
  160loPI   C3B 2559  11.332   0.487   9.643  0.0061 -0.0781 -0.0885
  160loPI   C4B 2560  11.327   0.464   9.213 -0.0587 -0.2239 -0.2752
  161loPI    C1 2561   5.327   2.943  11.466 -0.1149  0.1278 -0.0285
  161loPI    C2 2562   5.529   2.611  11.559 -0.1713  0.1247  0.0847
  161loPI    C3 2563   5.301   2.790  11.835 -0.2394  0.1875 -0.0117
  161loPI   PO4 2564   5.382   2.976  11.248 -0.3255 -0.1604  0.0528
  161loPI   GL1 2565   5.330   3.199  10.950  0.1035 -0.3726  0.0497
  161loPI   GL2 2566   4.927   3.268  10.922  0.1648 -0.0430 -0.0963
  161loPI   C1A 2567   5.154   2.945  10.688 -0.0307  0.0209 -0.1992
  161loPI   C2A 2568   5.411   2.847  10.329  0.0726  0.2944 -0.0758
  161loPI   C3A 2569   5.367   2.808   9.952  0.0675  0.1430  0.1445
  161loPI   C4A 2570   5.595   2.883   9.563  0.2092  0.5344 -0.3407
  161loPI   C5A 2571   5.709   3.000   9.164 -0.1034  0.0407 -0.2417
  161loPI   C6A 2572   5.981   3.249   8.961  0.0930  0.5113  0.3154
  161loPI   C1B 2573   5.036   3.364  10.516  0.1344  0.3128 -0.0082
  161loPI   C2B 2574   5.102   3.328  10.137 -0.0055  0.0717 -0.2499
  161loPI   C3B 2575   5.229   3.285   9.735 -0.0488  0.2135 -0.1075
  161loPI   C4B 2576   5.294   3.440   9.379 -0.1281  0.1444  0.2954
  162loPI    C1 2577   1.696   8.918  11.890 -0.0055 -0.0124 -0.0351
  162loPI    C2 2578   2.085   8.991  11.946 -0.0275  0.0295  0.0663
  162loPI    C3 2579   1.903   8.707  12.160 -0.0364 -0.0404 -0.0333
  162loPI   PO4 2580   1.695   8.925  11.640  0.1303  0.0533  0.0664
  162loPI   GL1 2581   1.878   8.938  11.299  0.1493  0.0898 -0.1269
  162loPI   GL2 2582   1.671   9.180  11.249 -0.2197 -0.2289  0.3333
  162loPI   C1A 2583   2.234   9.024  11.007  0.2799 -0.0235 -0.0409
  162loPI   C2A 2584   2.308   8.910  10.601  0.0277  0.0853  0.0209
  162loPI   C3A 2585   2.146   8.887  10.217  0.1325 -0.0863  0.1505
  162loPI   C4A 2586   2.068   8.890   9.805 -0.2117  0.1661 -0.0274
  162loPI   C5A 2587   2.049   8.873   9.369  0.0213 -0.0756  0.0226
  162loPI   C6A 2588   2.201   9.031   8.910  0.1746  0.5815  0.0855
  162loPI   C1B 2589   1.811   9.284  10.916  0.3000  0.1200 -0.0056
  162loPI   C2B 2590   1.876   9.219  10.558 -0.1622  0.1379 -0.0092
  162loPI   C3B 2591   1.704   9.293  10.086  0.0210  0.1586  0.0949
  162loPI   C4B 2592   1.722   9.267   9.626  0.2967 -0.0359 -0.1600
  163loPI    C1 2593   5.516  16.991  11.703 -0.3394 -0.0616 -0.0327
  163loPI    C2 2594   5.408  16.661  11.902  0.0991 -0.2219 -0.0503
  163loPI    C3 2595   5.637  16.937  12.080 -0.0698 -0.0386 -0.1137
  163loPI   PO4 2596   5.522  16.842  11.438 -0.3006 -0.2634  0.1989
  163loPI   GL1 2597   5.518  16.731  11.067 -0.1270 -0.0508 -0.1715
  163loPI   GL2 2598   5.294  16.816  10.899  0.0560 -0.0297 -0.1052
  163loPI   C1A 2599   5.816  16.891  10.736 -0.0238 -0.1056  0.4332
  163loPI   C2A 2600   5.956  16.928  10.298  0.3464 -0.0822  0.1077
  163loPI   C3A 2601   5.967  16.982   9.824  0.0187 -0.0045  0.1449
  163loPI   C4A 2602   5.838  17.007   9.463 -0.2659 -0.0672  0.0099
  163loPI   C5A 2603   5.589  17.093   9.041  0.0489 -0.4299 -0.0499
  163loPI   C6A 2604   5.530  17.248   8.601 -0.0835  0.3815 -0.1326
  163loPI   C1B 2605   5.392  17.023  10.422 -0.0194  0.2197 -0.2643
  163loPI   C2B 2606   5.380  16.915  10.004  0.3824 -0.0577 -0.1419
  163loPI   C3B 2607   5.377  16.933   9.547  0.0973  0.0596 -0.0971
  163loPI   C4B 2608   5.168  16.819   9.146 -0.0351  0.2065  0.0722
  164loPI    C1 2609   3.578  10.158  12.019 -0.1533 -0.0910 -0.0489
  164loPI    C2 2610   3.675  10.441  12.285 -0.0104 -0.1818 -0.0036
  164loPI    C3 2611   3.404  10.162  12.379 -0.1415 -0.0686 -0.0434
  164loPI   PO4 2612   3.696  10.285  11.689 -0.2819 -0.0915 -0.1437
  164loPI   GL1 2613   3.807  10.329  11.142 -0.2982  0.2544 -0.2146
  164loPI   GL2 2614   3.443  10.262  11.251  0.1516  0.0429 -0.1034
  164loPI   C1A 2615   3.798  10.475  10.769 -0.0140  0.1586 -0.1706
  164loPI   C2A 2616   3.796  10.507  10.284 -0.4980 -0.1667  0.0067
  164loPI   C3A 2617   3.807  10.453   9.884  0.0401  0.0489  0.2867
  164loPI   C4A 2618   3.680  10.406   9.475  0.1666 -0.0182 -0.3497
  164loPI   C5A 2619   3.739  10.511   9.057 -0.2646  0.0132  0.1056
  164loPI   C6A 2620   4.151  10.592   8.789  0.1195  0.2156  0.1520
  164loPI   C1B 2621   3.375  10.266  10.927 -0.3719 -0.0048 -0.1450
  164loPI   C2B 2622   3.387  10.286  10.544 -0.0715 -0.1982 -0.0607
  164loPI   C3B 2623   3.355  10.299  10.102  0.3041 -0.2115  0.0418
  164loPI   C4B 2624   3.249  10.323   9.666  0.1220  0.0979 -0.2159
  165loPI    C1 2625  11.652  14.225  11.504 -0.0494 -0.0476 -0.1872
  165loPI    C2 2626  11.510  13.996  11.800  0.1438 -0.0784 -0.1171
  165loPI    C3 2627  11.733  14.317  11.885  0.3496 -0.1885 -0.2333
  165loPI   PO4 2628  11.776  14.089  11.389 -0.1721 -0.1376  0.0296
  165loPI   GL1 2629  12.075  14.120  11.094  0.0288 -0.0612  0.0335
  165loPI   GL2 2630  12.382  13.981  10.986 -0.0266 -0.1969  0.1823
  165loPI   C1A 2631  12.061  14.209  10.704  0.1375 -0.1319  0.0137
  165loPI   C2A 2632  12.099  14.273  10.256 -0.0074  0.2395  0.2841
  165loPI   C3A 2633  12.106  14.245   9.839 -0.0716 -0.0840  0.0141
  165loPI   C4A 2634  12.163  14.240   9.419 -0.1305 -0.0233  0.1738
  165loPI   C5A 2635  11.813  14.436   9.146 -0.2732  0.2216 -0.1631
  165loPI   C6A 2636  11.495  14.806   9.080 -0.1025  0.2375  0.2861
  165loPI   C1B 2637  12.536  13.865  10.554 -0.0698 -0.0835  0.0474
  165loPI   C2B 2638  12.542  13.917  10.135  0.1192  0.0236 -0.0098
  165loPI   C3B 2639  12.495  13.973   9.703  0.0113  0.1792 -0.0489
  165loPI   C4B 2640  12.715  14.034   9.417 -0.0113 -0.1469  0.1766
  166loPI    C1 2641   5.834   0.825  11.755 -0.0848  0.0287  0.0118
  166loPI    C2 2642   5.557   0.951  12.015 -0.2910 -0.1517 -0.1169
  166loPI    C3 2643   5.767   0.619  12.091 -0.0287  0.0439  0.0325
  166loPI   PO4 2644   5.746   1.044  11.469 -0.2462 -0.1718 -0.0373
  166loPI   GL1 2645   5.900   1.278  11.176  0.2665  0.0814 -0.1630
  166loPI   GL2 2646   6.152   1.153  10.970  0.0309  0.0545 -0.0318
  166loPI   C1A 2647   5.936   1.421  10.603 -0.0396  0.1320 -0.1267
  166loPI   C2A 2648   6.046   1.505  10.119  0.1817 -0.0664  0.1921
  166loPI   C3A 2649   6.042   1.410   9.655  0.2940  0.0659 -0.2621
  166loPI   C4A 2650   6.178   1.517   9.261 -0.3113 -0.2271  0.2805
  166loPI   C5A 2651   6.093   1.279   8.915  0.1819  0.0138  0.0273
  166loPI   C6A 2652   6.333   1.265   8.562  0.1919 -0.2287  0.2419
  166loPI   C1B 2653   6.376   0.971  10.640  0.3404 -0.2080 -0.0915
  166loPI   C2B 2654   6.334   0.811  10.230 -0.2693 -0.0124  0.0411
  166loPI   C3B 2655   6.319   1.015   9.877  0.2876  0.1407 -0.0498
  166loPI   C4B 2656   6.414   1.008   9.459  0.2116 -0.1605 -0.3119
  167loPI    C1 2657   8.870  15.440  11.670 -0.1825 -0.0964 -0.0241
  167loPI    C2 2658   9.084  15.708  11.875  0.0490 -0.2045 -0.1198
  167loPI    C3 2659   8.689  15.756  11.835  0.0521 -0.0060  0.0651
  167loPI   PO4 2660   9.085  15.372  11.496 -0.1009  0.1917  0.2074
  167loPI   GL1 2661   9.074  15.442  11.067 -0.0922 -0.1614 -0.0285
  167loPI   GL2 2662   8.908  15.138  11.126 -0.0225  0.1847  0.1413
  167loPI   C1A 2663   8.936  15.551  10.593  0.1625 -0.1544  0.3578
  167loPI   C2A 2664   8.938  15.703  10.136 -0.0537  0.2808 -0.1605
  167loPI   C3A 2665   8.826  15.695   9.715 -0.3136  0.0372  0.0952
  167loPI   C4A 2666   8.705  15.816   9.303 -0.0460  0.1167 -0.2645
  167loPI   C5A 2667   8.955  15.783   8.909 -0.3511 -0.3556  0.1429
  167loPI   C6A 2668   9.287  15.758   8.696 -0.0366 -0.2339 -0.1198
  167loPI   C1B 2669   9.057  15.063  10.719 -0.0169  0.0257 -0.0082
  167loPI   C2B 2670   9.148  15.144  10.359  0.4356  0.2298 -0.0128
  167loPI   C3B 2671   9.034  15.185   9.896  0.0265  0.0083  0.1151
  167loPI   C4B 2672   8.933  15.176   9.412  0.0364  0.0976 -0.1542
  168loPI    C1 2673  11.292   7.065  11.409 -0.1437  0.0152  0.0199
  168loPI    C2 2674  11.207   6.756  11.648  0.0128 -0.0786 -0.0440
  168loPI    C3 2675  11.494   7.015  11.751  0.1438 -0.1712 -0.1723
  168loPI   PO4 2676  11.013   7.093  11.293 -0.0683  0.2372  0.2118
  168loPI   GL1 2677  10.936   7.072  10.788  0.0351 -0.1112 -0.1667
  168loPI   GL2 2678  11.263   6.895  10.867  0.1232  0.1829 -0.1224
  168loPI   C1A 2679  10.683   7.025  10.361  0.1236  0.3187  0.1030
  168loPI   C2A 2680  10.698   6.953   9.957  0.1150  0.0280 -0.1437
  168loPI   C3A 2681  10.924   7.076   9.612 -0.0180  0.1650 -0.0402
  168loPI   C4A 2682  11.125   7.024   9.130  0.0114  0.3223 -0.0022
  168loPI   C5A 2683  11.301   6.802   8.793 -0.1903  0.0626  0.1011
  168loPI   C6A 2684  11.564   6.669   8.495  0.0676 -0.2531  0.0235
  168loPI   C1B 2685  11.194   6.863  10.430  0.1045 -0.2257 -0.0616
  168loPI   C2B 2686  11.228   6.941  10.043  0.1069  0.2650  0.4266
  168loPI   C3B 2687  11.286   6.761   9.575  0.0291  0.2230  0.1954
  168loPI   C4B 2688  11.454   6.683   9.233  0.0360 -0.0576  0.1834
  169loPI    C1 2689   6.010  11.255  11.734  0.1052  0.3382  0.0236
  169loPI    C2 2690   5.747  11.034  11.940  0.4388 -0.2498 -0.1547
  169loPI    C3 2691   5.935  11.340  12.118 -0.2052  0.0567  0.0302
  169loPI   PO4 2692   5.968  11.259  11.556  0.0891  0.0072 -0.1096
  169loPI   GL1 2693   6.143  11.104  11.200 -0.0424 -0.0652 -0.1090
  169loPI   GL2 2694   6.288  11.307  11.167 -0.1720  0.1849 -0.1201
  169loPI   C1A 2695   6.211  10.884  10.833 -0.3012 -0.1738 -0.0813
  169loPI   C2A 2696   6.259  10.828  10.407 -0.1124  0.0641 -0.0894
  169loPI   C3A 2697   6.140  10.897  10.043 -0.2467  0.2177 -0.2651
  169loPI   C4A 2698   6.090  11.089   9.766 -0.1090  0.1183 -0.2538
  169loPI   C5A 2699   6.170  11.423   9.487 -0.3155  0.2807  0.3339
  169loPI   C6A 2700   6.361  11.524   9.042  0.0853  0.0117  0.0187
  169loPI   C1B 2701   6.293  11.440  10.728  0.2160 -0.0725 -0.1500
  169loPI   C2B 2702   6.410  11.429  10.309  0.2777 -0.1885  0.2160
  169loPI   C3B 2703   6.545  11.326   9.938  0.1879 -0.0565 -0.1415
  169loPI   C4B 2704   6.639  11.378   9.488 -0.2023 -0.0097 -0.3681
  170loPI    C1 2705   7.526  15.064  11.796  0.0054 -0.1222  0.0917
  170loPI    C2 2706   7.500  15.400  12.011  0.3011  0.0516 -0.1357
  170loPI    C3 2707   7.632  15.063  12.181  0.0303  0.0539  0.0861
  170loPI   PO4 2708   7.562  15.203  11.537 -0.0462  0.3938  0.1016
  170loPI   GL1 2709   7.702  15.145  11.084 -0.2111  0.0630  0.3819
  170loPI   GL2 2710   7.621  15.367  10.815  0.1508 -0.0662 -0.1562
  170loPI   C1A 2711   7.774  14.848  10.705  0.2636  0.0666 -0.1073
  170loPI   C2A 2712   7.758  14.842  10.320  0.1435 -0.4189  0.3414
  170loPI   C3A 2713   7.711  14.888   9.837  0.3671  0.3299  0.2374
  170loPI   C4A 2714   7.677  14.982   9.504 -0.0084  0.0962  0.0489
  170loPI   C5A 2715   7.719  15.045   9.071  0.0477  0.1512  0.0901
  170loPI   C6A 2716   7.760  14.828   8.751  0.1573  0.3654 -0.2325
  170loPI   C1B 2717   7.541  15.294  10.444 -0.1184 -0.1523 -0.0350
  170loPI   C2B 2718   7.574  15.312  10.012 -0.0530  0.1753 -0.0797
  170loPI   C3B 2719   7.521  15.444   9.561  0.2329  0.3111  0.2063
  170loPI   C4B 2720   7.474  15.499   9.169 -0.0727 -0.2519 -0.0198
  171loPI    C1 2721  13.694   3.065  11.523 -0.0018  0.0769  0.1020
  171loPI    C2 2722  13.980   3.073  11.803 -0.1613 -0.0685  0.2718
  171loPI    C3 2723  13.635   3.264  11.866 -0.0366  0.2599 -0.0087
  171loPI   PO4 2724  13.806   2.990  11.313  0.0938 -0.0039  0.1012
  171loPI   GL1 2725  13.653   2.840  11.000 -0.1830 -0.1710  0.0473
  171loPI   GL2 2726  13.457   3.202  10.909  0.2142 -0.0557  0.1126
  171loPI   C1A 2727  13.796   2.877  10.574 -0.2037  0.2656  0.0255
  171loPI   C2A 2728  13.835   2.987  10.095  0.1656  0.1913 -0.0241
  171loPI   C3A 2729  13.931   2.952   9.609  0.0837 -0.1643 -0.0008
  171loPI   C4A 2730  13.956   2.877   9.241 -0.1356 -0.0654 -0.0009
  171loPI   C5A 2731  13.896   2.986   8.807  0.0103 -0.2706  0.2291
  171loPI   C6A 2732  13.765   2.940   8.392 -0.0826 -0.1051 -0.0150
  171loPI   C1B 2733  13.540   3.232  10.432  0.0427  0.1677 -0.2674
  171loPI   C2B 2734  13.415   3.284  10.101 -0.1046  0.1210 -0.1185
  171loPI   C3B 2735  13.536   3.331   9.677 -0.0440 -0.3332 -0.2350
  171loPI   C4B 2736  13.547   3.257   9.239  0.2076 -0.1489 -0.0540
  172loPI    C1 2737  12.332  15.831  11.654 -0.0742 -0.1050  0.1019
  172loPI    C2 2738  12.254  15.516  11.889 -0.1369 -0.1364  0.0394
  172loPI    C3 2739  11.996  15.821  11.871  0.0135  0.0052  0.2440
  172loPI   PO4 2740  12.351  15.705  11.359 -0.2766 -0.2003  0.3234
  172loPI   GL1 2741  12.185  15.874  10.919 -0.1863  0.1607 -0.1044
  172loPI   GL2 2742  11.961  15.677  10.921  0.1453  0.0106 -0.1379
  172loPI   C1A 2743  12.052  16.018  10.511  0.0847  0.1205 -0.2285
  172loPI   C2A 2744  12.159  15.947  10.058  0.1067  0.0629 -0.0891
  172loPI   C3A 2745  12.416  15.811   9.721 -0.0912 -0.2260  0.1623
  172loPI   C4A 2746  12.433  15.778   9.247  0.0509 -0.1724 -0.3685
  172loPI   C5A 2747  12.349  15.900   8.886 -0.3761  0.1282  0.1646
  172loPI   C6A 2748  12.349  16.137   8.638 -0.1650  0.3090 -0.2427
  172loPI   C1B 2749  11.738  15.620  10.489 -0.1595  0.1149 -0.2085
  172loPI   C2B 2750  11.762  15.594  10.059  0.1335 -0.2886 -0.0546
  172loPI   C3B 2751  11.836  15.595   9.596 -0.1323  0.2037 -0.1048
  172loPI   C4B 2752  11.964  15.725   9.166 -0.1153  0.1366  0.0459
  173loPI    C1 2753   0.954  11.580  12.050  0.0734  0.1823 -0.2069
  173loPI    C2 2754   0.783  11.898  12.223  0.1094  0.2193 -0.2390
  173loPI    C3 2755   0.704  11.530  12.358  0.3830  0.2669  0.0637
  173loPI   PO4 2756   0.907  11.654  11.755  0.1694  0.1722 -0.0167
  173loPI   GL1 2757   1.004  11.843  11.454 -0.2244 -0.0369  0.1630
  173loPI   GL2 2758   1.255  11.975  11.321 -0.0346  0.0366  0.2086
  173loPI   C1A 2759   0.820  11.730  11.075 -0.1796 -0.3321 -0.1425
  173loPI   C2A 2760   0.739  11.803  10.662  0.0121 -0.0407  0.0305
  173loPI   C3A 2761   0.788  11.813  10.239 -0.3161  0.1416  0.2633
  173loPI   C4A 2762   0.732  11.719   9.793 -0.4116 -0.1125  0.3510
  173loPI   C5A 2763   0.696  11.796   9.363 -0.0658 -0.0873  0.0387
  173loPI   C6A 2764   0.801  11.864   8.911 -0.3505  0.0328 -0.1460
  173loPI   C1B 2765   1.266  11.951  10.814  0.0420  0.1448  0.1086
  173loPI   C2B 2766   1.233  11.985  10.298  0.0282 -0.1749  0.2490
  173loPI   C3B 2767   1.286  12.001   9.913  0.0803  0.0727  0.2011
  173loPI   C4B 2768   1.182  12.005   9.479 -0.1890  0.1029  0.1162
  174loPI    C1 2769   9.839   2.672  11.480  0.1569 -0.0418  0.1282
  174loPI    C2 2770   9.676   3.007  11.627  0.0460  0.0569 -0.2105
  174loPI    C3 2771   9.930   2.793  11.851 -0.1791  0.1579  0.1493
  174loPI   PO4 2772   9.659   2.634  11.325 -0.1301 -0.0311  0.0208
  174loPI   GL1 2773   9.407   2.630  10.906 -0.2206  0.0560 -0.0879
  174loPI   GL2 2774   9.723   2.470  10.875 -0.2696 -0.1331 -0.2226
  174loPI   C1A 2775   9.512   2.722  10.483 -0.0092  0.1830  0.0525
  174loPI   C2A 2776   9.582   2.948  10.110 -0.1460  0.1262  0.0813
  174loPI   C3A 2777   9.555   2.858   9.684  0.0672 -0.1300  0.0763
  174loPI   C4A 2778   9.484   3.010   9.311 -0.0250  0.0380 -0.1794
  174loPI   C5A 2779   9.083   3.001   9.002 -0.0918 -0.2660 -0.1234
  174loPI   C6A 2780   8.949   3.292   8.812 -0.1764  0.1002  0.0397
  174loPI   C1B 2781   9.764   2.289  10.555  0.1502  0.0414 -0.0040
  174loPI   C2B 2782   9.717   2.195  10.073 -0.0998  0.0753 -0.3110
  174loPI   C3B 2783   9.768   2.443   9.743 -0.2354 -0.3078  0.0726
  174loPI   C4B 2784   9.626   2.519   9.307  0.0252  0.5161  0.1978
  175loPI    C1 2785  16.909  11.274  12.037 -0.0407  0.1074 -0.0317
  175loPI    C2 2786  17.257  11.437  11.927  0.1506 -0.1478  0.1846
  175loPI    C3 2787  17.042  11.605  12.219  0.0777  0.0247  0.0333
  175loPI   PO4 2788  16.848  11.195  11.822  0.2021  0.1168 -0.1057
  175loPI   GL1 2789  17.126  11.097  11.456 -0.0398 -0.1442  0.4113
  175loPI   GL2 2790  17.211  11.435  11.422  0.1877 -0.0077 -0.1813
  175loPI   C1A 2791  17.040  10.939  11.060  0.2725 -0.0393  0.1232
  175loPI   C2A 2792  16.948  10.955  10.620 -0.0368 -0.0501  0.1531
  175loPI   C3A 2793  16.930  10.899  10.116 -0.2621  0.0597 -0.2113
  175loPI   C4A 2794  16.999  10.932   9.732  0.0167 -0.0696  0.2637
  175loPI   C5A 2795  16.966  10.917   9.238  0.0534  0.1347 -0.1104
  175loPI   C6A 2796  17.346  10.963   8.857 -0.0411 -0.1280 -0.2255
  175loPI   C1B 2797  17.093  11.437  10.967  0.3006 -0.1768 -0.0275
  175loPI   C2B 2798  17.032  11.435  10.556  0.0919 -0.1362 -0.1161
  175loPI   C3B 2799  17.080  11.386  10.131  0.0212  0.0670 -0.1280
  175loPI   C4B 2800  17.112  11.380   9.655  0.0567 -0.0071 -0.1516
  176loPI    C1 2801  12.428   6.069  11.466 -0.2990 -0.0768 -0.0574
  176loPI    C2 2802  12.560   5.754  11.675 -0.0825  0.0422 -0.0119
  176loPI    C3 2803  12.585   6.122  11.830 -0.0375  0.1173 -0.1947
  176loPI   PO4 2804  12.230   5.990  11.273  0.1536  0.2033  0.1202
  176loPI   GL1 2805  12.137   6.011  10.929  0.1456 -0.3081  0.2556
  176loPI   GL2 2806  11.982   5.901  10.754  0.2658  0.0176  0.1012
  176loPI   C1A 2807  12.384   6.172  10.624  0.1137  0.2777 -0.1257
  176loPI   C2A 2808  12.415   6.216  10.206 -0.0649  0.0777 -0.2449
  176loPI   C3A 2809  12.580   6.303   9.719  0.0031  0.0527 -0.0281
  176loPI   C4A 2810  12.638   6.289   9.314 -0.2250 -0.0667  0.1172
  176loPI   C5A 2811  12.619   6.257   8.869 -0.0016 -0.0731  0.0073
  176loPI   C6A 2812  12.441   6.497   8.557 -0.1648  0.3096 -0.2755
  176loPI   C1B 2813  11.925   6.089  10.298 -0.1914  0.3083  0.1638
  176loPI   C2B 2814  11.956   6.172   9.926  0.2285  0.2405  0.1368
  176loPI   C3B 2815  12.155   6.072   9.531  0.1025 -0.2406  0.0610
  176loPI   C4B 2816  12.188   6.252   9.072  0.3061  0.0184 -0.1091
  177loPI    C1 2817   8.426   2.227  11.507 -0.1310 -0.0051  0.0183
  177loPI    C2 2818   8.173   2.000  11.717 -0.3042  0.1574 -0.0122
  177loPI    C3 2819   8.117   2.396  11.697 -0.1227  0.1783 -0.1277
  177loPI   PO4 2820   8.431   2.099  11.270 -0.0424  0.5167 -0.3957
  177loPI   GL1 2821   8.503   2.181  10.861  0.0043 -0.4721  0.1331
  177loPI   GL2 2822   8.134   2.145  10.785 -0.0588 -0.0060 -0.2916
  177loPI   C1A 2823   8.769   2.200  10.397  0.0158 -0.1931  0.0127
  177loPI   C2A 2824   8.867   2.268  10.008  0.0079  0.1410  0.0711
  177loPI   C3A 2825   8.803   2.228   9.529 -0.0034  0.0044 -0.0088
  177loPI   C4A 2826   8.780   2.157   9.131  0.0323 -0.4511 -0.1529
  177loPI   C5A 2827   8.811   1.655   8.941 -0.0002 -0.0503 -0.0586
  177loPI   C6A 2828   8.821   1.242   8.836  0.0859 -0.2045  0.0227
  177loPI   C1B 2829   8.254   2.180  10.376 -0.0925  0.2019 -0.2171
  177loPI   C2B 2830   8.296   2.253   9.876  0.1216 -0.1865  0.0793
  177loPI   C3B 2831   8.330   2.208   9.365  0.1274 -0.0817 -0.1523
  177loPI   C4B 2832   8.319   2.146   8.966 -0.1310 -0.0848 -0.0663
  178loPI    C1 2833  16.012  15.632  12.047  0.1144 -0.0536 -0.2198
  178loPI    C2 2834  15.987  15.234  12.080 -0.4150 -0.0162 -0.0774
  178loPI    C3 2835  16.250  15.437  12.303 -0.0001 -0.2982 -0.2969
  178loPI   PO4 2836  16.053  15.699  11.783  0.0318  0.1175 -0.2448
  178loPI   GL1 2837  16.081  15.654  11.439 -0.1082  0.3412  0.0856
  178loPI   GL2 2838  15.839  15.734  11.225  0.0902  0.3050  0.0589
  178loPI   C1A 2839  16.388  15.593  10.992 -0.1520 -0.1042  0.0702
  178loPI   C2A 2840  16.355  15.506  10.460  0.0579  0.2649  0.1516
  178loPI   C3A 2841  16.433  15.525   9.969  0.0866 -0.0490 -0.0840
  178loPI   C4A 2842  16.350  15.487   9.593 -0.0384  0.2040 -0.0801
  178loPI   C5A 2843  16.528  15.585   9.133 -0.1470 -0.2147  0.0368
  178loPI   C6A 2844  16.653  15.490   8.716  0.0455 -0.0632  0.0941
  178loPI   C1B 2845  15.940  15.831  10.791 -0.3919 -0.3389 -0.0844
  178loPI   C2B 2846  15.959  15.810  10.294  0.1457 -0.2139  0.0866
  178loPI   C3B 2847  15.940  15.865   9.825 -0.0155  0.1213 -0.0345
  178loPI   C4B 2848  16.006  15.787   9.418 -0.1813 -0.0194 -0.1053
  179loPI    C1 2849   5.214   9.979  11.423 -0.0264  0.1179  0.3293
  179loPI    C2 2850   5.608   9.910  11.439  0.0264  0.3613  0.1304
  179loPI    C3 2851   5.399   9.957  11.777  0.1244  0.0036  0.2444
  179loPI   PO4 2852   5.260  10.009  11.104 -0.0010 -0.2255 -0.3544
  179loPI   GL1 2853   5.367  10.134  10.740 -0.2623  0.1308  0.0235
  179loPI   GL2 2854   5.053  10.132  10.678  0.0342 -0.0718  0.0983
  179loPI   C1A 2855   5.616  10.219  10.470 -0.1474  0.0601  0.0103
  179loPI   C2A 2856   5.558  10.157  10.100  0.2767  0.0082 -0.3607
  179loPI   C3A 2857   5.570  10.237   9.622 -0.0936  0.2327 -0.1009
  179loPI   C4A 2858   5.720  10.179   9.271 -0.1823 -0.1288  0.1394
  179loPI   C5A 2859   5.976   9.777   9.078 -0.3509 -0.1037 -0.1419
  179loPI   C6A 2860   6.356   9.539   9.243  0.1066  0.1842  0.1534
  179loPI   C1B 2861   5.031  10.051  10.209  0.3224 -0.1112 -0.3735
  179loPI   C2B 2862   5.044  10.050   9.791 -0.1817 -0.1670 -0.0274
  179loPI   C3B 2863   5.058   9.764   9.377  0.0874 -0.2716  0.1171
  179loPI   C4B 2864   5.257  10.021   9.078 -0.1024  0.0440 -0.1478
  180loPI    C1 2865  13.650   5.334  11.397  0.0495 -0.1145 -0.0482
  180loPI    C2 2866  13.401   5.446  11.689 -0.0946 -0.0805 -0.1825
  180loPI    C3 2867  13.795   5.509  11.726 -0.0939 -0.2174  0.0712
  180loPI   PO4 2868  13.560   5.397  11.207 -0.4506 -0.1019 -0.1773
  180loPI   GL1 2869  13.452   5.369  10.892  0.1198 -0.1268 -0.0959
  180loPI   GL2 2870  13.208   5.168  10.808  0.2037  0.0856  0.0140
  180loPI   C1A 2871  13.524   5.453  10.498  0.2583 -0.0934  0.0392
  180loPI   C2A 2872  13.686   5.460  10.079 -0.0484  0.0962  0.1336
  180loPI   C3A 2873  13.877   5.282   9.776  0.1351  0.0605  0.0724
  180loPI   C4A 2874  13.863   5.349   9.392  0.1614 -0.1990 -0.0869
  180loPI   C5A 2875  13.883   5.086   9.016  0.2435 -0.1244  0.0832
  180loPI   C6A 2876  13.868   4.804   8.653 -0.1067  0.1399  0.1841
  180loPI   C1B 2877  13.217   5.054  10.333  0.0182 -0.0807  0.0210
  180loPI   C2B 2878  13.207   5.014   9.981 -0.0523  0.1538  0.0718
  180loPI   C3B 2879  13.405   5.084   9.647 -0.0916  0.0616 -0.2101
  180loPI   C4B 2880  13.446   5.137   9.220  0.1996  0.1634  0.5048
  181loPI    C1 2881  16.300   0.598  11.834 -0.0020 -0.0667  0.0957
  181loPI    C2 2882  16.434   0.799  12.153 -0.2336 -0.1138  0.2249
  181loPI    C3 2883  16.654   0.505  11.995  0.0243  0.1173  0.1466
  181loPI   PO4 2884  16.219   0.699  11.666 -0.2526 -0.0937  0.3475
  181loPI   GL1 2885  16.217   0.377  11.310 -0.0638  0.1496 -0.0882
  181loPI   GL2 2886  16.373   0.519  11.073  0.0936 -0.1065  0.1520
  181loPI   C1A 2887  15.912   0.366  10.934  0.2132  0.0216  0.1863
  181loPI   C2A 2888  15.872   0.347  10.436 -0.3133 -0.2277  0.0927
  181loPI   C3A 2889  15.743   0.326   9.975 -0.0402  0.1506 -0.2440
  181loPI   C4A 2890  15.769   0.360   9.598 -0.0909 -0.0776  0.0163
  181loPI   C5A 2891  15.788   0.379   9.270  0.1758  0.0127 -0.2943
  181loPI   C6A 2892  16.057   0.476   8.888  0.0399  0.0189  0.1795
  181loPI   C1B 2893  16.376   0.511  10.682  0.2018  0.0846  0.2841
  181loPI   C2B 2894  16.282   0.462  10.181 -0.1197 -0.1664  0.0383
  181loPI   C3B 2895  16.188   0.555   9.850  0.0185  0.0904 -0.1697
  181loPI   C4B 2896  16.208   0.614   9.404 -0.0410 -0.0585  0.2971
  182loPI    C1 2897  12.281  15.016  11.939  0.2938 -0.2972 -0.1282
  182loPI    C2 2898  11.969  14.768  11.957  0.0359  0.0275 -0.0153
  182loPI    C3 2899  12.127  14.915  12.293  0.2827 -0.0960 -0.0744
  182loPI   PO4 2900  12.267  15.077  11.694  0.2491  0.1563 -0.0486
  182loPI   GL1 2901  12.283  14.852  11.263 -0.3241  0.0831 -0.2151
  182loPI   GL2 2902  12.297  15.181  11.118  0.3266  0.2579 -0.2140
  182loPI   C1A 2903  12.194  14.664  10.915  0.0544 -0.3119  0.1328
  182loPI   C2A 2904  12.186  14.681  10.524 -0.1173 -0.0494 -0.1269
  182loPI   C3A 2905  12.217  14.696  10.074 -0.2184 -0.0945  0.0282
  182loPI   C4A 2906  12.214  14.736   9.632 -0.0047 -0.1282 -0.2222
  182loPI   C5A 2907  12.264  14.881   9.246  0.1780 -0.0411  0.3924
  182loPI   C6A 2908  12.015  15.044   8.859 -0.2113  0.3180 -0.1848
  182loPI   C1B 2909  12.347  15.410  10.778 -0.0587 -0.2304  0.0339
  182loPI   C2B 2910  12.233  15.537  10.353  0.1680 -0.4601  0.0273
  182loPI   C3B 2911  12.244  15.328   9.886 -0.1115 -0.2886  0.0794
  182loPI   C4B 2912  12.256  15.372   9.431  0.2385  0.1039 -0.2009
  183loPI    C1 2913  11.882   6.737  11.489  0.1252 -0.0424 -0.1248
  183loPI    C2 2914  11.989   7.038  11.730  0.1028 -0.0273 -0.1338
  183loPI    C3 2915  11.853   6.695  11.886 -0.0811  0.0467 -0.1295
  183loPI   PO4 2916  11.771   6.856  11.288 -0.1043 -0.1138  0.0651
  183loPI   GL1 2917  11.644   7.159  11.049 -0.1611  0.1664  0.0830
  183loPI   GL2 2918  11.831   7.381  10.875  0.1599 -0.4357 -0.0132
  183loPI   C1A 2919  11.435   7.292  10.650  0.2406 -0.3484 -0.0505
  183loPI   C2A 2920  11.498   7.327  10.226  0.0468  0.1942  0.0387
  183loPI   C3A 2921  11.527   7.291   9.755 -0.1492 -0.1900 -0.1235
  183loPI   C4A 2922  11.549   7.219   9.316  0.1717  0.0790  0.4402
  183loPI   C5A 2923  11.557   7.160   8.938 -0.1955  0.2204 -0.1255
  183loPI   C6A 2924  11.735   7.170   8.649  0.3124 -0.0266 -0.0013
  183loPI   C1B 2925  11.866   7.510  10.545 -0.0602 -0.0638  0.2640
  183loPI   C2B 2926  11.946   7.499  10.081 -0.2955 -0.0307 -0.0212
  183loPI   C3B 2927  12.002   7.482   9.692  0.0474 -0.0300  0.0250
  183loPI   C4B 2928  12.026   7.412   9.120  0.3511 -0.0841  0.1574
  184loPI    C1 2929  15.587   9.993  12.062 -0.1039 -0.2565  0.1622
  184loPI    C2 2930  15.964  10.031  12.191 -0.0898 -0.1153  0.0823
  184loPI    C3 2931  15.667   9.978  12.454 -0.0415  0.0033  0.1614
  184loPI   PO4 2932  15.645   9.976  11.751  0.0132 -0.2532 -0.3826
  184loPI   GL1 2933  15.512   9.761  11.430 -0.2390 -0.1559  0.0161
  184loPI   GL2 2934  15.549   9.456  11.298 -0.1311 -0.0268  0.1004
  184loPI   C1A 2935  15.469   9.898  11.060 -0.1195  0.3335  0.0797
  184loPI   C2A 2936  15.461   9.861  10.586 -0.1151 -0.3595 -0.2055
  184loPI   C3A 2937  15.535   9.788  10.213 -0.1417  0.1776  0.1647
  184loPI   C4A 2938  15.512   9.834   9.742  0.2648  0.4414  0.0392
  184loPI   C5A 2939  15.599   9.810   9.256 -0.0935  0.0046 -0.0100
  184loPI   C6A 2940  15.668   9.964   8.867  0.0937  0.2096  0.0299
  184loPI   C1B 2941  15.340   9.403  10.883 -0.4372  0.0652  0.0231
  184loPI   C2B 2942  15.470   9.385  10.446  0.0158  0.0643  0.1897
  184loPI   C3B 2943  15.383   9.286   9.951 -0.2416  0.0394  0.0259
  184loPI   C4B 2944  15.330   9.405   9.554  0.0463 -0.3407 -0.0166
  185loPI    C1 2945   0.022   2.148  12.021 -0.0197 -0.0875 -0.0031
  185loPI    C2 2946   0.109   1.776  12.138 -0.1864 -0.0439  0.2670
  185loPI    C3 2947   0.271   2.088  12.328  0.2511  0.0242 -0.1966
  185loPI   PO4 2948   0.050   2.162  11.799  0.0538 -0.0521 -0.2096
  185loPI   GL1 2949  -0.016   2.261  11.336  0.0302  0.0697 -0.2708
  185loPI   GL2 2950   0.237   2.408  11.112  0.0849 -0.1790  0.0095
  185loPI   C1A 2951  -0.195   2.258  10.925  0.0143 -0.1367  0.1484
  185loPI   C2A 2952  -0.283   2.231  10.484 -0.0635  0.1301  0.0396
  185loPI   C3A 2953  -0.369   2.192  10.118  0.0855 -0.0994  0.0627
  185loPI   C4A 2954  -0.276   2.278   9.671 -0.3436  0.3407 -0.2257
  185loPI   C5A 2955  -0.229   2.182   9.244 -0.0248  0.0817  0.0239
  185loPI   C6A 2956  -0.395   2.009   8.922 -0.0094 -0.0113 -0.0117
  185loPI   C1B 2957   0.277   2.435  10.681  0.0685 -0.1080 -0.0383
  185loPI   C2B 2958   0.189   2.409  10.317  0.0864 -0.3340  0.0112
  185loPI   C3B 2959   0.156   2.541   9.901  0.2272 -0.0067 -0.1896
  185loPI   C4B 2960   0.195   2.470   9.527  0.0204  0.0494 -0.1021
  186loPI    C1 2961  10.175  12.939  11.317  0.0508 -0.1049 -0.0333
  186loPI    C2 2962   9.888  12.963  11.595 -0.0191 -0.0581 -0.1090
  186loPI    C3 2963  10.262  13.073  11.684 -0.0801  0.1382 -0.0883
  186loPI   PO4 2964  10.090  12.694  11.168 -0.1782 -0.1152 -0.2399
  186loPI   GL1 2965  10.314  12.623  10.794 -0.0114 -0.0991 -0.5264
  186loPI   GL2 2966  10.583  12.705  11.055 -0.0695 -0.1731 -0.0202
  186loPI   C1A 2967  10.414  12.624  10.322 -0.3136 -0.0496  0.0220
  186loPI   C2A 2968  10.445  12.722   9.893 -0.0928  0.1847  0.2304
  186loPI   C3A 2969  10.540  12.729   9.507 -0.1339  0.1120 -0.0255
  186loPI   C4A 2970  10.648  12.474   9.209 -0.0597  0.2981  0.1250
  186loPI   C5A 2971  10.659  12.056   9.195 -0.0149 -0.2622 -0.2410
  186loPI   C6A 2972  10.746  11.707   9.168  0.0311 -0.1429  0.0008
  186loPI   C1B 2973  10.811  12.852  10.642  0.0779 -0.0219 -0.1221
  186loPI   C2B 2974  10.912  12.706  10.246  0.2939 -0.0161 -0.0103
  186loPI   C3B 2975  10.970  12.800   9.804 -0.0081 -0.1864  0.0949
  186loPI   C4B 2976  11.044  12.953   9.421  0.1102  0.0624 -0.0134
  187loPI    C1 2977   2.603  17.083  11.833 -0.0398  0.0226 -0.1210
  187loPI    C2 2978   2.713  17.009  12.210  0.0631  0.2504 -0.1042
  187loPI    C3 2979   2.574  16.712  11.980  0.2039  0.0668  0.0440
  187loPI   PO4 2980   2.762  17.088  11.670 -0.2569  0.0986 -0.0969
  187loPI   GL1 2981   2.807  17.043  11.224  0.0556  0.0135 -0.0036
  187loPI   GL2 2982   2.637  17.253  11.123  0.0804  0.1091  0.1388
  187loPI   C1A 2983   2.974  16.831  10.857 -0.2203  0.0170  0.0099
  187loPI   C2A 2984   3.022  16.831  10.377  0.1368  0.0314 -0.0324
  187loPI   C3A 2985   2.990  16.965   9.994 -0.0118  0.0797  0.2930
  187loPI   C4A 2986   2.979  16.916   9.545 -0.0857  0.0172 -0.3255
  187loPI   C5A 2987   3.026  16.875   9.106 -0.0470  0.2320  0.0770
  187loPI   C6A 2988   3.269  16.594   8.942 -0.2100  0.3229  0.0214
  187loPI   C1B 2989   2.573  17.234  10.638 -0.0567  0.0953 -0.2749
  187loPI   C2B 2990   2.544  17.235  10.247 -0.3983  0.0333  0.3104
  187loPI   C3B 2991   2.578  17.281   9.827  0.2581  0.1405 -0.4270
  187loPI   C4B 2992   2.650  17.235   9.378 -0.1676 -0.1398  0.2767
  188loPI    C1 2993  12.283   8.641  11.986 -0.0212 -0.0787  0.0783
  188loPI    C2 2994  11.986   8.876  12.115 -0.0087  0.0872 -0.1854
  188loPI    C3 2995  12.299   8.799  12.353 -0.1356  0.1257 -0.0031
  188loPI   PO4 2996  12.363   8.716  11.712 -0.1401  0.1550  0.2060
  188loPI   GL1 2997  12.336   8.446  11.299 -0.3914  0.1049  0.1025
  188loPI   GL2 2998  12.345   8.190  11.207 -0.0739 -0.0371  0.1060
  188loPI   C1A 2999  12.499   8.645  10.889 -0.2539  0.2173 -0.0430
  188loPI   C2A 3000  12.567   8.647  10.427  0.1129  0.0054  0.0519
  188loPI   C3A 3001  12.694   8.719  10.006  0.4027  0.1222  0.0440
  188loPI   C4A 3002  12.625   8.640   9.614  0.1026  0.1078  0.0202
  188loPI   C5A 3003  12.642   8.781   9.139 -0.1829  0.0618  0.0048
  188loPI   C6A 3004  12.577   9.121   8.876 -0.0958  0.0141  0.1913
  188loPI   C1B 3005  12.383   8.197  10.737  0.0214  0.0573  0.1928
  188loPI   C2B 3006  12.444   8.169  10.374 -0.0720 -0.1049  0.2222
  188loPI   C3B 3007  12.526   8.224   9.942  0.3263 -0.1100 -0.2822
  188loPI   C4B 3008  12.617   8.040   9.527  0.1767 -0.0698 -0.1705
  189loPI    C1 3009   0.571  12.418  12.115 -0.2479 -0.1771 -0.0315
  189loPI    C2 3010   0.501  12.597  12.465 -0.3098  0.1120 -0.1882
  189loPI    C3 3011   0.305  12.262  12.369 -0.4938  0.1812 -0.0607
  189loPI   PO4 3012   0.830  12.373  12.017 -0.2117 -0.0725  0.0037
  189loPI   GL1 3013   0.843  12.350  11.521 -0.4000 -0.1588 -0.1266
  189loPI   GL2 3014   0.755  12.633  11.390 -0.1489 -0.2535 -0.1598
  189loPI   C1A 3015   0.779  12.235  11.122  0.0543  0.0801  0.2948
  189loPI   C2A 3016   0.816  12.309  10.683  0.3127  0.1588  0.2343
  189loPI   C3A 3017   0.807  12.319  10.278 -0.1618  0.2140 -0.3922
  189loPI   C4A 3018   0.855  12.235   9.897 -0.0709  0.0533  0.2260
  189loPI   C5A 3019   0.774  12.270   9.565  0.0150  0.0282  0.0206
  189loPI   C6A 3020   0.584  12.446   9.247 -0.1387 -0.1539  0.1127
  189loPI   C1B 3021   0.507  12.644  10.963 -0.1329  0.1376  0.1694
  189loPI   C2B 3022   0.413  12.604  10.574 -0.2563 -0.4861 -0.2495
  189loPI   C3B 3023   0.413  12.588  10.197  0.0487  0.2934  0.0205
  189loPI   C4B 3024   0.519  12.616   9.784 -0.0976 -0.1153 -0.2042
  190loPI    C1 3025  15.751   1.638  11.865  0.1050  0.0049 -0.1052
  190loPI    C2 3026  16.051   1.455  12.056  0.0917  0.1365  0.0444
  190loPI    C3 3027  15.672   1.377  12.156  0.0766  0.0207 -0.0987
  190loPI   PO4 3028  15.859   1.617  11.516 -0.3150 -0.0336  0.1755
  190loPI   GL1 3029  15.660   1.679  11.173 -0.0589 -0.0141  0.1662
  190loPI   GL2 3030  15.643   1.274  11.156 -0.0860  0.2352 -0.1806
  190loPI   C1A 3031  15.633   1.733  10.705 -0.1008 -0.0335 -0.2775
  190loPI   C2A 3032  15.556   1.654  10.317  0.4304  0.2913 -0.0444
  190loPI   C3A 3033  15.487   1.624   9.898  0.0233  0.1200 -0.0079
  190loPI   C4A 3034  15.492   1.695   9.470  0.2348  0.0880 -0.1038
  190loPI   C5A 3035  15.454   1.836   8.989 -0.1844  0.1726  0.1575
  190loPI   C6A 3036  15.129   2.204   8.811  0.2016  0.2242 -0.1339
  190loPI   C1B 3037  15.508   1.260  10.834 -0.1283 -0.0192 -0.2463
  190loPI   C2B 3038  15.436   1.160  10.375  0.0533  0.1842  0.0221
  190loPI   C3B 3039  15.451   1.125   9.865  0.2797  0.2284 -0.0893
  190loPI   C4B 3040  15.408   1.148   9.501  0.0701  0.0897  0.1609
  191loPI    C1 3041   5.090  15.557  11.722 -0.0729  0.0401 -0.1043
  191loPI    C2 3042   5.110  15.397  12.088  0.1194  0.3585  0.0290
  191loPI    C3 3043   4.762  15.401  11.889  0.0551  0.0169  0.1286
  191loPI   PO4 3044   5.167  15.427  11.438  0.2764  0.1652 -0.1027
  191loPI   GL1 3045   4.999  15.361  11.015  0.2160 -0.0352 -0.0926
  191loPI   GL2 3046   5.074  15.659  10.954 -0.1876 -0.1199  0.0420
  191loPI   C1A 3047   4.986  15.318  10.458  0.0286  0.0956  0.1487
  191loPI   C2A 3048   5.014  15.393  10.107  0.0820  0.1778  0.0573
  191loPI   C3A 3049   5.056  15.228   9.697 -0.3343 -0.3511  0.0999
  191loPI   C4A 3050   5.355  15.158   9.287 -0.1266 -0.0461  0.2468
  191loPI   C5A 3051   5.751  15.150   9.204 -0.1440  0.4792  0.1438
  191loPI   C6A 3052   5.963  15.239   8.840 -0.1136 -0.2553  0.1004
  191loPI   C1B 3053   5.118  15.836  10.492 -0.0619  0.2261  0.2428
  191loPI   C2B 3054   5.116  15.916  10.148  0.1134  0.3349  0.2096
  191loPI   C3B 3055   5.238  15.774   9.658 -0.1032 -0.3058 -0.1522
  191loPI   C4B 3056   5.094  15.753   9.240 -0.2353  0.0076 -0.1597
  192loPI    C1 3057   3.782  13.270  11.933  0.1946  0.0151 -0.1429
  192loPI    C2 3058   3.860  13.127  12.299 -0.1631 -0.0630 -0.0930
  192loPI    C3 3059   3.891  13.520  12.227  0.0875 -0.0695 -0.0301
  192loPI   PO4 3060   3.899  13.177  11.809  0.0333 -0.0068  0.1480
  192loPI   GL1 3061   3.873  13.144  11.336  0.0610  0.1195  0.1736
  192loPI   GL2 3062   3.893  13.394  11.050 -0.0090 -0.1381  0.0910
  192loPI   C1A 3063   3.752  12.887  10.888 -0.1157 -0.0032 -0.1934
  192loPI   C2A 3064   3.676  12.867  10.507  0.1401 -0.1841  0.2041
  192loPI   C3A 3065   3.693  12.856  10.033  0.1018 -0.1295 -0.2607
  192loPI   C4A 3066   3.719  12.977   9.665 -0.1850  0.0803 -0.1560
  192loPI   C5A 3067   3.755  12.911   9.140 -0.0156  0.1954  0.0475
  192loPI   C6A 3068   3.852  12.553   8.806 -0.3510 -0.3582 -0.2292
  192loPI   C1B 3069   3.842  13.372  10.627  0.1129  0.0354  0.0922
  192loPI   C2B 3070   3.840  13.316  10.214 -0.0992 -0.2263  0.0536
  192loPI   C3B 3071   3.777  13.445   9.795  0.2938 -0.0426 -0.1605
  192loPI   C4B 3072   3.880  13.395   9.464  0.0296 -0.0507  0.0574
  193loPI    C1 3073  16.943   3.170  11.821 -0.0276  0.1593  0.1072
  193loPI    C2 3074  17.220   3.441  11.924  0.1467 -0.0458  0.1856
  193loPI    C3 3075  17.049   3.213  12.205 -0.1402  0.1131  0.1437
  193loPI   PO4 3076  17.025   3.017  11.554 -0.0632 -0.0434  0.0776
  193loPI   GL1 3077  16.859   3.015  11.188  0.1190 -0.3815 -0.2794
  193loPI   GL2 3078  17.034   2.698  11.059 -0.0031 -0.4133 -0.2920
  193loPI   C1A 3079  16.726   3.019  10.780  0.2815  0.1667  0.2596
  193loPI   C2A 3080  16.612   3.014  10.305  0.2467 -0.0388 -0.1215
  193loPI   C3A 3081  16.632   3.098   9.908 -0.3816 -0.0784  0.2328
  193loPI   C4A 3082  16.673   3.198   9.458  0.0324 -0.1481 -0.0499
  193loPI   C5A 3083  16.754   2.958   9.126  0.0376 -0.0289  0.0905
  193loPI   C6A 3084  16.901   2.546   8.851 -0.2335 -0.0222  0.0188
  193loPI   C1B 3085  17.149   2.734  10.601 -0.0052  0.4479 -0.4759
  193loPI   C2B 3086  17.005   2.728  10.210 -0.0926  0.2851  0.0828
  193loPI   C3B 3087  17.020   2.805   9.796  0.1963 -0.0881  0.0268
  193loPI   C4B 3088  17.086   2.677   9.388  0.0280  0.0673  0.0997
  194loPI    C1 3089  13.061  13.629  11.745  0.1263 -0.1666  0.2867
  194loPI    C2 3090  13.354  13.789  11.966  0.0558  0.1316  0.1687
  194loPI    C3 3091  12.971  13.864  12.057  0.0227  0.0574  0.0913
  194loPI   PO4 3092  13.185  13.636  11.497  0.2010  0.0587  0.2332
  194loPI   GL1 3093  13.503  13.440  11.261 -0.0066  0.2082  0.2999
  194loPI   GL2 3094  13.289  13.180  11.305  0.2583 -0.0982 -0.2600
  194loPI   C1A 3095  13.706  13.388  10.938  0.0578  0.0843 -0.1600
  194loPI   C2A 3096  13.746  13.387  10.480  0.0926  0.2283  0.0466
  194loPI   C3A 3097  13.806  13.484  10.073  0.1865  0.6218  0.0722
  194loPI   C4A 3098  13.886  13.528   9.595  0.0953  0.0556 -0.3782
  194loPI   C5A 3099  13.745  13.412   9.157  0.1808 -0.0948 -0.2849
  194loPI   C6A 3100  13.625  13.406   8.686  0.0491 -0.0894 -0.1858
  194loPI   C1B 3101  13.264  13.127  10.856 -0.1252 -0.0788 -0.2527
  194loPI   C2B 3102  13.252  13.211  10.483 -0.0721 -0.2802  0.0035
  194loPI   C3B 3103  13.257  13.293  10.037 -0.2209 -0.0210  0.0314
  194loPI   C4B 3104  13.415  13.233   9.652  0.2252  0.5111 -0.2109
  195loPI    C1 3105  11.898   9.776  11.690 -0.1154 -0.0662 -0.0209
  195loPI    C2 3106  12.097  10.029  11.928  0.0606 -0.0360 -0.1973
  195loPI    C3 3107  11.750  10.140  11.763 -0.0018 -0.0132 -0.0525
  195loPI   PO4 3108  12.122   9.684  11.529 -0.2070 -0.2449  0.4065
  195loPI   GL1 3109  12.161   9.699  11.074  0.1544 -0.0488  0.0319
  195loPI   GL2 3110  12.093   9.349  11.072  0.1493  0.1449 -0.0765
  195loPI   C1A 3111  12.137   9.933  10.724 -0.0487 -0.0310  0.2686
  195loPI   C2A 3112  12.122  10.016  10.308 -0.1573  0.2488 -0.0858
  195loPI   C3A 3113  12.268  10.001   9.946 -0.1902 -0.3556  0.1375
  195loPI   C4A 3114  12.331   9.995   9.533 -0.0342  0.0123  0.5659
  195loPI   C5A 3115  12.426  10.059   9.133  0.1377 -0.1314 -0.0042
  195loPI   C6A 3116  12.565  10.023   8.777 -0.1643 -0.0162 -0.0502
  195loPI   C1B 3117  12.011   9.381  10.651  0.1392 -0.2816  0.0848
  195loPI   C2B 3118  12.165   9.555  10.233  0.3085 -0.1519 -0.0471
  195loPI   C3B 3119  12.247   9.518   9.785  0.0041  0.2129  0.2323
  195loPI   C4B 3120  12.257   9.580   9.275  0.3578 -0.1752 -0.0513
  196loPI    C1 3121   5.939  15.564  11.732 -0.1081 -0.0088  0.0626
  196loPI    C2 3122   5.576  15.397  11.754 -0.1474  0.0843  0.1295
  196loPI    C3 3123   5.863  15.283  12.007 -0.2224  0.2343  0.2840
  196loPI   PO4 3124   5.986  15.622  11.493  0.0130 -0.0464  0.5538
  196loPI   GL1 3125   6.025  15.654  11.036  0.0882  0.0116 -0.0194
  196loPI   GL2 3126   6.146  15.525  10.817 -0.2360  0.0399  0.1551
  196loPI   C1A 3127   6.258  15.972  10.600 -0.2686 -0.0476  0.2778
  196loPI   C2A 3128   6.259  16.086  10.172 -0.0502  0.0872  0.0964
  196loPI   C3A 3129   6.241  16.091   9.745 -0.0790 -0.0387  0.1821
  196loPI   C4A 3130   6.351  16.029   9.336 -0.0438 -0.0251  0.0521
  196loPI   C5A 3131   6.243  16.012   8.956 -0.0006 -0.2248  0.1788
  196loPI   C6A 3132   6.494  15.814   8.795 -0.2122  0.0433 -0.1324
  196loPI   C1B 3133   5.907  15.561  10.380  0.1029 -0.0218 -0.1401
  196loPI   C2B 3134   6.056  15.680  10.040 -0.0769 -0.1783  0.1563
  196loPI   C3B 3135   6.010  15.678   9.581 -0.0303 -0.1287 -0.0431
  196loPI   C4B 3136   6.049  15.616   9.178 -0.0165 -0.0102  0.1921
  197loPI    C1 3137  15.649  12.690  11.786  0.0186 -0.2391  0.1523
  197loPI    C2 3138  15.644  12.634  12.182 -0.2042 -0.1054  0.1695
  197loPI    C3 3139  15.397  12.901  12.014  0.1154  0.0742 -0.0245
  197loPI   PO4 3140  15.833  12.753  11.628  0.1231  0.1141  0.0052
  197loPI   GL1 3141  16.044  12.598  11.270 -0.0808  0.1109  0.2029
  197loPI   GL2 3142  15.864  12.907  11.098  0.1037  0.0561 -0.1268
  197loPI   C1A 3143  15.928  12.365  10.947  0.2734  0.2366  0.0013
  197loPI   C2A 3144  15.848  12.410  10.458 -0.0562 -0.0816 -0.1256
  197loPI   C3A 3145  15.948  12.398   9.990  0.0181 -0.1268  0.0165
  197loPI   C4A 3146  15.774  12.370   9.602 -0.0389  0.0227 -0.1686
  197loPI   C5A 3147  15.883  12.362   9.167  0.0957  0.2970  0.0421
  197loPI   C6A 3148  15.750  12.106   8.856  0.2221 -0.0386  0.0779
  197loPI   C1B 3149  16.012  12.908  10.629 -0.1901 -0.0676 -0.1511
  197loPI   C2B 3150  16.045  12.900  10.227 -0.2218 -0.1031 -0.0345
  197loPI   C3B 3151  15.978  12.958   9.854  0.0158 -0.0132 -0.1446
  197loPI   C4B 3152  15.894  12.858   9.500 -0.1554 -0.1019  0.0744
  198loPI    C1 3153   2.244  16.392  11.716  0.1007 -0.1901  0.1594
  198loPI    C2 3154   1.982  16.322  12.010  0.2869 -0.1837  0.3289
  198loPI    C3 3155   2.227  16.030  11.887  0.1289 -0.2208  0.0974
  198loPI   PO4 3156   2.096  16.474  11.488  0.0418  0.1005  0.2316
  198loPI   GL1 3157   1.870  16.314  11.128  0.2650  0.1284 -0.0907
  198loPI   GL2 3158   1.854  16.052  10.899  0.2382 -0.1219  0.2173
  198loPI   C1A 3159   1.989  16.506  10.696 -0.1070 -0.0693  0.3051
  198loPI   C2A 3160   1.971  16.530  10.244  0.0030  0.0799  0.0153
  198loPI   C3A 3161   1.940  16.638   9.821 -0.0554  0.0828  0.2507
  198loPI   C4A 3162   1.912  16.561   9.426  0.2052 -0.1086  0.1619
  198loPI   C5A 3163   1.923  16.408   8.953  0.0258 -0.1666  0.1868
  198loPI   C6A 3164   1.758  16.381   8.561 -0.2179  0.4012 -0.0707
  198loPI   C1B 3165   1.932  16.053  10.558  0.3584  0.1322  0.0610
  198loPI   C2B 3166   1.880  16.056  10.128  0.0126  0.1761 -0.1937
  198loPI   C3B 3167   1.855  16.061   9.741 -0.1267 -0.1828 -0.0809
  198loPI   C4B 3168   1.856  16.010   9.294 -0.0729 -0.0762 -0.0132
  199loPI    C1 3169   7.682   4.302  11.487  0.0348 -0.0673  0.1260
  199loPI    C2 3170   7.518   4.566  11.738  0.0660  0.1900 -0.1187
  199loPI    C3 3171   7.321   4.231  11.644  0.0287  0.1192  0.1994
  199loPI   PO4 3172   7.777   4.400  11.347 -0.0277  0.3011 -0.3166
  199loPI   GL1 3173   7.839   4.441  10.925  0.2924  0.4523  0.0511
  199loPI   GL2 3174   7.576   4.652  10.912  0.0551 -0.2935  0.0971
  199loPI   C1A 3175   7.824   4.434  10.502 -0.0763 -0.0788  0.2004
  199loPI   C2A 3176   7.749   4.528  10.120 -0.1518  0.0013  0.2571
  199loPI   C3A 3177   7.728   4.505   9.680 -0.1097  0.0187  0.0252
  199loPI   C4A 3178   7.784   4.416   9.225  0.2467 -0.1549  0.2363
  199loPI   C5A 3179   7.506   4.598   8.846 -0.0072 -0.1940  0.0497
  199loPI   C6A 3180   7.483   4.930   8.551  0.0935  0.0435  0.3288
  199loPI   C1B 3181   7.184   4.962  10.717  0.0053 -0.2951 -0.1657
  199loPI   C2B 3182   7.117   5.043  10.255  0.4029 -0.1813  0.0723
  199loPI   C3B 3183   7.139   5.114   9.856 -0.4891 -0.1897  0.1213
  199loPI   C4B 3184   7.042   4.996   9.546  0.1751 -0.2064  0.0924
  200loPI    C1 3185  13.711  14.452  11.836 -0.1138  0.1746  0.0115
  200loPI    C2 3186  13.760  14.099  12.017  0.0590  0.1930  0.0032
  200loPI    C3 3187  13.745  14.434  12.234 -0.0975  0.1821  0.0105
  200loPI   PO4 3188  13.588  14.438  11.682 -0.0616  0.0882 -0.0692
  200loPI   GL1 3189  13.484  14.453  11.263 -0.0578  0.1102 -0.1280
  200loPI   GL2 3190  13.817  14.459  11.189  0.0868  0.1037  0.2206
  200loPI   C1A 3191  13.441  14.235  10.881 -0.0790 -0.0051  0.0740
  200loPI   C2A 3192  13.462  14.252  10.509 -0.0224  0.2605 -0.0873
  200loPI   C3A 3193  13.496  14.302  10.041  0.0466 -0.0950 -0.1138
  200loPI   C4A 3194  13.599  14.294   9.570  0.2652  0.0961  0.1280
  200loPI   C5A 3195  13.649  14.233   9.119  0.2525 -0.2174  0.1841
  200loPI   C6A 3196  13.766  13.900   8.892  0.0784  0.1797 -0.1291
  200loPI   C1B 3197  13.890  14.401  10.780 -0.0403 -0.1408  0.2178
  200loPI   C2B 3198  13.945  14.435  10.319 -0.0240 -0.2686  0.1799
  200loPI   C3B 3199  13.986  14.550   9.833 -0.0868 -0.0718 -0.0622
  200loPI   C4B 3200  13.992  14.516   9.392  0.1441 -0.2356 -0.0906
  201loPI    C1 3201   4.340   8.074  11.114  0.0216 -0.1071 -0.0102
  201loPI    C2 3202   4.337   8.025  11.511 -0.0780 -0.2653 -0.0296
  201loPI    C3 3203   4.551   8.320  11.347  0.0985 -0.3034  0.1301
  201loPI   PO4 3204   4.318   7.739  11.080 -0.2042 -0.0212 -0.2617
  201loPI   GL1 3205   4.354   7.455  10.804  0.2356  0.0768  0.0172
  201loPI   GL2 3206   4.265   7.253  10.609 -0.0248 -0.0892 -0.0129
  201loPI   C1A 3207   4.481   7.720  10.478 -0.4393  0.0555 -0.0221
  201loPI   C2A 3208   4.287   7.832  10.009 -0.1805 -0.2837 -0.0514
  201loPI   C3A 3209   4.133   7.679   9.530  0.0153  0.0928 -0.1603
  201loPI   C4A 3210   4.039   7.698   9.119 -0.3336 -0.1809 -0.3367
  201loPI   C5A 3211   4.009   7.592   8.683 -0.0399  0.1317  0.0279
  201loPI   C6A 3212   3.737   7.302   8.454 -0.1378  0.3336  0.0743
  201loPI   C1B 3213   4.289   7.218  10.228  0.1374  0.2015 -0.0720
  201loPI   C2B 3214   4.153   7.290   9.784 -0.1704 -0.0609 -0.3048
  201loPI   C3B 3215   4.182   7.237   9.342 -0.0847  0.1280 -0.0269
  201loPI   C4B 3216   3.957   7.206   8.989 -0.0299 -0.2085  0.1933
  202loPI    C1 3217  16.476   0.090  11.698 -0.0469 -0.2212  0.0736
  202loPI    C2 3218  16.641  -0.034  12.040 -0.0498 -0.1788  0.0905
  202loPI    C3 3219  16.284   0.146  12.044 -0.0029 -0.0850  0.0763
  202loPI   PO4 3220  16.568  -0.103  11.508  0.3199  0.0029 -0.1673
  202loPI   GL1 3221  16.508  -0.019  11.179  0.1587 -0.2167  0.3149
  202loPI   GL2 3222  16.799   0.161  11.164  0.0295  0.0540  0.1994
  202loPI   C1A 3223  16.653  -0.342  10.795 -0.0571 -0.3976 -0.0706
  202loPI   C2A 3224  16.648  -0.295  10.335  0.0305 -0.3650  0.1230
  202loPI   C3A 3225  16.647  -0.320   9.887  0.2383 -0.2775  0.0777
  202loPI   C4A 3226  16.579  -0.247   9.401  0.1675  0.0742 -0.3134
  202loPI   C5A 3227  16.315  -0.145   9.022 -0.0810 -0.1224 -0.0735
  202loPI   C6A 3228  16.251  -0.383   8.612  0.0933 -0.1774 -0.1213
  202loPI   C1B 3229  16.772   0.175  10.814 -0.1642 -0.1381  0.0746
  202loPI   C2B 3230  16.677   0.238  10.407 -0.1158 -0.1143 -0.3385
  202loPI   C3B 3231  16.679   0.166  10.043  0.0268 -0.0815 -0.1095
  202loPI   C4B 3232  16.605   0.274   9.659  0.0192  0.1403  0.0222
  203loPI    C1 3233  15.083   0.447  11.504  0.0288  0.0371  0.1407
  203loPI    C2 3234  15.256   0.288  11.827 -0.0708 -0.3023  0.0323
  203loPI    C3 3235  14.869   0.385  11.836  0.0257  0.0909  0.1487
  203loPI   PO4 3236  15.143   0.335  11.336  0.1693  0.0062 -0.1005
  203loPI   GL1 3237  14.971   0.446  10.891 -0.0317  0.0589 -0.2067
  203loPI   GL2 3238  14.680   0.700  10.984  0.1347 -0.1250 -0.1960
  203loPI   C1A 3239  14.937   0.452  10.512 -0.2247  0.2570 -0.1113
  203loPI   C2A 3240  14.836   0.497  10.136  0.1310  0.0202 -0.2599
  203loPI   C3A 3241  14.841   0.397   9.694 -0.0760  0.1912  0.2903
  203loPI   C4A 3242  14.972   0.493   9.213  0.0125 -0.0487  0.1581
  203loPI   C5A 3243  15.389   0.645   9.134  0.0879  0.0735 -0.1491
  203loPI   C6A 3244  15.647   0.785   8.823 -0.2076 -0.2170  0.3997
  203loPI   C1B 3245  14.488   0.755  10.631  0.0783 -0.0272 -0.0526
  203loPI   C2B 3246  14.418   0.693  10.280 -0.1741  0.1097 -0.3639
  203loPI   C3B 3247  14.479   0.818   9.799  0.0221  0.1721  0.1334
  203loPI   C4B 3248  14.418   0.769   9.333  0.3506 -0.2821 -0.1736
  204loPI    C1 3249   1.208   8.790  11.839  0.0564 -0.1961 -0.1553
  204loPI    C2 3250   1.316   8.665  12.203 -0.2672 -0.1020 -0.0234
  204loPI    C3 3251   1.290   9.056  12.127 -0.0034 -0.1183 -0.2097
  204loPI   PO4 3252   1.281   8.682  11.566 -0.0995  0.0595 -0.0505
  204loPI   GL1 3253   1.605   8.503  11.292 -0.1408  0.2723 -0.4485
  204loPI   GL2 3254   1.847   8.259  11.218  0.0590 -0.1633  0.3112
  204loPI   C1A 3255   1.708   8.691  10.941 -0.0279 -0.1705 -0.1531
  204loPI   C2A 3256   1.759   8.709  10.531 -0.0257  0.0533  0.3286
  204loPI   C3A 3257   1.634   8.796  10.071  0.0340  0.0818  0.0736
  204loPI   C4A 3258   1.689   8.694   9.626 -0.3345  0.0551  0.0008
  204loPI   C5A 3259   1.523   8.610   9.265 -0.1760 -0.0159  0.0253
  204loPI   C6A 3260   1.452   8.763   8.833 -0.2551 -0.3280 -0.4402
  204loPI   C1B 3261   1.648   8.182  10.745 -0.0087 -0.3591  0.2869
  204loPI   C2B 3262   1.651   8.259  10.292 -0.0552 -0.1492  0.1197
  204loPI   C3B 3263   1.600   8.224   9.846 -0.0540  0.0554 -0.2761
  204loPI   C4B 3264   1.666   8.189   9.449 -0.0121  0.1100 -0.4123
  205loPI    C1 3265  14.766  15.251  12.172 -0.0518 -0.3193  0.0958
  205loPI    C2 3266  15.152  15.179  12.246 -0.0403 -0.1639  0.1913
  205loPI    C3 3267  14.870  15.025  12.485 -0.0279 -0.1104  0.2407
  205loPI   PO4 3268  14.739  15.207  11.923  0.2590  0.0500 -0.2460
  205loPI   GL1 3269  14.832  15.240  11.468  0.0107  0.1030 -0.3410
  205loPI   GL2 3270  14.654  15.402  11.266 -0.0012  0.0674  0.0445
  205loPI   C1A 3271  14.929  14.972  11.189  0.1845  0.1262  0.0684
  205loPI   C2A 3272  14.886  14.888  10.647 -0.4598 -0.4013  0.1771
  205loPI   C3A 3273  14.846  14.951  10.219  0.0115  0.0667  0.1874
  205loPI   C4A 3274  14.939  14.964   9.790  0.0883  0.3107 -0.0878
  205loPI   C5A 3275  14.946  14.774   9.281 -0.0556  0.0098  0.0356
  205loPI   C6A 3276  15.110  14.709   8.889  0.3830 -0.0715  0.2274
  205loPI   C1B 3277  14.907  15.329  10.876 -0.0819 -0.0447  0.0536
  205loPI   C2B 3278  15.030  15.420  10.391 -0.1083  0.1954 -0.4986
  205loPI   C3B 3279  15.009  15.448  10.008  0.2147 -0.0193 -0.1285
  205loPI   C4B 3280  15.000  15.504   9.579  0.0581 -0.1633  0.1057
  206loPI    C1 3281   9.895   4.581  11.327 -0.1754  0.0638 -0.2743
  206loPI    C2 3282   9.714   4.317  11.568 -0.0621  0.1110 -0.1356
  206loPI    C3 3283   9.607   4.702  11.577  0.0842  0.1498 -0.0105
  206loPI   PO4 3284   9.896   4.533  11.047 -0.2365  0.4376  0.2148
  206loPI   GL1 3285   9.792   4.401  10.740 -0.1049 -0.2296 -0.3210
  206loPI   GL2 3286   9.980   4.232  10.659  0.4017  0.3651 -0.1732
  206loPI   C1A 3287   9.601   4.638  10.436 -0.2952 -0.1836  0.1030
  206loPI   C2A 3288   9.639   4.691  10.000 -0.0245 -0.2341  0.1960
  206loPI   C3A 3289   9.758   4.677   9.554 -0.0265  0.0742 -0.0534
  206loPI   C4A 3290   9.728   4.768   9.193 -0.3439  0.0360 -0.2170
  206loPI   C5A 3291   9.691   4.751   8.779  0.1322  0.2411 -0.1648
  206loPI   C6A 3292   9.780   4.376   8.477 -0.0105 -0.0168 -0.2321
  206loPI   C1B 3293   9.896   4.258  10.253 -0.1641  0.3288 -0.4498
  206loPI   C2B 3294   9.881   4.240   9.784  0.1129 -0.0624  0.0204
  206loPI   C3B 3295   9.930   4.273   9.373 -0.4168 -0.0935 -0.0704
  206loPI   C4B 3296   9.813   4.293   8.969 -0.1418  0.0009 -0.1190
  207loPI    C1 3297   2.331   4.278  11.910 -0.0854 -0.2008  0.1408
  207loPI    C2 3298   2.540   4.129  12.217 -0.0527 -0.1521  0.1422
  207loPI    C3 3299   2.721   4.361  11.947 -0.1284 -0.0232  0.2012
  207loPI   PO4 3300   2.204   4.022  11.774 -0.0222  0.0958  0.0056
  207loPI   GL1 3301   2.256   3.947  11.341  0.0080  0.2193  0.0277
  207loPI   GL2 3302   2.459   3.657  11.197  0.3090 -0.1158 -0.3652
  207loPI   C1A 3303   2.240   4.077  10.941  0.0455 -0.4469  0.2195
  207loPI   C2A 3304   2.415   4.139  10.575 -0.0178  0.1017 -0.4511
  207loPI   C3A 3305   2.406   4.064  10.219  0.0492  0.1254  0.1717
  207loPI   C4A 3306   2.216   4.098   9.822 -0.1806  0.1245  0.0768
  207loPI   C5A 3307   2.291   4.035   9.404  0.2925 -0.1426  0.2212
  207loPI   C6A 3308   2.123   3.869   9.097  0.0329  0.1387 -0.1969
  207loPI   C1B 3309   2.259   3.572  10.784  0.2362 -0.1998  0.0060
  207loPI   C2B 3310   2.300   3.604  10.367 -0.0491 -0.0867 -0.0475
  207loPI   C3B 3311   2.172   3.645   9.991  0.1963 -0.3123 -0.0345
  207loPI   C4B 3312   2.114   3.539   9.516  0.0654  0.1313 -0.0982
  208loPI    C1 3313  13.966  16.790  11.792 -0.1894 -0.1846 -0.1042
  208loPI    C2 3314  13.809  16.867  12.152  0.0500  0.1544 -0.0683
  208loPI    C3 3315  14.153  17.040  12.042  0.1223 -0.1612 -0.3547
  208loPI   PO4 3316  13.909  16.599  11.709  0.1877 -0.0541 -0.1793
  208loPI   GL1 3317  13.946  16.440  11.260 -0.0530  0.0208 -0.3532
  208loPI   GL2 3318  14.196  16.268  11.112 -0.0500  0.3877  0.1891
  208loPI   C1A 3319  13.889  16.795  10.929 -0.1857  0.1858 -0.1095
  208loPI   C2A 3320  13.856  16.847  10.525 -0.2409 -0.3021  0.2028
  208loPI   C3A 3321  13.858  16.863  10.096  0.0310 -0.0502  0.1908
  208loPI   C4A 3322  13.902  16.805   9.674  0.2146 -0.1085  0.3816
  208loPI   C5A 3323  13.947  16.895   9.207  0.0184  0.1814 -0.2961
  208loPI   C6A 3324  14.024  17.237   9.048  0.4334  0.1453 -0.0595
  208loPI   C1B 3325  14.182  16.022  10.649 -0.0011 -0.0131 -0.2601
  208loPI   C2B 3326  14.136  16.071  10.301 -0.1695 -0.3410  0.1574
  208loPI   C3B 3327  14.174  16.056   9.948 -0.2315  0.2014 -0.0135
  208loPI   C4B 3328  14.176  15.987   9.397  0.0936  0.1895 -0.0984
  209loPI    C1 3329  15.922   9.573  11.896 -0.0799  0.2599  0.4192
  209loPI    C2 3330  16.257   9.695  12.078  0.1184  0.1079  0.1628
  209loPI    C3 3331  16.129   9.319  12.127  0.0147  0.1500  0.2164
  209loPI   PO4 3332  15.972   9.555  11.615  0.0170 -0.0770  0.1679
  209loPI   GL1 3333  15.975   9.707  11.226  0.3729  0.2454  0.3549
  209loPI   GL2 3334  16.180   9.969  11.215 -0.2824 -0.2221 -0.0814
  209loPI   C1A 3335  15.884  10.006  10.843 -0.2749 -0.3450  0.0109
  209loPI   C2A 3336  15.969  10.081  10.387  0.1115 -0.1520 -0.4111
  209loPI   C3A 3337  15.998   9.922  10.034  0.2064  0.0308 -0.1572
  209loPI   C4A 3338  15.949  10.090   9.565 -0.4702 -0.0687 -0.1042
  209loPI   C5A 3339  16.127  10.146   9.113 -0.4047  0.3069 -0.0300
  209loPI   C6A 3340  16.166  10.392   8.796  0.2671  0.0017 -0.1063
  209loPI   C1B 3341  16.339  10.216  10.867  0.0828  0.0063  0.0156
  209loPI   C2B 3342  16.450  10.328  10.480 -0.2196  0.1460  0.4678
  209loPI   C3B 3343  16.510  10.212  10.064 -0.0683  0.2983 -0.1142
  209loPI   C4B 3344  16.425  10.227   9.701  0.0373 -0.3963 -0.1630
  210loPI    C1 3345  16.528  10.199  12.124  0.1287  0.1629  0.0940
  210loPI    C2 3346  16.476  10.404  12.464 -0.1755  0.0760  0.1034
  210loPI    C3 3347  16.417  10.008  12.457  0.1447  0.0261  0.0216
  210loPI   PO4 3348  16.435  10.396  11.897  0.0199  0.1724 -0.2127
  210loPI   GL1 3349  16.480  10.343  11.387 -0.0559 -0.3536 -0.0800
  210loPI   GL2 3350  16.221  10.520  11.266  0.2402 -0.1576  0.3178
  210loPI   C1A 3351  16.533  10.729  10.965  0.1140 -0.1155  0.0754
  210loPI   C2A 3352  16.520  10.759  10.620 -0.0432 -0.0998 -0.0500
  210loPI   C3A 3353  16.481  10.798  10.147  0.1238  0.0662 -0.0855
  210loPI   C4A 3354  16.496  10.702   9.696 -0.0670  0.3525  0.0423
  210loPI   C5A 3355  16.446  10.588   9.291 -0.0108 -0.1385 -0.2361
  210loPI   C6A 3356  16.565  10.930   8.940  0.0048  0.0101  0.0296
  210loPI   C1B 3357  16.002  10.591  10.816 -0.1800  0.0622  0.1231
  210loPI   C2B 3358  16.030  10.596  10.353 -0.0624 -0.0734 -0.1288
  210loPI   C3B 3359  16.059  10.506   9.958 -0.1112 -0.0076 -0.0236
  210loPI   C4B 3360  15.947  10.570   9.467  0.2919  0.1532  0.0957
  211loPI    C1 3361  10.536   0.368  11.789 -0.1057 -0.2162  0.1989
  211loPI    C2 3362  10.778   0.638  11.957  0.1046 -0.1438 -0.2096
  211loPI    C3 3363  10.659   0.319  12.167  0.0615  0.1296  0.1927
  211loPI   PO4 3364  10.413   0.511  11.548  0.0273 -0.0269  0.3873
  211loPI   GL1 3365  10.111   0.622  11.220  0.1207  0.3039  0.0532
  211loPI   GL2 3366  10.526   0.534  11.092 -0.0739  0.1328  0.1446
  211loPI   C1A 3367  10.181   0.670  10.761  0.2155 -0.2378  0.1226
  211loPI   C2A 3368  10.324   0.607  10.362  0.1516  0.2664 -0.2352
  211loPI   C3A 3369  10.370   0.536   9.926 -0.0158 -0.1613  0.0236
  211loPI   C4A 3370  10.475   0.535   9.459 -0.0162  0.2007 -0.0095
  211loPI   C5A 3371  10.602   0.770   9.110  0.2880 -0.0422  0.2192
  211loPI   C6A 3372  11.009   0.920   8.978 -0.1754 -0.1219  0.1818
  211loPI   C1B 3373  10.738   0.756  10.728 -0.3349  0.1436 -0.0603
  211loPI   C2B 3374  10.814   0.766  10.345 -0.4325  0.1036  0.1426
  211loPI   C3B 3375  11.001   0.778  10.009  0.0052  0.1225  0.1265
  211loPI   C4B 3376  10.983   0.748   9.448 -0.0295  0.3186 -0.1281
  212loPI    C1 3377   3.513   9.336  11.818 -0.0714  0.0593 -0.1687
  212loPI    C2 3378   3.687   9.007  11.965  0.0864  0.1531 -0.1425
  212loPI    C3 3379   3.365   9.162  12.146  0.0407  0.0414 -0.1271
  212loPI   PO4 3380   3.535   9.312  11.542  0.0677 -0.0623 -0.0961
  212loPI   GL1 3381   3.271   9.525  11.288  0.3415  0.2987 -0.0262
  212loPI   GL2 3382   3.325   9.226  11.110 -0.0666 -0.0674  0.1079
  212loPI   C1A 3383   3.226   9.723  10.859 -0.0026  0.2343 -0.1652
  212loPI   C2A 3384   3.252   9.843  10.443 -0.1462  0.1836 -0.0679
  212loPI   C3A 3385   3.339   9.812  10.088  0.3109  0.1225  0.0782
  212loPI   C4A 3386   3.158   9.806   9.553 -0.1531 -0.0048 -0.0903
  212loPI   C5A 3387   2.954   9.765   9.170  0.3209  0.0800  0.0368
  212loPI   C6A 3388   3.119   9.828   8.801 -0.4259 -0.0963 -0.0585
  212loPI   C1B 3389   3.223   9.307  10.703  0.1385  0.2233 -0.1175
  212loPI   C2B 3390   3.156   9.326  10.248 -0.0699 -0.3025 -0.0750
  212loPI   C3B 3391   3.106   9.384   9.798  0.1205 -0.1370 -0.1308
  212loPI   C4B 3392   3.112   9.282   9.375 -0.0254 -0.0750  0.0979
  213loPI    C1 3393  16.845   3.726  11.726  0.0806  0.2614  0.0312
  213loPI    C2 3394  16.643   3.595  12.045  0.0570  0.1019 -0.0485
  213loPI    C3 3395  16.986   3.795  12.094  0.1241 -0.0415  0.0738
  213loPI   PO4 3396  16.688   3.830  11.583  0.0769  0.0017  0.1914
  213loPI   GL1 3397  16.456   3.826  11.204  0.2349 -0.0909  0.0386
  213loPI   GL2 3398  16.810   3.718  11.134  0.2715 -0.1540 -0.0580
  213loPI   C1A 3399  16.336   3.762  10.820 -0.1166 -0.1396  0.0815
  213loPI   C2A 3400  16.357   3.836  10.363 -0.0178  0.1567 -0.1344
  213loPI   C3A 3401  16.363   3.914   9.893  0.1003  0.5111 -0.1786
  213loPI   C4A 3402  16.335   4.010   9.483  0.1504 -0.1333 -0.0742
  213loPI   C5A 3403  16.424   3.835   9.102  0.1173 -0.0595  0.0077
  213loPI   C6A 3404  16.670   3.516   9.059 -0.0580 -0.0196 -0.0211
  213loPI   C1B 3405  16.798   3.488  10.772  0.1282 -0.0379 -0.2417
  213loPI   C2B 3406  16.740   3.526  10.450  0.1032 -0.1337  0.2368
  213loPI   C3B 3407  16.713   3.558  10.063  0.1027 -0.2203  0.2132
  213loPI   C4B 3408  16.650   3.673   9.601 -0.0701 -0.2731 -0.0118
  214loPI    C1 3409   5.055   0.434  11.272 -0.0147 -0.0796  0.0579
  214loPI    C2 3410   5.347   0.696  11.352 -0.0378 -0.0727  0.1203
  214loPI    C3 3411   4.976   0.826  11.278  0.0129 -0.0700 -0.1390
  214loPI   PO4 3412   5.067   0.268  11.079 -0.3314 -0.1805 -0.0653
  214loPI   GL1 3413   5.266   0.021  10.864  0.2143 -0.0201 -0.2504
  214loPI   GL2 3414   5.491   0.019  11.000  0.0050  0.1730  0.0764
  214loPI   C1A 3415   5.213   0.173  10.402 -0.1233  0.2467 -0.0338
  214loPI   C2A 3416   5.247   0.159  10.012 -0.1132  0.2063  0.3383
  214loPI   C3A 3417   5.269   0.098   9.507 -0.1404  0.1031 -0.2384
  214loPI   C4A 3418   5.350   0.259   8.973 -0.0483  0.0699 -0.0324
  214loPI   C5A 3419   5.395   0.541   8.643 -0.1624 -0.0247  0.0647
  214loPI   C6A 3420   5.340   0.970   8.596 -0.1775  0.0246 -0.1823
  214loPI   C1B 3421   5.680   0.151  10.576  0.2839 -0.0938  0.4022
  214loPI   C2B 3422   5.759   0.060  10.072 -0.0476 -0.1454  0.3243
  214loPI   C3B 3423   5.735   0.159   9.712 -0.1416 -0.1441 -0.0950
  214loPI   C4B 3424   5.776   0.223   9.317  0.0851  0.0943 -0.0024
  215loPI    C1 3425   4.827   5.051  11.292  0.0285 -0.0318  0.0934
  215loPI    C2 3426   4.588   5.106  11.609  0.1686 -0.0880  0.2096
  215loPI    C3 3427   4.941   5.294  11.589  0.1122  0.0009  0.0349
  215loPI   PO4 3428   4.633   4.844  11.201 -0.1232 -0.1709 -0.1488
  215loPI   GL1 3429   4.465   4.659  10.876 -0.1355 -0.0909  0.1658
  215loPI   GL2 3430   4.715   4.548  10.802 -0.0188  0.1807 -0.0877
  215loPI   C1A 3431   4.479   4.815  10.415 -0.2240 -0.0081 -0.2317
  215loPI   C2A 3432   4.599   4.666  10.011 -0.1514  0.1800 -0.0666
  215loPI   C3A 3433   4.423   4.638   9.721  0.0392 -0.0844 -0.0337
  215loPI   C4A 3434   4.200   4.607   9.304 -0.1879  0.3618  0.3948
  215loPI   C5A 3435   4.407   4.283   8.918  0.4345 -0.3509  0.1633
  215loPI   C6A 3436   4.558   4.452   8.634 -0.2390 -0.1103 -0.0013
  215loPI   C1B 3437   4.729   4.367  10.526 -0.0481 -0.1284  0.2748
  215loPI   C2B 3438   4.814   4.194  10.105 -0.1462 -0.1356 -0.1063
  215loPI   C3B 3439   4.798   4.273   9.675  0.1843  0.0290 -0.0841
  215loPI   C4B 3440   4.839   4.248   9.163 -0.1177  0.1798 -0.0841
  216loPI    C1 3441   5.283  12.512  11.733 -0.1442  0.0637 -0.1080
  216loPI    C2 3442   5.061  12.389  12.043  0.0028 -0.1330 -0.0789
  216loPI    C3 3443   5.456  12.327  12.043  0.0106 -0.0907 -0.2846
  216loPI   PO4 3444   5.237  12.390  11.507 -0.0821 -0.1656 -0.0157
  216loPI   GL1 3445   5.044  12.199  11.257 -0.0791 -0.2293  0.1250
  216loPI   GL2 3446   4.929  11.887  11.323 -0.2810  0.1747 -0.0343
  216loPI   C1A 3447   5.067  12.371  10.877  0.2416  0.1742  0.0409
  216loPI   C2A 3448   5.094  12.467  10.428  0.1624 -0.2898 -0.0324
  216loPI   C3A 3449   5.024  12.521   9.991 -0.3431 -0.0137  0.0450
  216loPI   C4A 3450   4.970  12.461   9.609  0.1107  0.0105 -0.3203
  216loPI   C5A 3451   4.918  12.255   9.218  0.0529  0.1131  0.4085
  216loPI   C6A 3452   4.969  12.106   8.806  0.1143  0.0238  0.1462
  216loPI   C1B 3453   4.950  11.825  10.928  0.2207  0.0591 -0.2168
  216loPI   C2B 3454   4.919  11.891  10.441 -0.1886 -0.0237  0.2996
  216loPI   C3B 3455   4.924  11.998  10.060 -0.1701 -0.0482 -0.0550
  216loPI   C4B 3456   4.981  11.909   9.573 -0.1378  0.1262 -0.0407
  217loPI    C1 3457   2.566   5.806  11.462 -0.1932  0.0666 -0.0571
  217loPI    C2 3458   2.528   5.958  11.830 -0.0319  0.1241 -0.0637
  217loPI    C3 3459   2.417   5.581  11.757  0.1122  0.0513  0.0881
  217loPI   PO4 3460   2.418   5.951  11.322 -0.2561  0.0763  0.1246
  217loPI   GL1 3461   2.510   6.175  10.986  0.3780  0.0409  0.0671
  217loPI   GL2 3462   2.308   6.340  10.961 -0.1356  0.1736  0.3856
  217loPI   C1A 3463   2.332   5.945  10.670 -0.0553  0.0325  0.1496
  217loPI   C2A 3464   2.191   6.061  10.255  0.1029 -0.3409 -0.4581
  217loPI   C3A 3465   2.264   5.926   9.891  0.0316  0.1201  0.0853
  217loPI   C4A 3466   2.155   5.991   9.453 -0.0612  0.1075 -0.0001
  217loPI   C5A 3467   2.249   5.995   9.053 -0.2775  0.1269 -0.0474
  217loPI   C6A 3468   2.151   6.188   8.566  0.0734 -0.0321  0.1350
  217loPI   C1B 3469   2.358   6.461  10.461  0.0584  0.0775  0.1758
  217loPI   C2B 3470   2.241   6.493   9.967  0.0555 -0.2183 -0.0502
  217loPI   C3B 3471   2.143   6.508   9.556  0.0876 -0.1871 -0.1886
  217loPI   C4B 3472   2.049   6.463   9.007  0.0528 -0.0244 -0.2053
  218loPI    C1 3473  16.788   4.438  11.711 -0.1283  0.0718  0.0009
  218loPI    C2 3474  16.700   4.161  11.986  0.4052  0.1087  0.2199
  218loPI    C3 3475  17.082   4.252  11.908  0.2481  0.4758 -0.1623
  218loPI   PO4 3476  16.743   4.363  11.464 -0.1066  0.2614 -0.2158
  218loPI   GL1 3477  16.853   4.222  11.124 -0.1186  0.1545 -0.0546
  218loPI   GL2 3478  16.985   4.541  11.013  0.0686  0.0022  0.0044
  218loPI   C1A 3479  16.880   3.979  10.676  0.2044  0.3708  0.0743
  218loPI   C2A 3480  16.817   4.001  10.280 -0.0332 -0.0557 -0.0325
  218loPI   C3A 3481  16.767   4.188   9.870 -0.0620  0.1089  0.3880
  218loPI   C4A 3482  16.773   4.198   9.435  0.3281  0.2095  0.0929
  218loPI   C5A 3483  16.761   4.237   8.984 -0.2350 -0.1362 -0.1103
  218loPI   C6A 3484  16.597   3.983   8.629  0.2400 -0.2662 -0.2356
  218loPI   C1B 3485  16.953   4.541  10.581 -0.1982 -0.1822  0.2205
  218loPI   C2B 3486  16.896   4.565  10.149 -0.2774  0.1557  0.1225
  218loPI   C3B 3487  16.822   4.656   9.699 -0.0160 -0.0477  0.2187
  218loPI   C4B 3488  16.907   4.666   9.264  0.0369 -0.1872 -0.3206
  219loPI    C1 3489  15.487  12.222  11.875 -0.0229  0.0574 -0.0843
  219loPI    C2 3490  15.290  12.007  12.149  0.0840 -0.0015 -0.0531
  219loPI    C3 3491  15.675  12.101  12.207  0.0035  0.3085 -0.0059
  219loPI   PO4 3492  15.404  12.208  11.688 -0.0740 -0.1307 -0.2391
  219loPI   GL1 3493  15.571  12.054  11.271  0.0163 -0.1096 -0.3091
  219loPI   GL2 3494  15.577  11.715  11.197  0.0902 -0.0459 -0.0394
  219loPI   C1A 3495  15.466  12.193  10.776  0.0894 -0.0486 -0.0369
  219loPI   C2A 3496  15.388  12.227  10.287  0.1216 -0.3366 -0.0702
  219loPI   C3A 3497  15.355  12.233   9.833 -0.1528 -0.0491 -0.0854
  219loPI   C4A 3498  15.434  12.137   9.326  0.2949 -0.0723 -0.3822
  219loPI   C5A 3499  15.489  11.766   9.144 -0.2230 -0.0133  0.0385
  219loPI   C6A 3500  15.386  11.345   8.830 -0.1911 -0.0219 -0.1889
  219loPI   C1B 3501  15.280  11.684  10.893  0.1715 -0.0321 -0.2730
  219loPI   C2B 3502  15.288  11.769  10.507 -0.0710 -0.0791  0.1332
  219loPI   C3B 3503  15.333  11.682  10.087  0.0842 -0.3242 -0.0334
  219loPI   C4B 3504  15.363  11.702   9.656 -0.1577 -0.0844 -0.1857
  220loPI    C1 3505  12.047  16.306  11.706 -0.2820 -0.1281 -0.0805
  220loPI    C2 3506  12.275  16.229  12.026 -0.0367 -0.1090 -0.2476
  220loPI    C3 3507  11.933  16.432  12.068  0.1135  0.1046 -0.0304
  220loPI   PO4 3508  12.266  16.346  11.522 -0.3040 -0.1210 -0.2244
  220loPI   GL1 3509  12.210  16.340  11.117  0.1081 -0.1720  0.1244
  220loPI   GL2 3510  11.949  16.392  10.879 -0.1200  0.3228 -0.1540
  220loPI   C1A 3511  12.423  16.322  10.697 -0.0911  0.1958  0.0768
  220loPI   C2A 3512  12.358  16.364  10.275  0.3741 -0.3249 -0.1301
  220loPI   C3A 3513  12.388  16.327   9.860 -0.2687 -0.0532 -0.0397
  220loPI   C4A 3514  12.462  16.278   9.415  0.0107  0.0781 -0.0497
  220loPI   C5A 3515  12.227  16.347   9.088  0.0002  0.0391 -0.0692
  220loPI   C6A 3516  11.891  16.124   8.888  0.1455  0.3468 -0.0649
  220loPI   C1B 3517  12.016  16.674  10.536  0.4309 -0.2030  0.1701
  220loPI   C2B 3518  12.090  16.720  10.109  0.0126 -0.0237  0.1938
  220loPI   C3B 3519  11.980  16.605   9.713  0.1154  0.0215 -0.1450
  220loPI   C4B 3520  12.025  16.692   9.304  0.0916 -0.2864  0.0283
  221loPI    C1 3521   2.087  16.819  11.958  0.1060 -0.0105 -0.1018
  221loPI    C2 3522   2.075  17.067  12.271 -0.0512 -0.1048 -0.0317
  221loPI    C3 3523   2.157  16.679  12.326  0.3173 -0.0483 -0.1553
  221loPI   PO4 3524   1.959  16.958  11.764 -0.2663 -0.0468 -0.0593
  221loPI   GL1 3525   1.901  16.960  11.409  0.2589  0.0425 -0.1591
  221loPI   GL2 3526   1.702  16.727  11.264 -0.0116 -0.0097  0.0404
  221loPI   C1A 3527   2.013  16.954  10.896  0.0371  0.1191 -0.2921
  221loPI   C2A 3528   2.076  17.021  10.498 -0.0524  0.1174  0.1744
  221loPI   C3A 3529   2.056  17.074  10.116 -0.1183  0.0224  0.1486
  221loPI   C4A 3530   2.150  17.066   9.671  0.1808 -0.2288  0.0047
  221loPI   C5A 3531   2.136  17.128   9.244  0.2756 -0.0883 -0.1681
  221loPI   C6A 3532   1.866  17.259   8.982 -0.0724 -0.2068 -0.0999
  221loPI   C1B 3533   1.522  16.890  10.954 -0.1316  0.1447  0.3435
  221loPI   C2B 3534   1.586  16.872  10.514 -0.0372  0.2133 -0.2268
  221loPI   C3B 3535   1.607  16.863  10.127 -0.0808  0.0672  0.0446
  221loPI   C4B 3536   1.591  16.876   9.636 -0.2708 -0.0990  0.4522
  222loPI    C1 3537   8.634  14.045  11.862  0.2649  0.0232 -0.1290
  222loPI    C2 3538   8.606  13.858  12.214 -0.2545  0.0644 -0.1412
  222loPI    C3 3539   8.691  14.249  12.201  0.0595  0.0006 -0.0796
  222loPI   PO4 3540   8.612  13.837  11.642  0.1007  0.3399 -0.3482
  222loPI   GL1 3541   8.580  13.879  11.185  0.1561  0.1691 -0.0433
  222loPI   GL2 3542   8.881  14.032  11.100  0.1095 -0.1702 -0.0514
  222loPI   C1A 3543   8.521  14.273  10.897 -0.0762  0.1406 -0.0028
  222loPI   C2A 3544   8.508  14.288  10.484 -0.1652  0.1080  0.1116
  222loPI   C3A 3545   8.478  14.240  10.045 -0.2253 -0.1291 -0.0802
  222loPI   C4A 3546   8.488  14.366   9.750  0.1417  0.1429 -0.0024
  222loPI   C5A 3547   8.405  14.383   9.275  0.3622 -0.0106 -0.1292
  222loPI   C6A 3548   8.341  14.679   8.802  0.1852 -0.2484 -0.0298
  222loPI   C1B 3549   8.700  13.853  10.659  0.0517  0.1247  0.0580
  222loPI   C2B 3550   8.641  13.829  10.216 -0.1281 -0.2838 -0.0446
  222loPI   C3B 3551   8.570  13.836   9.769  0.0418 -0.1929 -0.0316
  222loPI   C4B 3552   8.529  13.780   9.346  0.1320 -0.1990  0.0932
  223loPI    C1 3553   1.780  13.912  11.578  0.0147 -0.0244 -0.1818
  223loPI    C2 3554   2.147  14.053  11.653  0.0981 -0.2467 -0.1642
  223loPI    C3 3555   1.939  13.873  11.943 -0.0834  0.0046 -0.1358
  223loPI   PO4 3556   1.778  13.872  11.300 -0.3168  0.1679 -0.1433
  223loPI   GL1 3557   1.556  13.670  10.927 -0.0196 -0.0157  0.1265
  223loPI   GL2 3558   1.378  13.494  10.920 -0.0236 -0.2011 -0.1250
  223loPI   C1A 3559   1.629  13.944  10.552  0.1794  0.3438 -0.0076
  223loPI   C2A 3560   1.545  14.012  10.098  0.0833 -0.1623 -0.0149
  223loPI   C3A 3561   1.561  14.000   9.747 -0.3332 -0.0133 -0.1441
  223loPI   C4A 3562   1.560  13.977   9.290  0.2070  0.0630 -0.1939
  223loPI   C5A 3563   1.405  13.698   8.908  0.0078  0.2353 -0.0978
  223loPI   C6A 3564   1.375  13.398   8.603  0.1983 -0.1455 -0.0510
  223loPI   C1B 3565   1.459  13.428  10.444 -0.1877 -0.0784  0.1351
  223loPI   C2B 3566   1.487  13.500  10.035 -0.3340  0.2757  0.0047
  223loPI   C3B 3567   1.479  13.540   9.643 -0.0130  0.1284  0.3925
  223loPI   C4B 3568   1.648  13.420   9.301 -0.3369 -0.1801  0.0596
  224loPI    C1 3569  10.552   8.489  11.447 -0.1641 -0.1373 -0.0500
  224loPI    C2 3570  10.312   8.365  11.742  0.1294  0.0039  0.2565
  224loPI    C3 3571  10.646   8.566  11.829  0.3008 -0.0865 -0.1689
  224loPI   PO4 3572  10.575   8.350  11.211 -0.0997  0.0347  0.0338
  224loPI   GL1 3573  10.600   8.265  10.795 -0.2171 -0.0592 -0.0783
  224loPI   GL2 3574  10.289   8.244  10.807 -0.0402 -0.1512  0.2181
  224loPI   C1A 3575  10.724   8.400  10.414 -0.0924  0.0351  0.0119
  224loPI   C2A 3576  10.734   8.421   9.969 -0.1370  0.2708 -0.1554
  224loPI   C3A 3577  10.725   8.502   9.540  0.2610  0.1006 -0.2201
  224loPI   C4A 3578  10.744   8.534   9.146 -0.0998 -0.1789 -0.0442
  224loPI   C5A 3579  11.091   8.496   8.804  0.2007 -0.1250 -0.2667
  224loPI   C6A 3580  11.466   8.544   8.744 -0.0814 -0.1594  0.1035
  224loPI   C1B 3581  10.203   8.119  10.301  0.0029 -0.2776  0.1787
  224loPI   C2B 3582  10.219   8.191   9.863 -0.1415 -0.0630  0.3045
  224loPI   C3B 3583  10.297   8.357   9.394 -0.1214 -0.2267 -0.0433
  224loPI   C4B 3584  10.325   8.585   8.965 -0.0066 -0.2331  0.3054
  225loPI    C1 3585   7.645   9.128  11.608  0.1113 -0.1086 -0.0954
  225loPI    C2 3586   7.757   9.167  11.990  0.1337 -0.2242 -0.0898
  225loPI    C3 3587   7.629   8.813  11.855  0.0029 -0.1518 -0.1569
  225loPI   PO4 3588   7.794   9.287  11.485  0.2462 -0.0683  0.1104
  225loPI   GL1 3589   7.811   9.322  11.048 -0.0422 -0.0353  0.3920
  225loPI   GL2 3590   7.572   9.495  10.990  0.1176 -0.3551  0.0174
  225loPI   C1A 3591   7.745   9.398  10.583 -0.2092  0.0338  0.2176
  225loPI   C2A 3592   7.699   9.262  10.188 -0.1298  0.0712 -0.1060
  225loPI   C3A 3593   7.648   9.184   9.766 -0.1807 -0.1507  0.2031
  225loPI   C4A 3594   7.754   9.094   9.345 -0.0681  0.3161  0.2136
  225loPI   C5A 3595   7.783   9.199   8.965 -0.0087 -0.0756  0.2525
  225loPI   C6A 3596   7.767   9.433   8.589  0.1550 -0.0146 -0.0086
  225loPI   C1B 3597   7.262   9.614  10.654  0.2252  0.1111 -0.1308
  225loPI   C2B 3598   7.328   9.607  10.228 -0.1445  0.1281  0.0051
  225loPI   C3B 3599   7.474   9.639   9.856 -0.0535  0.0156 -0.0384
  225loPI   C4B 3600   7.722   9.945   9.649  0.0048  0.0269 -0.0743
  226loPI    C1 3601   4.313   1.473  11.416  0.1238 -0.0267 -0.0359
  226loPI    C2 3602   4.093   1.669  11.686  0.2019 -0.1304  0.1039
  226loPI    C3 3603   4.461   1.543  11.781  0.2112 -0.2096 -0.0353
  226loPI   PO4 3604   4.236   1.576  11.206  0.1253 -0.1385  0.0684
  226loPI   GL1 3605   4.405   1.658  10.880  0.0489  0.0565  0.1085
  226loPI   GL2 3606   4.416   1.351  10.792 -0.1514  0.1559 -0.0064
  226loPI   C1A 3607   4.319   1.870  10.500 -0.1799  0.0092 -0.2293
  226loPI   C2A 3608   4.300   1.981  10.054 -0.0729  0.0719 -0.1681
  226loPI   C3A 3609   4.214   2.145   9.594 -0.2948 -0.0612  0.0112
  226loPI   C4A 3610   4.210   2.462   9.238  0.0747 -0.2122 -0.0367
  226loPI   C5A 3611   4.243   2.795   9.092  0.2190  0.0362 -0.0870
  226loPI   C6A 3612   4.524   2.935   8.755 -0.0563 -0.2887 -0.0115
  226loPI   C1B 3613   4.454   1.378  10.306 -0.1655 -0.0174 -0.0147
  226loPI   C2B 3614   4.597   1.517   9.981  0.0560  0.1306 -0.0288
  226loPI   C3B 3615   4.503   1.486   9.499 -0.0883 -0.2367 -0.1687
  226loPI   C4B 3616   4.634   1.607   9.085  0.0004  0.0177 -0.0499
  227loPI    C1 3617   1.095  15.193  11.691  0.0227 -0.1576 -0.0536
  227loPI    C2 3618   0.767  15.040  11.861 -0.0028 -0.0677 -0.0214
  227loPI    C3 3619   1.019  15.263  12.078  0.0584 -0.1025 -0.0565
  227loPI   PO4 3620   1.164  15.024  11.502  0.0638  0.0071 -0.0509
  227loPI   GL1 3621   1.123  15.113  11.117  0.0904  0.0078  0.1179
  227loPI   GL2 3622   0.866  15.174  11.001 -0.2020  0.0792 -0.1507
  227loPI   C1A 3623   1.359  14.835  10.792  0.0651 -0.1635 -0.0860
  227loPI   C2A 3624   1.238  14.815  10.389 -0.3353 -0.2861 -0.3895
  227loPI   C3A 3625   1.225  14.847   9.952  0.0799 -0.0087  0.1861
  227loPI   C4A 3626   1.274  14.876   9.508 -0.1089  0.2440  0.0003
  227loPI   C5A 3627   1.200  14.826   9.034 -0.1247 -0.0616  0.2973
  227loPI   C6A 3628   1.008  14.618   8.687 -0.0050 -0.3550 -0.0841
  227loPI   C1B 3629   0.911  15.162  10.554  0.0632  0.2536 -0.0615
  227loPI   C2B 3630   0.926  15.169  10.194  0.3888  0.0147  0.1508
  227loPI   C3B 3631   0.831  15.159   9.792  0.1423  0.0514 -0.4242
  227loPI   C4B 3632   0.833  15.262   9.437  0.3988 -0.2231  0.2198
  228loPI    C1 3633  13.354  16.627  11.788 -0.0967  0.1941  0.0523
  228loPI    C2 3634  13.216  16.691  12.158  0.2222  0.1444  0.1826
  228loPI    C3 3635  13.527  16.445  12.100  0.0161 -0.0453 -0.1464
  228loPI   PO4 3636  13.116  16.764  11.673 -0.2015  0.0715  0.1411
  228loPI   GL1 3637  13.084  16.772  11.228 -0.0827  0.2784 -0.0819
  228loPI   GL2 3638  13.372  16.562  11.303  0.1459  0.1982  0.2587
  228loPI   C1A 3639  12.991  16.908  10.757 -0.1574 -0.0140 -0.2114
  228loPI   C2A 3640  12.987  16.917  10.243  0.0083  0.0371  0.1388
  228loPI   C3A 3641  12.990  16.969   9.779 -0.0775  0.1171  0.1301
  228loPI   C4A 3642  12.985  16.999   9.336  0.0087 -0.2218  0.0698
  228loPI   C5A 3643  13.207  16.992   9.026 -0.2207  0.5311  0.2342
  228loPI   C6A 3644  13.618  17.116   8.784 -0.1280 -0.1831 -0.1616
  228loPI   C1B 3645  13.444  16.634  10.844  0.0965 -0.2933 -0.2353
  228loPI   C2B 3646  13.369  16.674  10.441  0.2516  0.0809 -0.2316
  228loPI   C3B 3647  13.424  16.683   9.945 -0.4062 -0.0051  0.0654
  228loPI   C4B 3648  13.477  16.678   9.379  0.2183  0.3435 -0.1775
  229loPI    C1 3649   7.190   3.097  11.370 -0.0941 -0.2257  0.1074
  229loPI    C2 3650   7.147   3.235  11.742 -0.1909  0.1187 -0.0276
  229loPI    C3 3651   7.368   2.909  11.675  0.2057  0.3137  0.2799
  229loPI   PO4 3652   7.100   3.317  11.194 -0.1136  0.2594  0.2476
  229loPI   GL1 3653   6.639   3.498  11.037  0.0751 -0.2286 -0.0945
  229loPI   GL2 3654   6.814   3.250  10.770 -0.0792  0.1314  0.0291
  229loPI   C1A 3655   6.560   3.661  10.663  0.0058  0.1926 -0.1934
  229loPI   C2A 3656   6.515   3.665  10.297 -0.2697 -0.4369 -0.2413
  229loPI   C3A 3657   6.563   3.695   9.923 -0.0907  0.2515  0.0528
  229loPI   C4A 3658   6.651   3.690   9.457  0.0561 -0.0878 -0.0699
  229loPI   C5A 3659   6.599   3.770   9.048  0.0543 -0.0576 -0.0076
  229loPI   C6A 3660   6.348   3.774   8.705  0.0385  0.0896  0.1341
  229loPI   C1B 3661   6.729   3.234  10.356  0.0471 -0.0578  0.0809
  229loPI   C2B 3662   6.741   3.164  10.008  0.0459 -0.2039  0.2188
  229loPI   C3B 3663   6.805   3.248   9.594 -0.0425 -0.2600 -0.2361
  229loPI   C4B 3664   6.921   3.199   9.140 -0.0103  0.5268  0.1525
  230loPI    C1 3665  10.873   5.270  11.442  0.2620  0.1438  0.2562
  230loPI    C2 3666  10.991   4.975  11.686 -0.0795  0.1314  0.4121
  230loPI    C3 3667  10.601   5.040  11.623  0.0006  0.2069 -0.0477
  230loPI   PO4 3668  10.997   5.235  11.191  0.1979 -0.0762 -0.0730
  230loPI   GL1 3669  10.989   5.135  10.802  0.0373 -0.0381  0.1965
  230loPI   GL2 3670  10.768   5.269  10.597 -0.1154  0.0245  0.2968
  230loPI   C1A 3671  11.107   5.106  10.321  0.0458 -0.0565  0.1499
  230loPI   C2A 3672  10.937   5.217   9.882 -0.0553 -0.0863 -0.1626
  230loPI   C3A 3673  11.118   5.218   9.519  0.0475  0.0333  0.2406
  230loPI   C4A 3674  11.121   5.181   9.082 -0.2392  0.0204 -0.2453
  230loPI   C5A 3675  11.041   5.143   8.705 -0.0385 -0.2783 -0.2111
  230loPI   C6A 3676  10.602   5.258   8.504  0.2738  0.0208 -0.1562
  230loPI   C1B 3677  10.973   5.587  10.218  0.0034  0.0578 -0.0072
  230loPI   C2B 3678  11.113   5.690   9.789 -0.1272  0.2751  0.0116
  230loPI   C3B 3679  11.262   5.706   9.378 -0.0326 -0.1788  0.0212
  230loPI   C4B 3680  11.306   5.781   9.007 -0.1774 -0.0006 -0.0366
  231loPI    C1 3681  17.101   7.546  11.792  0.0750 -0.3071  0.1195
  231loPI    C2 3682  16.765   7.534  12.009 -0.1047  0.0423 -0.1284
  231loPI    C3 3683  17.008   7.851  12.034  0.0928 -0.1079 -0.1198
  231loPI   PO4 3684  17.067   7.482  11.567  0.0843 -0.1770 -0.2253
  231loPI   GL1 3685  17.086   7.628  11.191  0.2475  0.1127  0.0239
  231loPI   GL2 3686  17.291   7.391  11.063  0.2568  0.1876  0.0254
  231loPI   C1A 3687  17.038   7.946  10.782 -0.3511  0.2346 -0.1661
  231loPI   C2A 3688  17.028   7.945  10.417  0.1923 -0.2358 -0.1171
  231loPI   C3A 3689  16.909   8.013  10.044 -0.0868  0.2868  0.2618
  231loPI   C4A 3690  17.030   8.102   9.693 -0.0191  0.0803  0.0329
  231loPI   C5A 3691  16.967   7.999   9.271  0.3683  0.0600 -0.2427
  231loPI   C6A 3692  16.981   7.725   8.927  0.3095 -0.0760 -0.1102
  231loPI   C1B 3693  16.990   7.449  10.735 -0.0241 -0.1627  0.0564
  231loPI   C2B 3694  16.949   7.489  10.338  0.2097  0.3282 -0.4027
  231loPI   C3B 3695  16.923   7.545   9.864 -0.2312  0.0886 -0.4042
  231loPI   C4B 3696  16.902   7.547   9.456  0.1149 -0.0799  0.1240
  232loPI    C1 3697   2.871   0.720  11.545  0.0608  0.1842 -0.0282
  232loPI    C2 3698   2.884   1.001  11.829 -0.0366  0.1483  0.0126
  232loPI    C3 3699   2.897   0.614  11.930  0.1565  0.1379 -0.0471
  232loPI   PO4 3700   2.834   0.838  11.324 -0.1753  0.0936  0.0810
  232loPI   GL1 3701   2.578   0.960  11.008 -0.3192 -0.0964  0.0379
  232loPI   GL2 3702   2.340   0.690  10.824 -0.0524 -0.1471  0.2044
  232loPI   C1A 3703   2.686   0.996  10.549  0.0538  0.4012 -0.1148
  232loPI   C2A 3704   2.757   0.962  10.172 -0.2311  0.0730 -0.2384
  232loPI   C3A 3705   2.738   0.919   9.759  0.2338 -0.2902 -0.1834
  232loPI   C4A 3706   2.692   0.995   9.418  0.0578 -0.0809  0.0226
  232loPI   C5A 3707   2.760   1.132   8.961  0.4044  0.4696 -0.1478
  232loPI   C6A 3708   2.839   1.316   8.505  0.2320 -0.0203 -0.2422
  232loPI   C1B 3709   2.206   0.758  10.434  0.0770 -0.0009  0.0036
  232loPI   C2B 3710   2.226   0.771   9.999  0.1473  0.0773  0.0326
  232loPI   C3B 3711   2.255   0.742   9.534  0.3923 -0.0082 -0.0107
  232loPI   C4B 3712   2.326   0.805   9.035  0.2641 -0.0979 -0.0205
  233loPI    C1 3713   0.884   5.254  11.403  0.0428  0.1018 -0.0940
  233loPI    C2 3714   0.626   5.385  11.679 -0.0077 -0.0455 -0.0705
  233loPI    C3 3715   0.494   5.273  11.319  0.0402  0.0077 -0.1047
  233loPI   PO4 3716   1.142   5.384  11.367  0.2327  0.1720 -0.2163
  233loPI   GL1 3717   1.277   5.586  11.047 -0.1584 -0.0740 -0.0538
  233loPI   GL2 3718   1.670   5.604  11.097  0.0571  0.2553  0.0386
  233loPI   C1A 3719   1.362   5.630  10.612  0.1990 -0.0708  0.0958
  233loPI   C2A 3720   1.292   5.745  10.127 -0.1491  0.0144  0.0118
  233loPI   C3A 3721   1.170   5.746   9.706  0.2459 -0.1343  0.1795
  233loPI   C4A 3722   1.049   5.715   9.272  0.0411 -0.0126 -0.0329
  233loPI   C5A 3723   0.713   5.534   9.030  0.0099  0.2038 -0.0355
  233loPI   C6A 3724   0.362   5.391   8.881 -0.0165  0.0600  0.0057
  233loPI   C1B 3725   1.677   5.296  10.709 -0.0924 -0.2767 -0.1404
  233loPI   C2B 3726   1.626   5.289  10.275  0.3223 -0.1185  0.0010
  233loPI   C3B 3727   1.578   5.367   9.851 -0.1163 -0.1238 -0.0792
  233loPI   C4B 3728   1.702   5.191   9.372 -0.2479 -0.2006 -0.1263
  234loPI    C1 3729  12.892  12.066  11.595 -0.2687  0.1621  0.0078
  234loPI    C2 3730  12.832  12.170  11.977 -0.0177 -0.0430  0.1069
  234loPI    C3 3731  13.160  11.966  11.875 -0.1434 -0.0977 -0.2004
  234loPI   PO4 3732  12.724  11.924  11.518  0.3179 -0.1117 -0.0522
  234loPI   GL1 3733  12.413  11.925  11.204 -0.0874  0.2506 -0.0521
  234loPI   GL2 3734  12.368  11.694  11.129  0.0419  0.1609 -0.0580
  234loPI   C1A 3735  12.511  12.000  10.745 -0.1154 -0.1556 -0.0140
  234loPI   C2A 3736  12.651  11.950  10.364 -0.0896  0.1894 -0.3278
  234loPI   C3A 3737  12.758  12.041   9.940  0.2013 -0.0993 -0.0744
  234loPI   C4A 3738  12.785  12.070   9.426  0.0436  0.0234  0.1704
  234loPI   C5A 3739  12.677  11.897   9.008 -0.3728  0.1172 -0.0296
  234loPI   C6A 3740  12.528  11.453   8.859 -0.0088 -0.0269  0.0389
  234loPI   C1B 3741  12.472  11.498  10.735 -0.2299 -0.0723 -0.0348
  234loPI   C2B 3742  12.570  11.478  10.343  0.0103 -0.0336  0.0131
  234loPI   C3B 3743  12.599  11.523   9.890 -0.4004 -0.1268 -0.3113
  234loPI   C4B 3744  12.510  11.598   9.437 -0.1464 -0.0145 -0.0424
  235loPI    C1 3745  11.543   1.096  11.728  0.1220 -0.0932  0.0763
  235loPI    C2 3746  11.274   0.801  11.738 -0.1885  0.1675 -0.2956
  235loPI    C3 3747  11.267   1.088  12.016 -0.0639 -0.0188 -0.0973
  235loPI   PO4 3748  11.544   1.192  11.425 -0.1759 -0.1766  0.2105
  235loPI   GL1 3749  11.640   1.140  10.991 -0.1113 -0.0135 -0.0142
  235loPI   GL2 3750  11.821   1.049  10.996  0.2406  0.1935  0.3949
  235loPI   C1A 3751  11.430   1.409  10.625 -0.1427  0.4798  0.0881
  235loPI   C2A 3752  11.387   1.371  10.084 -0.1101 -0.1863  0.0817
  235loPI   C3A 3753  11.523   1.438   9.693  0.0971  0.1329 -0.3307
  235loPI   C4A 3754  11.445   1.497   9.245  0.0954  0.0013 -0.0861
  235loPI   C5A 3755  11.405   1.298   8.878 -0.0018  0.3042 -0.0279
  235loPI   C6A 3756  11.170   1.275   8.578  0.1736 -0.2515 -0.1224
  235loPI   C1B 3757  11.887   1.057  10.498 -0.1554 -0.1799  0.0091
  235loPI   C2B 3758  11.882   1.135  10.078  0.1093 -0.2397 -0.0849
  235loPI   C3B 3759  11.932   1.177   9.674 -0.1897 -0.2272  0.0470
  235loPI   C4B 3760  11.910   1.204   9.270  0.1664 -0.0695  0.2861
  236loPI    C1 3761   2.591  10.803  11.660 -0.1213 -0.2464 -0.1715
  236loPI    C2 3762   2.814  10.620  11.937  0.0130  0.2378  0.0521
  236loPI    C3 3763   2.443  10.740  12.026 -0.0896  0.0437 -0.1057
  236loPI   PO4 3764   2.760  10.971  11.563  0.2190  0.1281  0.1256
  236loPI   GL1 3765   2.733  11.281  11.334 -0.1116  0.0741  0.0686
  236loPI   GL2 3766   2.650  10.939  11.072  0.1383 -0.1474  0.0156
  236loPI   C1A 3767   2.617  11.415  10.900 -0.1640  0.0773  0.1119
  236loPI   C2A 3768   2.563  11.547  10.430 -0.2370  0.0986  0.2410
  236loPI   C3A 3769   2.570  11.475   9.934 -0.0503 -0.0613 -0.2955
  236loPI   C4A 3770   2.462  11.402   9.467  0.2436 -0.2179 -0.2034
  236loPI   C5A 3771   2.315  11.273   9.154  0.0640 -0.3106  0.1508
  236loPI   C6A 3772   2.245  10.921   8.800  0.0312  0.0335  0.1457
  236loPI   C1B 3773   2.567  11.016  10.606 -0.3270  0.0639  0.1482
  236loPI   C2B 3774   2.561  10.976  10.154 -0.0525 -0.1440 -0.2127
  236loPI   C3B 3775   2.368  10.959   9.784  0.2186  0.0777 -0.1327
  236loPI   C4B 3776   2.217  10.852   9.325 -0.0176  0.2050  0.4081
  237loPI    C1 3777   0.379   6.958  11.628 -0.0818 -0.2142  0.2547
  237loPI    C2 3778   0.273   7.316  11.484  0.0424 -0.3263 -0.1287
  237loPI    C3 3779   0.103   7.176  11.818  0.0212  0.1039  0.0476
  237loPI   PO4 3780   0.370   6.800  11.418 -0.0703  0.2383 -0.1383
  237loPI   GL1 3781   0.128   6.823  11.020 -0.4724  0.0161  0.1094
  237loPI   GL2 3782   0.362   6.597  10.925 -0.2687 -0.1868 -0.2047
  237loPI   C1A 3783   0.033   7.061  10.719 -0.0910 -0.1390  0.0269
  237loPI   C2A 3784  -0.003   7.106  10.275  0.2131  0.1546  0.0045
  237loPI   C3A 3785   0.014   7.166   9.971  0.1390 -0.0090  0.0759
  237loPI   C4A 3786  -0.040   7.187   9.571  0.1120  0.1094 -0.0793
  237loPI   C5A 3787  -0.016   7.168   9.151 -0.0630 -0.1640  0.0435
  237loPI   C6A 3788   0.171   7.274   8.868 -0.0300 -0.0033  0.1053
  237loPI   C1B 3789   0.397   6.781  10.544  0.0405 -0.1501  0.1720
  237loPI   C2B 3790   0.436   6.813  10.124  0.0111  0.1825  0.0929
  237loPI   C3B 3791   0.411   6.863   9.674 -0.1055  0.2530 -0.1962
  237loPI   C4B 3792   0.351   6.863   9.242  0.2833  0.0810 -0.2015
  238loPI    C1 3793   9.693   8.087  11.721  0.0746 -0.2630 -0.0679
  238loPI    C2 3794  10.044   7.896  11.740  0.1133 -0.1753  0.1127
  238loPI    C3 3795   9.943   8.159  12.025  0.0775  0.1037 -0.1524
  238loPI   PO4 3796   9.615   8.136  11.443  0.0526  0.2365  0.0146
  238loPI   GL1 3797   9.698   8.191  10.914  0.0217 -0.1256 -0.3011
  238loPI   GL2 3798   9.830   7.921  10.789 -0.2617  0.1515 -0.1607
  238loPI   C1A 3799   9.822   8.386  10.515 -0.0846  0.0825 -0.2110
  238loPI   C2A 3800   9.847   8.386  10.098  0.0346 -0.0623 -0.0331
  238loPI   C3A 3801   9.876   8.402   9.657 -0.0436 -0.2626  0.2222
  238loPI   C4A 3802   9.917   8.673   9.271 -0.0577 -0.1175  0.1039
  238loPI   C5A 3803   9.971   8.996   8.907  0.2281 -0.1212 -0.2882
  238loPI   C6A 3804  10.060   9.459   8.924  0.0706 -0.0287 -0.3405
  238loPI   C1B 3805   9.711   7.970  10.293  0.4585 -0.1600  0.3758
  238loPI   C2B 3806   9.728   7.918   9.855  0.1140 -0.0661 -0.1527
  238loPI   C3B 3807   9.794   7.914   9.404 -0.2320  0.1028  0.3588
  238loPI   C4B 3808   9.807   7.732   9.101  0.1536 -0.2598  0.3794
  239loPI    C1 3809  15.608   6.042  11.672  0.1810 -0.0203 -0.0339
  239loPI    C2 3810  15.691   6.086  12.061 -0.2080  0.1062  0.0395
  239loPI    C3 3811  15.523   5.748  11.929  0.0399  0.0126 -0.0418
  239loPI   PO4 3812  15.411   6.198  11.532 -0.2944 -0.2956 -0.2370
  239loPI   GL1 3813  15.333   5.979  11.141  0.4229  0.2213 -0.0357
  239loPI   GL2 3814  14.948   6.057  10.955 -0.2074  0.3015  0.3093
  239loPI   C1A 3815  15.324   5.696  10.847  0.2008 -0.1680 -0.3635
  239loPI   C2A 3816  15.352   5.770  10.498 -0.0904 -0.0869 -0.0386
  239loPI   C3A 3817  15.348   5.958  10.126 -0.0247 -0.0297 -0.0969
  239loPI   C4A 3818  15.281   5.943   9.712  0.0924 -0.0100 -0.0027
  239loPI   C5A 3819  15.206   6.023   9.349  0.1021  0.1638 -0.1508
  239loPI   C6A 3820  15.299   6.132   9.000 -0.1046  0.0121  0.4419
  239loPI   C1B 3821  14.839   6.100  10.468 -0.0319 -0.0579 -0.2115
  239loPI   C2B 3822  14.934   6.264  10.059 -0.0836  0.0236 -0.1431
  239loPI   C3B 3823  14.793   6.168   9.584  0.1055  0.0913 -0.0137
  239loPI   C4B 3824  14.772   6.203   9.123  0.0660 -0.2370  0.0545
  240loPI    C1 3825   8.862  10.495  11.620  0.0600  0.1297 -0.0624
  240loPI    C2 3826   9.054  10.781  11.823 -0.1021  0.3352 -0.1933
  240loPI    C3 3827   8.728  10.609  11.979  0.2843 -0.1471  0.1131
  240loPI   PO4 3828   8.955  10.545  11.363  0.2992  0.3044  0.2533
  240loPI   GL1 3829   9.061  10.506  10.977  0.1199 -0.0336  0.0013
  240loPI   GL2 3830   9.222  10.798  11.020  0.1420  0.0599  0.2369
  240loPI   C1A 3831   8.893  10.554  10.564  0.1314 -0.1660 -0.2133
  240loPI   C2A 3832   8.843  10.561  10.159  0.4047 -0.3191  0.0644
  240loPI   C3A 3833   8.869  10.584   9.750  0.1036  0.2356  0.1405
  240loPI   C4A 3834   8.663  10.488   9.364  0.0878  0.0948 -0.0026
  240loPI   C5A 3835   8.743  10.196   9.203 -0.2305  0.0834 -0.3009
  240loPI   C6A 3836   8.867   9.983   8.746  0.0071  0.1600 -0.1298
  240loPI   C1B 3837   9.140  10.947  10.658 -0.1162 -0.1310 -0.0852
  240loPI   C2B 3838   9.130  11.004  10.261  0.3130  0.0049  0.2444
  240loPI   C3B 3839   9.164  11.020   9.807 -0.1046 -0.1010  0.4542
  240loPI   C4B 3840   9.296  10.923   9.364  0.0280  0.0229  0.0193
  241loPI    C1 3841  16.163   8.516  11.665 -0.0254  0.0222 -0.1275
  241loPI    C2 3842  16.134   8.843  11.893 -0.0689 -0.1058  0.0525
  241loPI    C3 3843  16.151   8.481  12.063  0.2959 -0.1802 -0.1316
  241loPI   PO4 3844  16.043   8.671  11.410 -0.0143 -0.0193 -0.0352
  241loPI   GL1 3845  16.050   8.883  11.038  0.3199  0.0333  0.0239
  241loPI   GL2 3846  15.951   9.149  11.085  0.0314 -0.0843  0.1494
  241loPI   C1A 3847  16.093   8.682  10.672 -0.1008 -0.0802 -0.2779
  241loPI   C2A 3848  16.184   8.631  10.283 -0.0651  0.0479 -0.3940
  241loPI   C3A 3849  16.128   8.610   9.853  0.0509 -0.0704 -0.0925
  241loPI   C4A 3850  16.179   8.662   9.434  0.0014 -0.4162  0.0341
  241loPI   C5A 3851  16.299   8.546   9.034  0.1881 -0.0811  0.1074
  241loPI   C6A 3852  16.131   8.658   8.651 -0.0169 -0.2302  0.1840
  241loPI   C1B 3853  15.854   9.401  10.846  0.1644  0.0036  0.0412
  241loPI   C2B 3854  15.897   9.633  10.534 -0.0906 -0.1078 -0.3629
  241loPI   C3B 3855  15.831   9.450  10.011 -0.0949 -0.4435  0.1833
  241loPI   C4B 3856  15.997   9.601   9.670  0.0684  0.2544  0.0491
  242loPI    C1 3857  16.588   2.765  11.828 -0.0171  0.0500 -0.0698
  242loPI    C2 3858  16.494   3.098  12.028  0.3071  0.2754 -0.2831
  242loPI    C3 3859  16.712   2.813  12.205 -0.1033  0.0984 -0.0473
  242loPI   PO4 3860  16.569   2.856  11.573  0.0916 -0.0491 -0.0537
  242loPI   GL1 3861  16.399   2.772  11.245 -0.0172 -0.1182  0.0037
  242loPI   GL2 3862  16.592   2.485  11.169  0.0589 -0.2185 -0.2088
  242loPI   C1A 3863  16.255   2.887  10.880  0.2162 -0.2255 -0.1609
  242loPI   C2A 3864  16.206   2.873  10.472  0.0371  0.1240 -0.0908
  242loPI   C3A 3865  16.211   2.807  10.126 -0.2070 -0.2279  0.0790
  242loPI   C4A 3866  16.175   2.753   9.739 -0.0402 -0.0359  0.1104
  242loPI   C5A 3867  16.263   2.960   9.362  0.0265 -0.0631 -0.1755
  242loPI   C6A 3868  16.335   3.044   8.913 -0.0110  0.1348 -0.0268
  242loPI   C1B 3869  16.689   2.505  10.774 -0.0470  0.0085 -0.0184
  242loPI   C2B 3870  16.611   2.512  10.372  0.1317 -0.0613 -0.0846
  242loPI   C3B 3871  16.584   2.544   9.889 -0.0570  0.1662 -0.0992
  242loPI   C4B 3872  16.608   2.470   9.407  0.1382  0.0902 -0.1168
  243loPI    C1 3873   6.192   6.464  11.471  0.1774  0.0353  0.0268
  243loPI    C2 3874   6.056   6.098  11.558  0.1623 -0.0185 -0.2156
  243loPI    C3 3875   5.876   6.420  11.712 -0.1877 -0.0922 -0.4594
  243loPI   PO4 3876   6.286   6.469  11.236  0.0017  0.1208  0.2448
  243loPI   GL1 3877   6.269   6.324  10.732  0.1327 -0.1653 -0.0013
  243loPI   GL2 3878   6.011   6.423  10.772 -0.4592 -0.0649  0.1046
  243loPI   C1A 3879   6.458   6.385  10.403 -0.2338 -0.0752 -0.2082
  243loPI   C2A 3880   6.483   6.462   9.966 -0.3149 -0.3216  0.2683
  243loPI   C3A 3881   6.415   6.451   9.512  0.1183 -0.0187  0.0588
  243loPI   C4A 3882   6.481   6.437   9.139  0.0493  0.0752  0.1228
  243loPI   C5A 3883   6.310   6.173   8.782  0.2255  0.2593 -0.1803
  243loPI   C6A 3884   5.891   6.077   8.513 -0.1844 -0.4300 -0.2684
  243loPI   C1B 3885   5.995   6.469  10.312  0.1657 -0.1394 -0.0461
  243loPI   C2B 3886   5.903   6.541   9.834 -0.0768 -0.0177 -0.1937
  243loPI   C3B 3887   5.971   6.507   9.360  0.1721 -0.1852  0.0722
  243loPI   C4B 3888   5.857   6.361   8.985 -0.1836 -0.2563 -0.1445
  244loPI    C1 3889   3.181  13.762  11.784  0.1288  0.1027 -0.0955
  244loPI    C2 3890   3.103  13.599  12.140 -0.0699 -0.0986 -0.2284
  244loPI    C3 3891   3.478  13.703  12.045 -0.0136 -0.0568  0.0321
  244loPI   PO4 3892   3.159  13.615  11.563  0.1211 -0.1292 -0.0201
  244loPI   GL1 3893   3.210  13.830  11.216 -0.0155  0.5057 -0.1116
  244loPI   GL2 3894   3.514  13.832  11.153  0.2773 -0.0243  0.0722
  244loPI   C1A 3895   3.047  14.031  10.802 -0.2115  0.0717 -0.0464
  244loPI   C2A 3896   3.049  13.974  10.429 -0.0667 -0.0168 -0.1912
  244loPI   C3A 3897   2.990  14.040   9.978  0.1168 -0.0650  0.0559
  244loPI   C4A 3898   2.955  14.061   9.545  0.1205 -0.2037  0.3908
  244loPI   C5A 3899   2.946  14.189   9.098 -0.1409 -0.1465  0.0936
  244loPI   C6A 3900   2.973  14.035   8.704 -0.1298 -0.3011 -0.1945
  244loPI   C1B 3901   3.459  13.683  10.695 -0.2311 -0.1683 -0.0909
  244loPI   C2B 3902   3.471  13.660  10.321  0.1602  0.2073  0.0082
  244loPI   C3B 3903   3.364  13.722   9.938 -0.0578 -0.1930 -0.0040
  244loPI   C4B 3904   3.483  13.772   9.541  0.1559  0.0924  0.0574
  245loPI    C1 3905  15.530  17.115  11.794 -0.1237 -0.0869  0.1180
  245loPI    C2 3906  15.776  17.244  12.082  0.0518 -0.0959 -0.0268
  245loPI    C3 3907  15.384  17.216  12.153  0.0650  0.1165  0.1397
  245loPI   PO4 3908  15.554  17.328  11.575  0.0111 -0.0439 -0.0983
  245loPI   GL1 3909  15.504  17.429  11.130 -0.2640  0.0008  0.0314
  245loPI   GL2 3910  15.662  17.145  11.129 -0.0678 -0.2259 -0.1467
  245loPI   C1A 3911  15.396  17.589  10.670  0.3811 -0.0442 -0.2547
  245loPI   C2A 3912  15.320  17.465  10.331  0.2733  0.5151  0.0292
  245loPI   C3A 3913  15.279  17.414   9.920  0.0358 -0.1158  0.0433
  245loPI   C4A 3914  15.245  17.421   9.472 -0.0555  0.1599  0.0741
  245loPI   C5A 3915  14.868  17.295   9.188  0.0662  0.3015  0.1052
  245loPI   C6A 3916  14.521  17.158   8.837  0.1270 -0.1999 -0.1203
  245loPI   C1B 3917  15.748  17.219  10.699  0.3883  0.0375  0.2841
  245loPI   C2B 3918  15.746  17.180  10.209  0.3363  0.0810  0.0593
  245loPI   C3B 3919  15.761  17.125   9.763  0.1180 -0.0574  0.0836
  245loPI   C4B 3920  15.685  17.203   9.353  0.2795 -0.2040 -0.0711
  246loPI    C1 3921  14.469   0.254  11.595  0.1028 -0.0306  0.0555
  246loPI    C2 3922  14.330   0.591  11.761  0.0421 -0.0558  0.0564
  246loPI    C3 3923  14.242   0.237  11.924 -0.2136 -0.0958 -0.1622
  246loPI   PO4 3924  14.603   0.365  11.390 -0.1988 -0.1399  0.1180
  246loPI   GL1 3925  14.357   0.325  11.016 -0.2902 -0.0899 -0.1310
  246loPI   GL2 3926  14.304   0.009  11.120 -0.0141 -0.2207 -0.1955
  246loPI   C1A 3927  14.384   0.280  10.575 -0.2337 -0.0544 -0.2673
  246loPI   C2A 3928  14.370   0.213  10.151 -0.1612 -0.0904  0.1045
  246loPI   C3A 3929  14.429   0.182   9.787  0.0285  0.0182  0.2035
  246loPI   C4A 3930  14.450   0.140   9.337 -0.1197 -0.1489 -0.0945
  246loPI   C5A 3931  14.492   0.365   9.033 -0.0873 -0.0450  0.0317
  246loPI   C6A 3932  14.644   0.621   8.722  0.2414 -0.0121  0.2413
  246loPI   C1B 3933  14.292  -0.222  10.740 -0.1853  0.1853 -0.0785
  246loPI   C2B 3934  14.389  -0.290  10.392  0.0678  0.0117  0.1297
  246loPI   C3B 3935  14.333  -0.305   9.927 -0.4102  0.1259  0.0432
  246loPI   C4B 3936  14.357  -0.305   9.470  0.0651  0.3264 -0.1127
  247loPI    C1 3937   0.950  11.123  11.876 -0.0701  0.1565 -0.0903
  247loPI    C2 3938   1.190  10.824  11.991 -0.1694  0.1233  0.0330
  247loPI    C3 3939   1.156  11.153  12.217 -0.2428  0.1264  0.0177
  247loPI   PO4 3940   0.825  11.090  11.649  0.0740 -0.2841 -0.1931
  247loPI   GL1 3941   0.742  11.343  11.347  0.4735  0.0291  0.4156
  247loPI   GL2 3942   0.441  11.627  11.339 -0.1822  0.0086 -0.1062
  247loPI   C1A 3943   0.607  11.348  10.924  0.0738  0.1514  0.1852
  247loPI   C2A 3944   0.587  11.310  10.485 -0.2304 -0.2525 -0.0042
  247loPI   C3A 3945   0.667  11.333  10.166 -0.2271 -0.2166  0.3029
  247loPI   C4A 3946   0.726  11.197   9.776  0.1787 -0.0006  0.1824
  247loPI   C5A 3947   0.624  11.268   9.287  0.1068  0.2397 -0.1494
  247loPI   C6A 3948   0.746  11.303   8.877 -0.1489  0.1395 -0.1774
  247loPI   C1B 3949   0.230  11.630  10.891  0.0553 -0.1265  0.0176
  247loPI   C2B 3950   0.198  11.606  10.432  0.0731 -0.1919 -0.0428
  247loPI   C3B 3951   0.283  11.563   9.981 -0.2019 -0.0030 -0.0317
  247loPI   C4B 3952   0.276  11.551   9.602 -0.0248 -0.0732 -0.1774
  248loPI    C1 3953  16.383  16.551  11.909 -0.0694 -0.1091  0.1586
  248loPI    C2 3954  16.283  16.937  11.942 -0.0111 -0.0760 -0.0376
  248loPI    C3 3955  16.586  16.789  12.158 -0.0128 -0.0048  0.0140
  248loPI   PO4 3956  16.404  16.564  11.643  0.4032  0.2274 -0.0701
  248loPI   GL1 3957  16.345  16.373  11.263 -0.1160  0.4855 -0.1218
  248loPI   GL2 3958  16.207  16.069  11.154  0.1760 -0.3333  0.3648
  248loPI   C1A 3959  16.250  16.503  10.904 -0.2101 -0.0219  0.1107
  248loPI   C2A 3960  16.175  16.730  10.516 -0.0052 -0.3080 -0.0233
  248loPI   C3A 3961  16.143  16.807  10.062 -0.2984  0.2161 -0.0539
  248loPI   C4A 3962  16.143  16.843   9.605 -0.0028  0.3505  0.0734
  248loPI   C5A 3963  16.059  16.833   9.216  0.2888  0.0750 -0.3141
  248loPI   C6A 3964  15.800  17.068   8.889 -0.0997  0.0607  0.1830
  248loPI   C1B 3965  16.364  16.073  10.732 -0.1658 -0.0740  0.0489
  248loPI   C2B 3966  16.430  16.038  10.332 -0.1088  0.0750 -0.0952
  248loPI   C3B 3967  16.410  16.008   9.891 -0.0273  0.0403  0.0774
  248loPI   C4B 3968  16.434  16.004   9.401 -0.1406 -0.0795 -0.0797
  249loPI    C1 3969   0.004  12.727  11.750 -0.0109 -0.1240  0.1528
  249loPI    C2 3970  -0.066  13.018  12.016 -0.2318 -0.0826  0.0512
  249loPI    C3 3971   0.158  12.703  12.118  0.2635  0.2653  0.0696
  249loPI   PO4 3972  -0.233  12.723  11.598 -0.1815 -0.2444  0.2440
  249loPI   GL1 3973  -0.383  12.907  11.284  0.2136 -0.2524  0.1927
  249loPI   GL2 3974  -0.717  12.748  11.301  0.0530 -0.0313 -0.1542
  249loPI   C1A 3975  -0.422  12.799  10.866  0.0055 -0.2268 -0.2159
  249loPI   C2A 3976  -0.387  12.744  10.530  0.1697 -0.0798  0.1125
  249loPI   C3A 3977  -0.397  12.761   9.998 -0.1469 -0.0734  0.0586
  249loPI   C4A 3978  -0.518  12.717   9.653 -0.1635 -0.0509 -0.0108
  249loPI   C5A 3979  -0.469  12.624   9.273  0.2341  0.0057  0.1642
  249loPI   C6A 3980  -0.346  12.665   8.838  0.4629  0.0008  0.0405
  249loPI   C1B 3981  -0.902  12.549  10.887  0.0363  0.0329 -0.0165
  249loPI   C2B 3982  -0.895  12.573  10.462 -0.2421 -0.2061  0.1004
  249loPI   C3B 3983  -0.864  12.591  10.001 -0.0297 -0.1139  0.1314
  249loPI   C4B 3984  -0.969  12.558   9.596 -0.0782  0.0344  0.1609
  250loPI    C1 3985   0.390  10.328  12.011  0.0739 -0.0430 -0.1190
  250loPI    C2 3986   0.671  10.576  12.152  0.0161 -0.0421 -0.0040
  250loPI    C3 3987   0.591  10.235  12.345  0.0397 -0.1126 -0.1177
  250loPI   PO4 3988   0.228  10.456  11.961  0.2635 -0.1868 -0.0976
  250loPI   GL1 3989   0.115  10.670  11.461 -0.0797  0.3203 -0.1459
  250loPI   GL2 3990   0.228  10.400  11.456  0.0573  0.1315 -0.0481
  250loPI   C1A 3991   0.098  10.628  10.995 -0.2469  0.0090  0.0271
  250loPI   C2A 3992   0.063  10.715  10.531  0.1579 -0.3090 -0.1460
  250loPI   C3A 3993   0.071  10.604  10.149  0.2142 -0.0259  0.0235
  250loPI   C4A 3994   0.024  10.481   9.744  0.1224 -0.0870 -0.1087
  250loPI   C5A 3995   0.096  10.487   9.315 -0.0272  0.1129 -0.0041
  250loPI   C6A 3996  -0.175  10.499   8.981  0.2247 -0.0426  0.0871
  250loPI   C1B 3997   0.468  10.283  11.090 -0.0855 -0.1824 -0.0866
  250loPI   C2B 3998   0.489  10.295  10.664  0.0495  0.0125 -0.0426
  250loPI   C3B 3999   0.458  10.352  10.207 -0.0603 -0.0688 -0.1941
  250loPI   C4B 4000   0.556  10.253   9.771 -0.0424 -0.2571 -0.3564
  251loPI    C1 4001   5.510   8.578  11.415 -0.0586  0.1819 -0.0544
  251loPI    C2 4002   5.520   8.250  11.643  0.0913  0.2073 -0.0235
  251loPI    C3 4003   5.344   8.583  11.779  0.1447  0.2102  0.0395
  251loPI   PO4 4004   5.364   8.419  11.174 -0.1593 -0.2437  0.2024
  251loPI   GL1 4005   4.919   8.227  11.064 -0.0947 -0.0199  0.1824
  251loPI   GL2 4006   4.920   8.584  10.816 -0.1315  0.0105 -0.3345
  251loPI   C1A 4007   4.658   8.165  10.683 -0.0486  0.2191 -0.0185
  251loPI   C2A 4008   4.411   8.251  10.251  0.0989  0.0951 -0.3036
  251loPI   C3A 4009   4.275   8.318   9.845 -0.0489 -0.0907  0.0943
  251loPI   C4A 4010   4.170   8.204   9.357 -0.4694 -0.1495 -0.5995
  251loPI   C5A 4011   4.298   8.058   8.863  0.0927  0.0372  0.0556
  251loPI   C6A 4012   4.508   7.750   8.604  0.0416 -0.0198  0.1215
  251loPI   C1B 4013   4.649   8.724  10.409  0.0841  0.2745 -0.1020
  251loPI   C2B 4014   4.473   8.736   9.959  0.1727 -0.3045  0.1875
  251loPI   C3B 4015   4.346   8.781   9.485 -0.0846 -0.1003 -0.0927
  251loPI   C4B 4016   4.218   9.061   9.156  0.1374  0.2475  0.1263
  252loPI    C1 4017   8.609  16.617  11.533 -0.0762  0.0495  0.0768
  252loPI    C2 4018   8.535  16.268  11.353 -0.1200  0.1075 -0.0184
  252loPI    C3 4019   8.410  16.330  11.727  0.3678 -0.1819  0.2025
  252loPI   PO4 4020   8.833  16.698  11.265 -0.2131 -0.2222 -0.1406
  252loPI   GL1 4021   8.922  16.694  10.870  0.0669  0.0864 -0.0122
  252loPI   GL2 4022   9.126  16.508  10.730 -0.1541  0.0051  0.0548
  252loPI   C1A 4023   8.573  16.674  10.639  0.1145  0.1122  0.1683
  252loPI   C2A 4024   8.518  16.699  10.171  0.1305 -0.2516 -0.0234
  252loPI   C3A 4025   8.499  16.672   9.790 -0.0089 -0.1287 -0.0418
  252loPI   C4A 4026   8.473  16.783   9.372 -0.2549 -0.1177  0.0182
  252loPI   C5A 4027   8.388  16.926   8.987  0.1383 -0.3917 -0.0476
  252loPI   C6A 4028   8.496  16.898   8.639 -0.1016  0.3817 -0.0040
  252loPI   C1B 4029   8.998  16.521  10.245 -0.0721  0.0114  0.2265
  252loPI   C2B 4030   8.995  16.597   9.817 -0.2593 -0.0796  0.0514
  252loPI   C3B 4031   8.940  16.703   9.412  0.0002 -0.2880 -0.1694
  252loPI   C4B 4032   8.900  16.773   8.975  0.0360 -0.1695  0.0756
  253loPI    C1 4033  12.938   1.413  11.823 -0.2531 -0.1779 -0.1141
  253loPI    C2 4034  13.252   1.660  11.843 -0.1816 -0.2752 -0.0321
  253loPI    C3 4035  12.965   1.679  12.121 -0.1250 -0.3524  0.0321
  253loPI   PO4 4036  12.905   1.389  11.559 -0.1328 -0.1828  0.0244
  253loPI   GL1 4037  12.802   1.160  11.218 -0.1930  0.1453  0.2243
  253loPI   GL2 4038  12.613   1.390  11.105 -0.0224 -0.3054  0.0519
  253loPI   C1A 4039  12.673   0.980  10.828 -0.0573  0.1172 -0.1424
  253loPI   C2A 4040  12.765   0.939  10.407 -0.0373  0.0038 -0.0141
  253loPI   C3A 4041  12.748   0.991   9.964  0.0353 -0.1256  0.2377
  253loPI   C4A 4042  12.786   1.074   9.426  0.4415  0.0890  0.0537
  253loPI   C5A 4043  13.067   1.245   9.107 -0.2266  0.0952 -0.2486
  253loPI   C6A 4044  13.272   1.230   8.677  0.3181 -0.1110 -0.2020
  253loPI   C1B 4045  12.747   1.542  10.724  0.1438 -0.0844  0.0837
  253loPI   C2B 4046  12.782   1.494  10.301 -0.1167 -0.1924 -0.2012
  253loPI   C3B 4047  12.810   1.509   9.841 -0.1062  0.1236 -0.3020
  253loPI   C4B 4048  12.888   1.569   9.462 -0.0438 -0.1709  0.3204
  254loPI    C1 4049  10.355  15.092  11.694 -0.1679  0.0025  0.0619
  254loPI    C2 4050  10.504  15.204  12.048  0.0944 -0.0908 -0.0172
  254loPI    C3 4051  10.425  14.818  11.977 -0.0691 -0.0574 -0.0199
  254loPI   PO4 4052  10.528  15.259  11.482  0.0751 -0.2065 -0.1910
  254loPI   GL1 4053  10.575  15.440  11.037  0.1915 -0.1056  0.0935
  254loPI   GL2 4054  10.400  15.218  10.946  0.4468  0.0565  0.1154
  254loPI   C1A 4055  10.740  15.722  10.703 -0.0380  0.1458  0.1792
  254loPI   C2A 4056  10.760  15.717  10.320  0.3835 -0.1010  0.2023
  254loPI   C3A 4057  10.863  15.827   9.946  0.1380 -0.0409 -0.2754
  254loPI   C4A 4058  10.931  15.800   9.551 -0.2107 -0.0275  0.0994
  254loPI   C5A 4059  10.997  15.807   9.079 -0.0736 -0.0399  0.0124
  254loPI   C6A 4060  11.051  15.921   8.572 -0.3544  0.2240 -0.2464
  254loPI   C1B 4061  10.414  15.365  10.471 -0.1007  0.2324 -0.2238
  254loPI   C2B 4062  10.387  15.325  10.062  0.0499 -0.3049 -0.0691
  254loPI   C3B 4063  10.345  15.124   9.571  0.0382 -0.0170 -0.1957
  254loPI   C4B 4064  10.325  14.692   9.403  0.2151 -0.1392 -0.0126
  255loPI    C1 4065   0.406   9.307  11.610  0.0423  0.0713  0.0762
  255loPI    C2 4066   0.547   9.326  11.984  0.1205 -0.2809  0.0680
  255loPI    C3 4067   0.714   9.077  11.720  0.1713  0.0818 -0.2511
  255loPI   PO4 4068   0.331   9.490  11.477  0.1827  0.0656 -0.0198
  255loPI   GL1 4069   0.152   9.756  11.174  0.0489  0.1957  0.1098
  255loPI   GL2 4070   0.426   9.821  11.118 -0.2567  0.1003 -0.0457
  255loPI   C1A 4071   0.005   9.674  10.925 -0.2943 -0.0406  0.0281
  255loPI   C2A 4072  -0.046   9.658  10.453 -0.0448 -0.1408  0.0328
  255loPI   C3A 4073  -0.086   9.555   9.944 -0.0225 -0.0637 -0.0286
  255loPI   C4A 4074  -0.042   9.547   9.455 -0.2360 -0.2224 -0.0269
  255loPI   C5A 4075  -0.355   9.699   9.106 -0.0559 -0.0033  0.0985
  255loPI   C6A 4076  -0.645   9.407   8.871  0.0535  0.3188 -0.0723
  255loPI   C1B 4077   0.432   9.784  10.709 -0.0071  0.0411 -0.0473
  255loPI   C2B 4078   0.406   9.862  10.320 -0.0215 -0.1576 -0.0198
  255loPI   C3B 4079   0.388   9.728   9.926 -0.0151  0.1102  0.0409
  255loPI   C4B 4080   0.472   9.668   9.484  0.1069  0.1285 -0.0292
  256loPI    C1 4081   3.564   1.992  11.669  0.1341  0.0130 -0.0090
  256loPI    C2 4082   3.932   2.145  11.636  0.1065  0.0669 -0.0697
  256loPI    C3 4083   3.808   1.996  11.986  0.2190 -0.0373 -0.0733
  256loPI   PO4 4084   3.473   2.147  11.465  0.0073 -0.2406 -0.0445
  256loPI   GL1 4085   3.394   2.112  11.045  0.1875  0.0265 -0.1458
  256loPI   GL2 4086   3.014   1.891  10.940 -0.1411 -0.0983  0.1373
  256loPI   C1A 4087   3.416   2.044  10.632  0.0907  0.0210  0.1198
  256loPI   C2A 4088   3.341   2.078  10.224 -0.1724 -0.0140  0.0303
  256loPI   C3A 4089   3.273   2.075   9.805  0.0439  0.0150  0.2601
  256loPI   C4A 4090   3.179   2.036   9.307  0.0667  0.3004  0.2345
  256loPI   C5A 4091   3.086   1.750   9.030 -0.0410 -0.1033 -0.0898
  256loPI   C6A 4092   3.262   1.430   8.775  0.1010  0.2337 -0.1242
  256loPI   C1B 4093   2.944   1.916  10.538  0.1319 -0.0433  0.2578
  256loPI   C2B 4094   2.796   1.879  10.074 -0.0249 -0.4224  0.0577
  256loPI   C3B 4095   2.781   1.906   9.633  0.0115  0.1773  0.3928
  256loPI   C4B 4096   2.652   1.880   9.191 -0.1482 -0.0559 -0.3252
  257loPI    C1 4097  14.173  14.624  11.829  0.0041 -0.1962  0.3062
  257loPI    C2 4098  13.911  14.914  11.914 -0.1258 -0.2237  0.0110
  257loPI    C3 4099  14.285  14.936  12.052 -0.1841 -0.0050  0.1384
  257loPI   PO4 4100  14.125  14.648  11.548  0.2082  0.3112  0.1661
  257loPI   GL1 4101  14.081  14.984  11.247 -0.1869 -0.0200 -0.1344
  257loPI   GL2 4102  14.414  14.927  11.139 -0.0233 -0.0704 -0.0172
  257loPI   C1A 4103  14.021  14.880  10.807 -0.0258  0.2710  0.1353
  257loPI   C2A 4104  14.059  15.016  10.322 -0.0571 -0.0343 -0.0982
  257loPI   C3A 4105  14.058  15.035   9.868  0.0434 -0.2380 -0.0934
  257loPI   C4A 4106  14.102  15.020   9.425 -0.1943 -0.1948  0.1307
  257loPI   C5A 4107  14.186  15.054   8.975  0.0028  0.2118 -0.2888
  257loPI   C6A 4108  14.583  14.997   8.869 -0.2439 -0.0105 -0.2404
  257loPI   C1B 4109  14.447  15.163  10.709 -0.0431  0.3676  0.5312
  257loPI   C2B 4110  14.509  15.285  10.318  0.1494  0.2719 -0.0305
  257loPI   C3B 4111  14.541  15.267   9.900  0.2454  0.0230 -0.1736
  257loPI   C4B 4112  14.608  15.216   9.416 -0.2934 -0.0583 -0.0751
  258loPI    C1 4113   6.865   4.280  11.434  0.3066  0.1264  0.2083
  258loPI    C2 4114   6.544   4.404  11.637  0.2636 -0.0985  0.2810
  258loPI    C3 4115   6.806   4.156  11.810  0.2486 -0.2593  0.0769
  258loPI   PO4 4116   6.800   4.230  11.196  0.2894  0.0992 -0.1279
  258loPI   GL1 4117   6.939   3.961  10.852  0.5323 -0.3078 -0.0111
  258loPI   GL2 4118   7.065   3.760  10.945  0.1600  0.2307 -0.1077
  258loPI   C1A 4119   6.894   4.074  10.404  0.0688  0.0038 -0.1868
  258loPI   C2A 4120   6.917   4.120   9.937 -0.1392 -0.0422 -0.1737
  258loPI   C3A 4121   6.892   4.121   9.466 -0.2809  0.0494 -0.3068
  258loPI   C4A 4122   6.956   4.131   8.987  0.1988  0.1161 -0.0152
  258loPI   C5A 4123   7.012   4.333   8.551 -0.0318 -0.1761  0.2375
  258loPI   C6A 4124   7.330   4.406   8.333  0.0624  0.0883 -0.0134
  258loPI   C1B 4125   7.091   3.641  10.514  0.0087 -0.0946 -0.1551
  258loPI   C2B 4126   6.996   3.631  10.148 -0.1599 -0.0641  0.1342
  258loPI   C3B 4127   7.115   3.694   9.696 -0.3431 -0.0383  0.2026
  258loPI   C4B 4128   7.184   3.721   9.202 -0.2480 -0.0166 -0.4568
  259loPI    C1 4129   8.546   3.210  11.229 -0.3191  0.1060  0.0488
  259loPI    C2 4130   8.787   2.972  11.442 -0.1340  0.0379 -0.2314
  259loPI    C3 4131   8.712   3.344  11.567 -0.0431 -0.0074 -0.0384
  259loPI   PO4 4132   8.571   3.162  11.068 -0.0458  0.2628  0.0791
  259loPI   GL1 4133   8.279   2.858  10.820  0.0946 -0.1739  0.0308
  259loPI   GL2 4134   8.411   2.619  10.685  0.0765  0.2329  0.1117
  259loPI   C1A 4135   8.335   3.038  10.490  0.0730 -0.0102  0.3954
  259loPI   C2A 4136   8.328   3.062  10.023  0.1857 -0.1174 -0.0410
  259loPI   C3A 4137   8.361   3.094   9.582  0.2275 -0.0148 -0.3599
  259loPI   C4A 4138   8.501   3.151   9.175  0.0374 -0.1921 -0.0130
  259loPI   C5A 4139   8.554   3.022   8.698 -0.0062  0.2058  0.0097
  259loPI   C6A 4140   8.577   3.056   8.258 -0.1583 -0.1429  0.1738
  259loPI   C1B 4141   8.454   2.606  10.259  0.0047  0.3833 -0.0065
  259loPI   C2B 4142   8.529   2.671   9.781  0.0461 -0.3244  0.2643
  259loPI   C3B 4143   8.719   2.674   9.320 -0.2686 -0.1893  0.2109
  259loPI   C4B 4144   8.637   2.630   8.975 -0.3125 -0.2650  0.2512
  260loPI    C1 4145  11.630   4.369  11.498 -0.3225 -0.0242  0.0020
  260loPI    C2 4146  11.452   4.018  11.430  0.0348 -0.1994 -0.0539
  260loPI    C3 4147  11.490   4.154  11.804 -0.2756 -0.1244 -0.0467
  260loPI   PO4 4148  11.565   4.520  11.215  0.4558  0.1261 -0.2734
  260loPI   GL1 4149  11.796   4.497  10.716 -0.2896  0.3009 -0.1583
  260loPI   GL2 4150  12.077   4.699  10.606  0.1471  0.2582  0.0286
  260loPI   C1A 4151  11.829   4.465  10.226  0.1003 -0.1049 -0.0940
  260loPI   C2A 4152  11.860   4.555   9.787 -0.0760  0.1393  0.2312
  260loPI   C3A 4153  11.899   4.595   9.429  0.1231 -0.0460  0.3817
  260loPI   C4A 4154  11.886   4.520   8.950  0.0866  0.1654 -0.3465
  260loPI   C5A 4155  11.654   4.485   8.527  0.0001  0.2773  0.0951
  260loPI   C6A 4156  11.526   4.620   8.107 -0.0859 -0.0384 -0.0287
  260loPI   C1B 4157  12.301   4.661  10.225  0.0420 -0.2350 -0.1057
  260loPI   C2B 4158  12.411   4.615   9.778  0.0295 -0.1458 -0.1650
  260loPI   C3B 4159  12.417   4.717   9.331 -0.2576  0.2519  0.2336
  260loPI   C4B 4160  12.397   4.775   8.897  0.1199  0.1590  0.1063
  261loPI    C1 4161   8.174   1.681  11.298  0.1942  0.0640 -0.1477
  261loPI    C2 4162   8.340   1.317  11.306 -0.0812 -0.0602  0.1149
  261loPI    C3 4163   8.398   1.571  11.611 -0.0829  0.0285  0.0416
  261loPI   PO4 4164   8.094   1.709  11.090  0.0865  0.1480 -0.2349
  261loPI   GL1 4165   7.858   1.718  10.763  0.3950 -0.1576  0.2565
  261loPI   GL2 4166   7.686   1.986  10.861  0.0193  0.2867  0.1812
  261loPI   C1A 4167   8.052   1.727  10.445  0.0821 -0.1237  0.0258
  261loPI   C2A 4168   7.980   1.821  10.050  0.1172  0.0798  0.1382
  261loPI   C3A 4169   8.022   1.857   9.609  0.0824 -0.1503  0.1362
  261loPI   C4A 4170   8.003   1.793   9.184  0.0066 -0.1030  0.2427
  261loPI   C5A 4171   7.991   1.746   8.711  0.0663  0.1549  0.0212
  261loPI   C6A 4172   8.205   1.919   8.361 -0.3684 -0.0106 -0.0655
  261loPI   C1B 4173   7.776   2.156  10.495 -0.2515 -0.0184  0.0821
  261loPI   C2B 4174   7.797   2.272  10.059  0.0951  0.3664  0.1538
  261loPI   C3B 4175   7.644   2.228   9.696  0.0163  0.0851  0.0280
  261loPI   C4B 4176   7.703   2.231   9.301 -0.2941 -0.1270  0.0102
  262loPI    C1 4177  11.649   2.959  11.510  0.0518  0.0598 -0.0295
  262loPI    C2 4178  12.018   2.997  11.661 -0.0183  0.2501  0.0963
  262loPI    C3 4179  11.738   2.798  11.865  0.0104  0.1176  0.0072
  262loPI   PO4 4180  11.734   2.814  11.297 -0.0741  0.1356 -0.0440
  262loPI   GL1 4181  11.802   2.733  10.916 -0.0401 -0.1150  0.1708
  262loPI   GL2 4182  12.040   2.548  10.796 -0.0312  0.1640 -0.0819
  262loPI   C1A 4183  11.616   2.471  10.598 -0.2483 -0.0850  0.0285
  262loPI   C2A 4184  11.581   2.375  10.221  0.0475 -0.0477  0.0446
  262loPI   C3A 4185  11.634   2.395   9.805 -0.0491  0.1297  0.0678
  262loPI   C4A 4186  11.632   2.405   9.383  0.0217 -0.1072 -0.0018
  262loPI   C5A 4187  11.601   2.506   9.053  0.0570 -0.0697  0.0039
  262loPI   C6A 4188  11.438   2.538   8.731 -0.1413 -0.0093  0.1211
  262loPI   C1B 4189  12.077   2.642  10.358  0.1204  0.0355 -0.2705
  262loPI   C2B 4190  12.026   2.667   9.961  0.0675 -0.0065  0.2041
  262loPI   C3B 4191  12.089   2.734   9.573  0.1449 -0.0532  0.2143
  262loPI   C4B 4192  12.076   2.613   9.183  0.2571 -0.1920  0.2582
  263loPI    C1 4193   4.970   1.585  11.655  0.2866 -0.2230  0.0716
  263loPI    C2 4194   5.054   1.416  12.008  0.1910 -0.1983  0.1064
  263loPI    C3 4195   5.092   1.812  11.961  0.1806 -0.1985  0.0959
  263loPI   PO4 4196   4.900   1.356  11.518  0.0510  0.0443 -0.0353
  263loPI   GL1 4197   4.881   1.299  11.009  0.0971 -0.4377 -0.0587
  263loPI   GL2 4198   4.990   1.558  11.033 -0.1625  0.0329  0.1077
  263loPI   C1A 4199   4.960   1.155  10.530 -0.2003 -0.1084 -0.1183
  263loPI   C2A 4200   4.769   1.068  10.079 -0.0842 -0.1257 -0.0658
  263loPI   C3A 4201   4.878   1.115   9.679 -0.0403 -0.0752 -0.1177
  263loPI   C4A 4202   4.789   1.078   9.245 -0.1349  0.1123 -0.0872
  263loPI   C5A 4203   4.915   1.226   8.885 -0.1708  0.0395 -0.2776
  263loPI   C6A 4204   5.120   1.608   8.957 -0.0327 -0.2073  0.2381
  263loPI   C1B 4205   4.947   1.676  10.636 -0.0812  0.0172  0.2200
  263loPI   C2B 4206   5.016   1.556  10.254 -0.0454 -0.1927  0.0237
  263loPI   C3B 4207   5.058   1.526   9.853 -0.0965  0.0631  0.2747
  263loPI   C4B 4208   5.001   1.515   9.389  0.1134  0.2121  0.0046
  264loPI    C1 4209   2.435  14.334  12.014  0.1845  0.0289 -0.0760
  264loPI    C2 4210   2.077  14.459  12.140  0.1010  0.0187 -0.2991
  264loPI    C3 4211   2.397  14.499  12.376  0.0141  0.3403 -0.2318
  264loPI   PO4 4212   2.530  14.381  11.692  0.2368  0.1055  0.0261
  264loPI   GL1 4213   2.479  14.407  11.227  0.0086  0.0808  0.2600
  264loPI   GL2 4214   2.718  14.332  10.984 -0.2873  0.2487  0.0297
  264loPI   C1A 4215   2.262  14.547  10.886 -0.0900  0.1680  0.0047
  264loPI   C2A 4216   2.178  14.623  10.458 -0.1397 -0.0523  0.0543
  264loPI   C3A 4217   2.114  14.769   9.979 -0.1451 -0.0672  0.1982
  264loPI   C4A 4218   2.141  14.778   9.557 -0.2551 -0.0891  0.1690
  264loPI   C5A 4219   2.141  14.886   9.057 -0.0558 -0.0444 -0.1227
  264loPI   C6A 4220   2.033  14.961   8.633 -0.0845 -0.0701  0.1268
  264loPI   C1B 4221   2.553  14.313  10.537  0.2673  0.1791  0.0509
  264loPI   C2B 4222   2.518  14.401  10.061 -0.0827  0.3293  0.3073
  264loPI   C3B 4223   2.500  14.488   9.674  0.0460  0.0735  0.2471
  264loPI   C4B 4224   2.490  14.325   9.226  0.2078 -0.2572  0.5423
  265loPI    C1 4225   4.029  10.627  11.714  0.2216  0.1812  0.0065
  265loPI    C2 4226   4.037  10.978  11.906 -0.0837  0.2262 -0.0585
  265loPI    C3 4227   3.702  10.760  11.902  0.0169  0.0720 -0.2671
  265loPI   PO4 4228   4.129  10.687  11.451 -0.0753 -0.2125 -0.0360
  265loPI   GL1 4229   4.015  10.895  11.095 -0.2600  0.1641  0.0454
  265loPI   GL2 4230   4.012  11.143  11.255 -0.0075  0.0106 -0.0717
  265loPI   C1A 4231   3.815  11.070  10.767  0.0033  0.2028  0.1059
  265loPI   C2A 4232   3.889  11.025  10.322  0.0241  0.2753  0.1810
  265loPI   C3A 4233   3.851  10.988   9.880  0.1289  0.2934  0.0058
  265loPI   C4A 4234   3.826  11.045   9.477 -0.1039 -0.4669  0.3075
  265loPI   C5A 4235   4.028  11.269   9.236  0.1665  0.1321  0.1253
  265loPI   C6A 4236   4.382  11.552   9.050  0.1531  0.1291  0.2469
  265loPI   C1B 4237   3.942  11.494  10.908 -0.1337  0.1266 -0.0952
  265loPI   C2B 4238   3.956  11.549  10.506  0.1868 -0.2466 -0.1034
  265loPI   C3B 4239   3.967  11.465  10.109  0.0808 -0.4901 -0.2766
  265loPI   C4B 4240   4.064  11.491   9.719  0.0641 -0.1535 -0.1013
  266loPI    C1 4241  10.932   1.906  11.767  0.1436 -0.1821  0.1030
  266loPI    C2 4242  10.668   2.206  11.789  0.3280 -0.0004 -0.1036
  266loPI    C3 4243  10.635   1.892  12.035 -0.1662 -0.0530 -0.2248
  266loPI   PO4 4244  10.917   1.866  11.464 -0.1491 -0.0792 -0.0954
  266loPI   GL1 4245  11.056   2.070  11.055 -0.0456 -0.1761 -0.2059
  266loPI   GL2 4246  10.989   1.818  10.924  0.3878 -0.1290 -0.4586
  266loPI   C1A 4247  11.177   2.239  10.643  0.0230 -0.3109 -0.0038
  266loPI   C2A 4248  11.141   2.224  10.290  0.1037 -0.4330 -0.1364
  266loPI   C3A 4249  11.132   2.200   9.907 -0.0038  0.1928 -0.3619
  266loPI   C4A 4250  11.158   2.199   9.543  0.0861  0.0668  0.0782
  266loPI   C5A 4251  11.126   2.364   9.131 -0.1711  0.2938  0.1208
  266loPI   C6A 4252  10.967   2.643   8.837  0.0761  0.0086 -0.1557
  266loPI   C1B 4253  11.051   1.715  10.496 -0.1166  0.2153 -0.2107
  266loPI   C2B 4254  11.052   1.753  10.084 -0.3865  0.0869  0.2156
  266loPI   C3B 4255  11.044   1.665   9.733  0.0820  0.0695 -0.2344
  266loPI   C4B 4256  11.025   1.792   9.321 -0.1073  0.0286  0.1872
  267loPI    C1 4257   3.514   0.665  11.423 -0.1951  0.0327 -0.0469
  267loPI    C2 4258   3.339   0.774  11.766  0.0724 -0.0872  0.1308
  267loPI    C3 4259   3.694   0.928  11.665  0.1301 -0.2715  0.0494
  267loPI   PO4 4260   3.303   0.580  11.273 -0.2405 -0.2204  0.0076
  267loPI   GL1 4261   3.223   0.859  11.015 -0.0179 -0.2513  0.0035
  267loPI   GL2 4262   3.099   1.096  10.866 -0.1264 -0.2120  0.3530
  267loPI   C1A 4263   3.218   0.619  10.622 -0.1740  0.0103  0.1651
  267loPI   C2A 4264   3.282   0.664  10.171 -0.1443  0.1267  0.1070
  267loPI   C3A 4265   3.290   0.631   9.727 -0.0503 -0.0100  0.1521
  267loPI   C4A 4266   3.150   0.657   9.347 -0.2524 -0.1451  0.0180
  267loPI   C5A 4267   2.858   0.655   8.995  0.1378 -0.1994 -0.0210
  267loPI   C6A 4268   2.658   0.304   8.974 -0.0072 -0.1717  0.0756
  267loPI   C1B 4269   3.158   1.066  10.409  0.0289  0.3685  0.1714
  267loPI   C2B 4270   3.206   1.225   9.978  0.0583  0.2548  0.0412
  267loPI   C3B 4271   3.164   1.090   9.620 -0.1017 -0.0984  0.2810
  267loPI   C4B 4272   3.176   1.164   9.183 -0.0301 -0.3883 -0.0205
  268loPI    C1 4273  15.792  11.130  11.660 -0.1739  0.0392 -0.0642
  268loPI    C2 4274  15.867  11.173  12.050  0.0381 -0.0662 -0.0921
  268loPI    C3 4275  15.659  10.857  11.920 -0.1195  0.0213 -0.0552
  268loPI   PO4 4276  15.638  11.300  11.550 -0.0259 -0.1226 -0.0843
  268loPI   GL1 4277  15.387  11.202  11.255  0.0333 -0.0379 -0.0217
  268loPI   GL2 4278  15.170  11.381  11.265 -0.0562  0.0153  0.1661
  268loPI   C1A 4279  15.674  11.350  10.906 -0.1734 -0.1712  0.0646
  268loPI   C2A 4280  15.645  11.421  10.517  0.1926  0.1308 -0.1037
  268loPI   C3A 4281  15.717  11.388  10.072  0.1144 -0.1215  0.3957
  268loPI   C4A 4282  15.836  11.440   9.560  0.1552 -0.0049 -0.1059
  268loPI   C5A 4283  15.847  11.228   9.156 -0.3492 -0.0380 -0.1042
  268loPI   C6A 4284  16.068  10.850   9.039  0.1827  0.1287 -0.0628
  268loPI   C1B 4285  15.221  11.170  10.765 -0.0554 -0.1523  0.1798
  268loPI   C2B 4286  15.213  11.106  10.260  0.1853  0.0131 -0.0223
  268loPI   C3B 4287  15.244  11.237   9.837  0.1176  0.3171  0.1203
  268loPI   C4B 4288  15.360  11.268   9.404  0.2228 -0.1921  0.3434
  269loPI    C1 4289   0.365  16.083  11.628 -0.2623  0.2799 -0.1895
  269loPI    C2 4290   0.435  15.929  11.990 -0.0974 -0.1260 -0.3886
  269loPI    C3 4291   0.451  16.324  11.935 -0.0449 -0.0658  0.0279
  269loPI   PO4 4292   0.380  15.820  11.477 -0.0827  0.0084 -0.0941
  269loPI   GL1 4293   0.508  15.587  11.087  0.2207  0.1304  0.2103
  269loPI   GL2 4294   0.312  15.385  10.936 -0.4108 -0.0569 -0.2519
  269loPI   C1A 4295   0.790  15.619  10.780  0.1670 -0.0121  0.1784
  269loPI   C2A 4296   0.980  15.687  10.478 -0.1183 -0.0380  0.1974
  269loPI   C3A 4297   0.885  15.605   9.999 -0.0090  0.1094 -0.1553
  269loPI   C4A 4298   0.990  15.704   9.619 -0.0141 -0.0918  0.0231
  269loPI   C5A 4299   0.977  15.667   9.072 -0.0880 -0.1374 -0.0263
  269loPI   C6A 4300   1.204  15.478   8.729  0.0267 -0.1742 -0.1236
  269loPI   C1B 4301   0.396  15.458  10.463 -0.0273  0.1993 -0.1824
  269loPI   C2B 4302   0.424  15.464   9.996  0.0655 -0.4247  0.2290
  269loPI   C3B 4303   0.397  15.520   9.630  0.0988  0.3937  0.1800
  269loPI   C4B 4304   0.416  15.603   9.265 -0.0842 -0.1738 -0.1631
  270loPI    C1 4305   8.410   0.376  11.388  0.0838 -0.1105  0.0135
  270loPI    C2 4306   8.633   0.196  11.667  0.0588 -0.1825 -0.0130
  270loPI    C3 4307   8.492   0.564  11.732  0.1616 -0.1478  0.0157
  270loPI   PO4 4308   8.571   0.321  11.126  0.2397  0.0226  0.0576
  270loPI   GL1 4309   8.796   0.004  10.824 -0.3937  0.4111 -0.2864
  270loPI   GL2 4310   8.817  -0.226  10.579  0.0961  0.1087 -0.2206
  270loPI   C1A 4311   8.638   0.220  10.482  0.0157  0.1021  0.0076
  270loPI   C2A 4312   8.708   0.185  10.079  0.0989 -0.1155 -0.3426
  270loPI   C3A 4313   8.701   0.327   9.752 -0.1219 -0.1532  0.1411
  270loPI   C4A 4314   8.690   0.425   9.373 -0.0248  0.0158  0.0680
  270loPI   C5A 4315   8.630   0.531   8.935  0.2089 -0.0102  0.0964
  270loPI   C6A 4316   8.818   0.735   8.672 -0.0042  0.0585  0.1489
  270loPI   C1B 4317   8.855  -0.293  10.178  0.2271 -0.1633 -0.2863
  270loPI   C2B 4318   8.884  -0.214   9.770  0.0525  0.2808  0.2723
  270loPI   C3B 4319   8.853  -0.133   9.340  0.1054 -0.2686  0.0534
  270loPI   C4B 4320   8.893  -0.075   8.872 -0.1956  0.1756  0.0522
  271loPI    C1 4321   9.292   3.005  11.323  0.5237  0.0804  0.1527
  271loPI    C2 4322   9.274   3.377  11.467  0.1014  0.1296 -0.0118
  271loPI    C3 4323   9.204   3.066  11.708  0.1289  0.1723  0.0518
  271loPI   PO4 4324   9.160   3.070  11.053  0.1653 -0.0331 -0.0426
  271loPI   GL1 4325   9.433   3.204  10.609  0.2693 -0.1721  0.1562
  271loPI   GL2 4326   9.697   3.281  10.600 -0.1132 -0.0309 -0.0280
  271loPI   C1A 4327   9.264   3.404  10.279  0.0820  0.3527  0.0757
  271loPI   C2A 4328   9.300   3.397   9.847  0.3790  0.2463 -0.0742
  271loPI   C3A 4329   9.341   3.479   9.442  0.0370 -0.1297 -0.2922
  271loPI   C4A 4330   9.363   3.418   9.072  0.1126  0.1055  0.3779
  271loPI   C5A 4331   9.593   3.210   8.862  0.1042  0.2989  0.3532
  271loPI   C6A 4332   9.948   3.154   8.648  0.2110 -0.3391  0.0287
  271loPI   C1B 4333   9.780   3.373  10.251  0.0945  0.2248  0.0747
  271loPI   C2B 4334   9.807   3.247   9.822  0.1139 -0.3452  0.0943
  271loPI   C3B 4335   9.833   3.353   9.315 -0.3388  0.1439 -0.0354
  271loPI   C4B 4336   9.947   3.524   8.909  0.2030  0.2874  0.0311
  272loPI    C1 4337   9.702  10.021  11.588  0.2373 -0.1938 -0.0578
  272loPI    C2 4338   9.366   9.830  11.692  0.0718 -0.0107 -0.2452
  272loPI    C3 4339   9.704   9.768  11.898 -0.0795 -0.1839 -0.0443
  272loPI   PO4 4340   9.689   9.927  11.253  0.1581 -0.3964 -0.0690
  272loPI   GL1 4341   9.928   9.821  10.960 -0.2246 -0.0911 -0.0107
  272loPI   GL2 4342   9.906   9.546  10.929 -0.1066  0.0906  0.0039
  272loPI   C1A 4343   9.979   9.920  10.529 -0.0142 -0.1214  0.0794
  272loPI   C2A 4344   9.900  10.096  10.097  0.0763  0.2943  0.0640
  272loPI   C3A 4345  10.011  10.143   9.755 -0.1917  0.0889 -0.1198
  272loPI   C4A 4346  10.079  10.289   9.423 -0.0199  0.2025 -0.1240
  272loPI   C5A 4347  10.168  10.424   8.977 -0.4135 -0.0033  0.0220
  272loPI   C6A 4348  10.393  10.946   8.823 -0.1652  0.1333 -0.0719
  272loPI   C1B 4349   9.808   9.430  10.533  0.3849 -0.0724  0.1099
  272loPI   C2B 4350   9.833   9.473  10.151  0.3564 -0.1730  0.1215
  272loPI   C3B 4351   9.802   9.565   9.723  0.0500 -0.0337  0.2309
  272loPI   C4B 4352   9.974   9.685   9.362  0.2195 -0.1287 -0.1561
  273loPI    C1 4353   9.157   0.732  11.210 -0.0571 -0.0275 -0.2688
  273loPI    C2 4354   8.966   0.430  11.390 -0.0895  0.0124 -0.2360
  273loPI    C3 4355   9.036   0.769  11.589 -0.2250  0.0986 -0.3335
  273loPI   PO4 4356   9.030   0.806  11.010  0.1145  0.1326  0.2076
  273loPI   GL1 4357   8.752   0.668  10.808 -0.0814 -0.0556  0.3186
  273loPI   GL2 4358   8.441   0.583  10.712  0.0547  0.2017  0.0626
  273loPI   C1A 4359   8.882   0.771  10.326 -0.0399 -0.0425 -0.3509
  273loPI   C2A 4360   8.896   0.792   9.933  0.1552  0.2872  0.3842
  273loPI   C3A 4361   9.024   0.753   9.550 -0.0781 -0.0449  0.0816
  273loPI   C4A 4362   9.119   0.931   9.216 -0.2776  0.0141  0.3342
  273loPI   C5A 4363   9.251   0.892   8.858  0.2255 -0.1500  0.0245
  273loPI   C6A 4364   9.643   0.667   8.617 -0.1590  0.2850  0.0327
  273loPI   C1B 4365   8.388   0.698  10.363 -0.1064 -0.1724 -0.2331
  273loPI   C2B 4366   8.383   0.771   9.971  0.2268 -0.2620 -0.1403
  273loPI   C3B 4367   8.517   0.822   9.572 -0.0908  0.0482  0.0777
  273loPI   C4B 4368   8.327   0.967   9.217 -0.3698 -0.2366 -0.0554
  274loPI    C1 4369   1.381  13.635  11.655  0.1081  0.1496  0.1540
  274loPI    C2 4370   1.137  13.652  11.971 -0.1729  0.0022 -0.0500
  274loPI    C3 4371   1.382  13.958  11.891  0.0230 -0.0276  0.4009
  274loPI   PO4 4372   1.251  13.563  11.432  0.1176  0.0288 -0.0724
  274loPI   GL1 4373   0.930  13.357  11.130 -0.1817  0.1902  0.2550
  274loPI   GL2 4374   1.076  12.994  11.344  0.1732 -0.2261 -0.3504
  274loPI   C1A 4375   0.960  13.340  10.701  0.0625  0.1472 -0.1665
  274loPI   C2A 4376   0.986  13.258  10.331 -0.0512  0.1022  0.1631
  274loPI   C3A 4377   1.028  13.416   9.855 -0.0111  0.1839 -0.1540
  274loPI   C4A 4378   1.106  13.243   9.380  0.0679 -0.1976  0.0297
  274loPI   C5A 4379   1.277  13.201   9.015 -0.1138 -0.2204 -0.3166
  274loPI   C6A 4380   1.594  13.010   8.886 -0.0305 -0.2089 -0.1158
  274loPI   C1B 4381   0.931  12.887  10.899 -0.2919 -0.1307 -0.0239
  274loPI   C2B 4382   0.927  12.785  10.444  0.0496  0.0224  0.1278
  274loPI   C3B 4383   0.935  12.789  10.014  0.1087  0.0982 -0.1731
  274loPI   C4B 4384   0.971  12.703   9.531 -0.1083  0.0240  0.1384
  275loPI    C1 4385  13.273   9.439  11.718 -0.0650 -0.2172 -0.1812
  275loPI    C2 4386  13.105   9.785  11.829  0.2009 -0.0477 -0.2986
  275loPI    C3 4387  12.919   9.440  11.904 -0.0507  0.1176 -0.1486
  275loPI   PO4 4388  13.343   9.421  11.536  0.1055  0.0070 -0.3032
  275loPI   GL1 4389  13.469   9.428  11.123  0.0111 -0.1816  0.1276
  275loPI   GL2 4390  13.328   9.097  11.087 -0.0349 -0.1650  0.0033
  275loPI   C1A 4391  13.549   9.551  10.658  0.4473 -0.0192 -0.1373
  275loPI   C2A 4392  13.637   9.555  10.333  0.3109 -0.0277  0.0691
  275loPI   C3A 4393  13.617   9.575   9.882  0.2834  0.0969  0.0424
  275loPI   C4A 4394  13.621   9.674   9.504 -0.0048 -0.3864  0.2002
  275loPI   C5A 4395  13.700   9.732   9.059 -0.1805  0.1338 -0.1238
  275loPI   C6A 4396  13.906   9.350   8.797  0.1084 -0.0720 -0.0734
  275loPI   C1B 4397  13.482   9.066  10.694 -0.0652  0.0445 -0.2293
  275loPI   C2B 4398  13.534   9.005  10.240 -0.1388 -0.2772 -0.4426
  275loPI   C3B 4399  13.560   9.087   9.732  0.0510 -0.1172 -0.0969
  275loPI   C4B 4400  13.612   9.083   9.297 -0.0981  0.0298  0.0625
  276loPI    C1 4401   7.457  10.038  11.705  0.2028 -0.1158  0.1984
  276loPI    C2 4402   7.129  10.140  11.908  0.1862  0.1978  0.0209
  276loPI    C3 4403   7.450  10.003  12.103  0.0495  0.1588  0.2219
  276loPI   PO4 4404   7.358  10.079  11.484 -0.2838 -0.0939  0.3842
  276loPI   GL1 4405   7.232  10.119  11.128 -0.1954  0.2366  0.1342
  276loPI   GL2 4406   7.489  10.050  11.003 -0.0574 -0.0231 -0.1985
  276loPI   C1A 4407   7.141  10.357  10.735 -0.3397 -0.1965  0.0647
  276loPI   C2A 4408   7.085  10.416  10.199 -0.3813 -0.0467  0.0927
  276loPI   C3A 4409   7.034  10.482   9.781 -0.0732 -0.2931  0.0291
  276loPI   C4A 4410   6.805  10.317   9.378 -0.0326 -0.0433 -0.4005
  276loPI   C5A 4411   6.531  10.466   9.027  0.0994 -0.1176 -0.0766
  276loPI   C6A 4412   6.410  10.381   8.553  0.0430 -0.1264 -0.0439
  276loPI   C1B 4413   7.528  10.095  10.569  0.0315  0.1931 -0.3165
  276loPI   C2B 4414   7.478  10.107  10.073  0.0351 -0.0523  0.1138
  276loPI   C3B 4415   7.570  10.368   9.621  0.1182 -0.0277  0.1273
  276loPI   C4B 4416   7.380  10.421   9.196 -0.0977  0.1212 -0.1705
  277loPI    C1 4417   1.368   3.398  11.905 -0.0291  0.0113 -0.0454
  277loPI    C2 4418   1.019   3.592  11.883 -0.0866 -0.0967 -0.0920
  277loPI    C3 4419   1.041   3.240  12.073  0.0353 -0.0055  0.0654
  277loPI   PO4 4420   1.435   3.543  11.635 -0.0415 -0.2020  0.0619
  277loPI   GL1 4421   1.410   3.539  11.209 -0.0439  0.3449 -0.1111
  277loPI   GL2 4422   1.446   3.176  11.161  0.0785 -0.1284 -0.1471
  277loPI   C1A 4423   1.424   3.718  10.833 -0.1837  0.0337  0.0497
  277loPI   C2A 4424   1.446   3.829  10.423  0.0358 -0.0467 -0.0271
  277loPI   C3A 4425   1.301   3.757  10.004  0.0604 -0.2220 -0.0544
  277loPI   C4A 4426   1.176   3.891   9.568 -0.2180 -0.1088  0.0131
  277loPI   C5A 4427   1.230   3.819   9.134 -0.3135  0.1023 -0.1581
  277loPI   C6A 4428   1.333   3.634   8.726  0.1209 -0.2248  0.2269
  277loPI   C1B 4429   1.214   3.247  10.830 -0.0073  0.0668 -0.0067
  277loPI   C2B 4430   1.247   3.384  10.359 -0.0827  0.1359 -0.1554
  277loPI   C3B 4431   1.106   3.299   9.999  0.3386  0.0583 -0.0734
  277loPI   C4B 4432   1.126   3.349   9.587  0.0685  0.0010 -0.0727
  278loPI    C1 4433  12.000   1.690  11.934  0.0329  0.0505  0.0157
  278loPI    C2 4434  12.327   1.918  11.908  0.1262 -0.0813  0.0244
  278loPI    C3 4435  12.160   1.847  12.265  0.0327  0.0627  0.0101
  278loPI   PO4 4436  12.051   1.446  11.667  0.3903  0.3264  0.3019
  278loPI   GL1 4437  12.096   1.435  11.248 -0.0604  0.3949 -0.2190
  278loPI   GL2 4438  11.858   1.548  11.192  0.4120  0.1631  0.5116
  278loPI   C1A 4439  12.237   1.246  10.766  0.0899 -0.0633  0.0080
  278loPI   C2A 4440  12.338   1.247  10.371 -0.1673 -0.1152  0.2094
  278loPI   C3A 4441  12.361   1.331  10.019  0.0547  0.0186 -0.0301
  278loPI   C4A 4442  12.398   1.385   9.593  0.0098  0.1674  0.0660
  278loPI   C5A 4443  12.401   1.245   9.178  0.0945  0.0625 -0.0216
  278loPI   C6A 4444  12.593   1.372   8.849  0.1298  0.0093  0.2172
  278loPI   C1B 4445  11.866   1.546  10.719 -0.2725  0.2962  0.1753
  278loPI   C2B 4446  11.957   1.607  10.254 -0.0815  0.3317  0.0519
  278loPI   C3B 4447  12.024   1.676   9.841  0.1064  0.1019 -0.2096
  278loPI   C4B 4448  11.927   1.659   9.464 -0.1440  0.3888  0.1422
  279loPI    C1 4449  11.402  15.632  11.825  0.1844 -0.2068  0.0355
  279loPI    C2 4450  11.532  15.953  12.025 -0.0858  0.0496 -0.1911
  279loPI    C3 4451  11.553  15.591  12.193  0.0584  0.2072  0.1386
  279loPI   PO4 4452  11.534  15.707  11.555 -0.0815  0.0889  0.2471
  279loPI   GL1 4453  11.391  15.706  11.133  0.2139  0.0528  0.1247
  279loPI   GL2 4454  11.143  15.852  10.999 -0.1777 -0.0726 -0.2464
  279loPI   C1A 4455  11.069  15.300  10.970  0.1581  0.0645  0.1557
  279loPI   C2A 4456  10.910  15.240  10.556 -0.2038  0.1185 -0.0270
  279loPI   C3A 4457  10.884  15.300  10.080  0.4341 -0.0608 -0.0994
  279loPI   C4A 4458  10.850  15.321   9.640  0.2700  0.3017 -0.1303
  279loPI   C5A 4459  10.922  15.201   9.197  0.0284  0.1030 -0.1494
  279loPI   C6A 4460  10.999  15.044   8.752  0.0338 -0.1772  0.0095
  279loPI   C1B 4461  11.237  15.670  10.603  0.1302  0.0710  0.0111
  279loPI   C2B 4462  11.265  15.697  10.188 -0.1656 -0.0663  0.0710
  279loPI   C3B 4463  11.387  15.828   9.749  0.0479 -0.0644  0.0920
  279loPI   C4B 4464  11.514  15.892   9.299  0.1702  0.0830  0.0495
  280loPI    C1 4465   6.208   5.119  11.489  0.3793 -0.0685 -0.0655
  280loPI    C2 4466   6.380   4.895  11.771  0.2035 -0.0051  0.0940
  280loPI    C3 4467   6.459   5.287  11.751  0.1609  0.0039  0.1007
  280loPI   PO4 4468   6.244   4.984  11.251 -0.2295  0.0477 -0.2491
  280loPI   GL1 4469   6.261   4.727  10.776 -0.1003 -0.3091 -0.0814
  280loPI   GL2 4470   5.969   4.584  10.730 -0.0069  0.1669 -0.4748
  280loPI   C1A 4471   6.137   4.959  10.466 -0.1048 -0.1111 -0.1335
  280loPI   C2A 4472   5.886   5.115  10.188 -0.1845 -0.2867 -0.0697
  280loPI   C3A 4473   5.988   5.122   9.754  0.2038  0.0249 -0.0669
  280loPI   C4A 4474   6.090   5.150   9.260  0.0272 -0.0634 -0.0332
  280loPI   C5A 4475   6.076   5.135   8.754  0.0348  0.0742  0.2443
  280loPI   C6A 4476   6.116   5.334   8.323  0.0282 -0.0284  0.0961
  280loPI   C1B 4477   6.179   4.518  10.305  0.1632  0.1450  0.1884
  280loPI   C2B 4478   6.240   4.704   9.917  0.0441  0.3532 -0.2639
  280loPI   C3B 4479   6.192   4.676   9.528 -0.1314  0.0667 -0.3030
  280loPI   C4B 4480   6.277   4.660   9.172  0.2623 -0.0449  0.0184
  281loPI    C1 4481  10.749   9.847  11.484 -0.0858 -0.0062  0.0004
  281loPI    C2 4482  10.713   9.492  11.665 -0.1521  0.0848  0.1686
  281loPI    C3 4483  10.754   9.824  11.884  0.1319  0.1583  0.0090
  281loPI   PO4 4484  10.837   9.739  11.245  0.3434  0.1906  0.4527
  281loPI   GL1 4485  11.057   9.891  10.938 -0.2544 -0.2290 -0.2897
  281loPI   GL2 4486  11.239  10.117  10.841  0.1354  0.2237 -0.1731
  281loPI   C1A 4487  10.890   9.912  10.569 -0.0928  0.1793 -0.1447
  281loPI   C2A 4488  10.912   9.949  10.181 -0.2223 -0.1085  0.0263
  281loPI   C3A 4489  10.895   9.989   9.718 -0.0212  0.0906 -0.1424
  281loPI   C4A 4490  10.874   9.985   9.263  0.0174 -0.2019 -0.1110
  281loPI   C5A 4491  10.973   9.884   8.821 -0.2545 -0.2234  0.0535
  281loPI   C6A 4492  11.160   9.996   8.482 -0.1448 -0.0994  0.2241
  281loPI   C1B 4493  11.312  10.112  10.427 -0.0972 -0.0364  0.0911
  281loPI   C2B 4494  11.377  10.207   9.998 -0.3418 -0.1383  0.2189
  281loPI   C3B 4495  11.499  10.162   9.588  0.0758 -0.0418  0.0489
  281loPI   C4B 4496  11.399  10.060   9.149  0.0451  0.0395  0.0046
  282loPI    C1 4497  15.204   0.957  11.752  0.0369 -0.0895  0.2294
  282loPI    C2 4498  14.932   1.249  11.727  0.1116 -0.0520 -0.2253
  282loPI    C3 4499  15.172   1.226  12.046 -0.1339  0.1686 -0.0202
  282loPI   PO4 4500  15.281   0.965  11.525 -0.0253 -0.0805  0.2882
  282loPI   GL1 4501  15.174   0.859  11.188 -0.3657  0.3036  0.0048
  282loPI   GL2 4502  15.455   0.720  11.069 -0.2121 -0.0338 -0.1809
  282loPI   C1A 4503  15.059   0.990  10.771  0.2076 -0.0375 -0.0380
  282loPI   C2A 4504  14.981   0.932  10.402  0.1105  0.0159  0.2620
  282loPI   C3A 4505  14.933   0.917   9.926 -0.0942  0.2578 -0.0074
  282loPI   C4A 4506  14.876   0.971   9.439  0.4198  0.1132 -0.3471
  282loPI   C5A 4507  14.684   1.242   9.249 -0.0967 -0.1953 -0.3577
  282loPI   C6A 4508  14.565   1.081   8.941  0.0456  0.0243 -0.0115
  282loPI   C1B 4509  15.460   0.766  10.668  0.0365 -0.0181 -0.1100
  282loPI   C2B 4510  15.398   0.629  10.304  0.5255 -0.1663 -0.2748
  282loPI   C3B 4511  15.293   0.610   9.925 -0.3312  0.0765 -0.0360
  282loPI   C4B 4512  15.341   0.693   9.609 -0.0812 -0.3967  0.1744
  283loPI    C1 4513  12.897  10.211  11.757  0.1463 -0.3298 -0.0315
  283loPI    C2 4514  12.617   9.934  11.829  0.0775 -0.1747  0.3199
  283loPI    C3 4515  12.509  10.309  11.740  0.1725 -0.2051  0.0694
  283loPI   PO4 4516  13.009  10.208  11.503 -0.1506  0.2043  0.2407
  283loPI   GL1 4517  13.072  10.372  11.127 -0.1097  0.1897 -0.3241
  283loPI   GL2 4518  13.260  10.681  11.050  0.3020  0.0964 -0.1954
  283loPI   C1A 4519  13.244  10.305  10.698  0.0051 -0.1021 -0.2487
  283loPI   C2A 4520  13.167  10.430  10.311  0.1362 -0.3808 -0.1610
  283loPI   C3A 4521  12.971  10.263   9.941  0.1192  0.0436  0.1888
  283loPI   C4A 4522  12.775  10.252   9.584  0.0659 -0.0929  0.1615
  283loPI   C5A 4523  12.874  10.277   9.171 -0.0391 -0.3825  0.0896
  283loPI   C6A 4524  13.081  10.186   8.790  0.1475  0.0513  0.2851
  283loPI   C1B 4525  13.349  10.871  10.659  0.1358 -0.1339 -0.1855
  283loPI   C2B 4526  13.374  10.902  10.267  0.0995  0.2318 -0.2379
  283loPI   C3B 4527  13.342  10.922   9.860  0.4391  0.0975 -0.3387
  283loPI   C4B 4528  13.423  10.940   9.399  0.2611  0.2853 -0.3223
  284loPI    C1 4529  11.443  16.214  11.250 -0.0637  0.1900  0.0272
  284loPI    C2 4530  11.557  16.279  11.628  0.0205 -0.0704  0.0487
  284loPI    C3 4531  11.747  16.462  11.327  0.1527 -0.0977  0.1150
  284loPI   PO4 4532  11.190  16.298  11.294  0.0620 -0.2735  0.0088
  284loPI   GL1 4533  11.064  16.697  11.112  0.0160 -0.0721  0.2149
  284loPI   GL2 4534  10.860  16.339  10.955  0.2590 -0.0913 -0.0539
  284loPI   C1A 4535  10.786  16.747  10.722 -0.1742 -0.0496  0.0032
  284loPI   C2A 4536  10.814  16.596  10.352  0.0918 -0.0426 -0.2206
  284loPI   C3A 4537  10.835  16.693   9.887 -0.0626  0.1950 -0.1504
  284loPI   C4A 4538  10.807  16.540   9.464  0.0196  0.1143  0.2567
  284loPI   C5A 4539  10.793  16.248   9.063 -0.0554  0.3522  0.0529
  284loPI   C6A 4540  10.583  15.902   8.815 -0.3374 -0.0771  0.2188
  284loPI   C1B 4541  11.000  16.133  10.617 -0.0205 -0.0385 -0.1318
  284loPI   C2B 4542  11.149  16.160  10.238  0.1906 -0.1506 -0.1711
  284loPI   C3B 4543  11.072  16.269   9.850  0.0194  0.0539 -0.0702
  284loPI   C4B 4544  11.171  16.212   9.488 -0.1577  0.1178  0.2172
  285loPI    C1 4545   0.591  12.884  11.927  0.0702 -0.2037  0.1711
  285loPI    C2 4546   0.765  13.203  12.094 -0.1190 -0.0828  0.1404
  285loPI    C3 4547   0.894  12.835  12.184  0.1126  0.0017  0.1619
  285loPI   PO4 4548   0.452  13.013  11.764 -0.2618  0.0542 -0.1153
  285loPI   GL1 4549   0.437  13.046  11.333 -0.0209  0.2914 -0.0738
  285loPI   GL2 4550   0.165  12.842  11.212  0.0489  0.0169 -0.1690
  285loPI   C1A 4551   0.511  13.152  10.892 -0.1064 -0.0975  0.0068
  285loPI   C2A 4552   0.487  13.170  10.471  0.1432  0.1796  0.3852
  285loPI   C3A 4553   0.576  13.090  10.061  0.0776  0.2892  0.1625
  285loPI   C4A 4554   0.622  13.130   9.663 -0.0731 -0.2520  0.0619
  285loPI   C5A 4555   0.564  13.073   9.264  0.0367  0.0613  0.0728
  285loPI   C6A 4556   0.742  12.800   8.962 -0.0895 -0.0476 -0.0439
  285loPI   C1B 4557   0.052  12.912  10.802 -0.2007 -0.1524 -0.0961
  285loPI   C2B 4558   0.038  12.949  10.400  0.1982 -0.0847 -0.3681
  285loPI   C3B 4559   0.030  12.957   9.966 -0.0201  0.1970 -0.2297
  285loPI   C4B 4560   0.099  12.891   9.483 -0.0879 -0.1821 -0.5072
  286loPI    C1 4561   4.402   0.783  11.638  0.0793 -0.0036 -0.1284
  286loPI    C2 4562   4.782   0.682  11.712  0.0340  0.0088  0.1290
  286loPI    C3 4563   4.486   0.423  11.790 -0.0160  0.0210 -0.0161
  286loPI   PO4 4564   4.539   1.022  11.412  0.0607  0.0595  0.2123
  286loPI   GL1 4565   4.404   0.897  11.043 -0.0732  0.0661 -0.0882
  286loPI   GL2 4566   4.680   0.852  10.875 -0.0566  0.3974  0.3499
  286loPI   C1A 4567   4.065   0.935  10.642 -0.1530  0.1387  0.1182
  286loPI   C2A 4568   4.137   0.947  10.242  0.0202 -0.0090  0.0116
  286loPI   C3A 4569   4.240   1.074   9.936 -0.1497  0.5632  0.0682
  286loPI   C4A 4570   4.100   1.098   9.534 -0.0149  0.0067 -0.1670
  286loPI   C5A 4571   4.219   1.214   9.127 -0.2380  0.3021 -0.2169
  286loPI   C6A 4572   4.411   1.355   8.749 -0.3878 -0.0924  0.1922
  286loPI   C1B 4573   4.474   0.665  10.490 -0.1118  0.4750 -0.1661
  286loPI   C2B 4574   4.396   0.557  10.097 -0.0407 -0.0236 -0.0105
  286loPI   C3B 4575   4.569   0.688   9.739  0.0725  0.0235  0.0111
  286loPI   C4B 4576   4.395   0.757   9.380 -0.1064  0.0740 -0.3585
  287loPI    C1 4577  17.010  14.168  11.791 -0.0707 -0.1995 -0.1068
  287loPI    C2 4578  17.260  14.426  11.969 -0.1845 -0.1588 -0.0048
  287loPI    C3 4579  17.063  14.154  12.187 -0.2993 -0.1307 -0.0724
  287loPI   PO4 4580  17.035  14.196  11.506 -0.1556  0.3556  0.0711
  287loPI   GL1 4581  16.837  14.167  11.130  0.1885 -0.0123  0.0916
  287loPI   GL2 4582  16.779  14.546  11.144  0.0960  0.0688 -0.3689
  287loPI   C1A 4583  16.607  14.127  10.691 -0.0859 -0.1010  0.0382
  287loPI   C2A 4584  16.656  14.179  10.240 -0.1540 -0.1037 -0.2103
  287loPI   C3A 4585  16.712  14.087   9.763  0.1235  0.1881  0.1704
  287loPI   C4A 4586  16.690  14.087   9.325 -0.1708  0.0004  0.1685
  287loPI   C5A 4587  16.880  14.403   9.023 -0.1699  0.0409  0.2047
  287loPI   C6A 4588  16.913  14.449   8.578 -0.0309 -0.1509 -0.0344
  287loPI   C1B 4589  16.771  14.722  10.675  0.1141 -0.0501 -0.0595
  287loPI   C2B 4590  16.655  14.779  10.232  0.1567  0.1006 -0.0972
  287loPI   C3B 4591  16.637  14.773   9.797  0.1376 -0.2678  0.0134
  287loPI   C4B 4592  16.751  14.620   9.469  0.0926 -0.0158 -0.2591
  288loPI    C1 4593   3.595  15.594  11.731 -0.0337  0.0242  0.1740
  288loPI    C2 4594   3.607  15.279  11.977  0.0196 -0.0347  0.0966
  288loPI    C3 4595   3.474  15.632  12.110 -0.2274 -0.1386  0.1298
  288loPI   PO4 4596   3.491  15.445  11.527 -0.2872 -0.1187 -0.1226
  288loPI   GL1 4597   3.343  15.610  11.074  0.0919 -0.0058  0.0402
  288loPI   GL2 4598   3.107  15.602  10.939 -0.1223  0.0116 -0.1227
  288loPI   C1A 4599   3.582  15.766  10.713 -0.0531  0.0881  0.0857
  288loPI   C2A 4600   3.673  15.755  10.211 -0.1515 -0.0408  0.0204
  288loPI   C3A 4601   3.762  15.814   9.780 -0.1635  0.1440  0.1626
  288loPI   C4A 4602   3.671  15.735   9.406  0.0539 -0.2019  0.1009
  288loPI   C5A 4603   3.792  15.861   9.014 -0.0515 -0.1162  0.1399
  288loPI   C6A 4604   3.772  16.220   8.753 -0.2050 -0.2696  0.2093
  288loPI   C1B 4605   3.109  15.592  10.563  0.0170  0.0666  0.0703
  288loPI   C2B 4606   3.182  15.601  10.092 -0.2541 -0.2558  0.0853
  288loPI   C3B 4607   3.192  15.661   9.686  0.0914  0.1799  0.5552
  288loPI   C4B 4608   3.241  15.716   9.226  0.1609  0.2058 -0.0825
  289loPI    C1 4609  14.488   5.866  11.638  0.0099 -0.0435 -0.1659
  289loPI    C2 4610  14.782   5.942  11.898 -0.1494  0.0712 -0.0176
  289loPI    C3 4611  14.405   5.909  12.026 -0.2045 -0.0573 -0.2094
  289loPI   PO4 4612  14.650   5.778  11.388  0.1240  0.0542 -0.0446
  289loPI   GL1 4613  14.840   5.575  11.049  0.1198 -0.1327 -0.0620
  289loPI   GL2 4614  14.533   5.378  11.088 -0.1673  0.1366  0.0113
  289loPI   C1A 4615  14.849   5.565  10.620 -0.3020  0.0977 -0.2803
  289loPI   C2A 4616  14.910   5.742  10.193 -0.2462 -0.2232  0.2517
  289loPI   C3A 4617  14.809   5.691   9.860 -0.0217  0.1436  0.0075
  289loPI   C4A 4618  14.774   5.721   9.371 -0.0386 -0.1784 -0.1969
  289loPI   C5A 4619  14.664   5.510   9.119  0.2743 -0.1220 -0.2911
  289loPI   C6A 4620  14.693   5.300   8.730  0.1105  0.1413  0.0125
  289loPI   C1B 4621  14.326   5.525  10.756  0.0171  0.1557 -0.1756
  289loPI   C2B 4622  14.484   5.497  10.294 -0.3632 -0.3028  0.1814
  289loPI   C3B 4623  14.340   5.423   9.836 -0.2556  0.0408  0.2702
  289loPI   C4B 4624  14.298   5.554   9.444 -0.0517 -0.0618  0.0788
  290loPI    C1 4625  10.352   5.956  11.340 -0.0771 -0.1873 -0.2064
  290loPI    C2 4626  10.574   5.697  11.548 -0.0073 -0.0380 -0.0933
  290loPI    C3 4627  10.493   6.059  11.700 -0.1433 -0.0103 -0.2297
  290loPI   PO4 4628  10.394   5.894  11.009 -0.2302  0.2746  0.1850
  290loPI   GL1 4629  10.242   6.066  10.684 -0.2268 -0.1739  0.2607
  290loPI   GL2 4630   9.959   5.918  10.533  0.2872  0.2710 -0.0379
  290loPI   C1A 4631  10.336   6.391  10.503 -0.1728  0.1918  0.1062
  290loPI   C2A 4632  10.355   6.501  10.060 -0.3502  0.3076  0.1399
  290loPI   C3A 4633  10.401   6.496   9.662 -0.1526  0.1109 -0.1376
  290loPI   C4A 4634  10.410   6.305   9.254 -0.1920 -0.0748 -0.1010
  290loPI   C5A 4635  10.484   6.223   8.830 -0.0462  0.0764  0.1980
  290loPI   C6A 4636  10.219   6.239   8.454 -0.0476  0.5337  0.0301
  290loPI   C1B 4637  10.163   6.085  10.085  0.0128 -0.0609 -0.4180
  290loPI   C2B 4638  10.125   6.046   9.654  0.0742 -0.0275  0.2426
  290loPI   C3B 4639  10.345   5.792   9.386  0.0443 -0.2765 -0.0408
  290loPI   C4B 4640  10.361   5.729   8.886  0.0167  0.3706 -0.0948
  291loPI    C1 4641  15.060   2.221  11.777 -0.1647 -0.2421  0.0951
  291loPI    C2 4642  15.206   2.548  11.954 -0.1663 -0.1277 -0.1114
  291loPI    C3 4643  15.389   2.196  12.003  0.0651 -0.0228 -0.2063
  291loPI   PO4 4644  15.055   2.260  11.518 -0.0190  0.0707 -0.1715
  291loPI   GL1 4645  15.407   2.392  11.240 -0.1248 -0.2731 -0.0938
  291loPI   GL2 4646  15.297   2.033  11.088  0.0833  0.1410 -0.3234
  291loPI   C1A 4647  15.148   2.494  10.887  0.0045 -0.0568  0.1040
  291loPI   C2A 4648  15.226   2.429  10.454 -0.1179  0.0568 -0.3983
  291loPI   C3A 4649  15.234   2.426  10.027  0.0892  0.0842 -0.3083
  291loPI   C4A 4650  15.275   2.534   9.629 -0.0569 -0.0813 -0.1664
  291loPI   C5A 4651  15.192   2.529   9.276 -0.2243 -0.1647 -0.0961
  291loPI   C6A 4652  15.558   2.461   8.976  0.1474 -0.3346  0.1263
  291loPI   C1B 4653  15.129   2.003  10.666 -0.3911  0.0600  0.0702
  291loPI   C2B 4654  15.103   1.942  10.196  0.0542  0.1656 -0.0198
  291loPI   C3B 4655  15.103   1.978   9.742  0.0919 -0.1755  0.1391
  291loPI   C4B 4656  15.070   2.016   9.333 -0.4835 -0.1195  0.1654
  292loPI    C1 4657   2.607  12.881  12.072  0.1573  0.0333  0.0909
  292loPI    C2 4658   2.992  12.775  12.053  0.1404 -0.0432  0.1681
  292loPI    C3 4659   2.876  13.059  12.309  0.1710  0.0971  0.0276
  292loPI   PO4 4660   2.512  12.768  11.791  0.0690  0.1388  0.0657
  292loPI   GL1 4661   2.512  12.751  11.349  0.3137 -0.1039 -0.1811
  292loPI   GL2 4662   2.722  12.516  11.237  0.3957 -0.1337  0.1309
  292loPI   C1A 4663   2.279  12.853  11.008  0.0872  0.0807  0.1046
  292loPI   C2A 4664   2.303  12.862  10.521  0.0804 -0.1494  0.0816
  292loPI   C3A 4665   2.455  12.768  10.144  0.1127 -0.1856 -0.3284
  292loPI   C4A 4666   2.333  12.892   9.756  0.3415  0.0194  0.1070
  292loPI   C5A 4667   2.458  12.786   9.301 -0.1674 -0.0531  0.0558
  292loPI   C6A 4668   2.823  12.794   9.074  0.0648  0.1040 -0.2294
  292loPI   C1B 4669   2.639  12.533  10.817 -0.0704 -0.2225 -0.0488
  292loPI   C2B 4670   2.761  12.464  10.386  0.2680 -0.1930  0.1832
  292loPI   C3B 4671   2.817  12.438   9.991  0.1011  0.1168  0.2123
  292loPI   C4B 4672   2.666  12.502   9.591 -0.0913  0.1636 -0.1678
  293loPI    C1 4673  15.544   7.242  11.439 -0.1974 -0.0929 -0.2215
  293loPI    C2 4674  15.513   6.977  11.737 -0.0175 -0.0300 -0.1449
  293loPI    C3 4675  15.218   7.240  11.671 -0.0721 -0.0646 -0.0424
  293loPI   PO4 4676  15.744   7.122  11.338  0.0525 -0.1042 -0.3984
  293loPI   GL1 4677  15.853   7.281  10.990  0.2690 -0.0824 -0.1752
  293loPI   GL2 4678  15.516   7.436  10.941 -0.1706 -0.0375  0.1050
  293loPI   C1A 4679  15.854   7.141  10.672  0.0926  0.4480 -0.2417
  293loPI   C2A 4680  15.976   7.154  10.285 -0.0086  0.2330 -0.0219
  293loPI   C3A 4681  15.906   7.156   9.848  0.1182  0.0519 -0.0738
  293loPI   C4A 4682  15.760   7.166   9.433  0.0794 -0.0266 -0.0896
  293loPI   C5A 4683  15.690   7.052   9.104  0.1949 -0.3215 -0.0420
  293loPI   C6A 4684  15.587   6.627   9.172  0.2564 -0.0316  0.0138
  293loPI   C1B 4685  15.557   7.458  10.562  0.1660  0.1305  0.1244
  293loPI   C2B 4686  15.493   7.477  10.118  0.3236  0.0541  0.1396
  293loPI   C3B 4687  15.444   7.498   9.686 -0.1381 -0.0556  0.3747
  293loPI   C4B 4688  15.417   7.540   9.305 -0.3571 -0.0666  0.2465
  294loPI    C1 4689  11.716  11.282  11.631  0.2892  0.0694 -0.0204
  294loPI    C2 4690  11.938  11.439  11.925 -0.0190  0.0987  0.2013
  294loPI    C3 4691  11.682  11.141  12.004 -0.0031  0.0112 -0.0666
  294loPI   PO4 4692  11.625  11.477  11.509 -0.0758 -0.0730 -0.0644
  294loPI   GL1 4693  11.384  11.437  11.116 -0.2511  0.1934 -0.3221
  294loPI   GL2 4694  11.599  11.145  11.124  0.3661  0.1255 -0.1904
  294loPI   C1A 4695  11.116  11.505  10.858  0.1080 -0.1070 -0.0775
  294loPI   C2A 4696  11.168  11.401  10.360 -0.3033 -0.0256  0.2643
  294loPI   C3A 4697  11.176  11.559   9.870 -0.0092  0.0591  0.1289
  294loPI   C4A 4698  11.177  11.587   9.432  0.0474  0.2044  0.2079
  294loPI   C5A 4699  11.204  11.589   9.043  0.0674 -0.1955 -0.2065
  294loPI   C6A 4700  11.145  11.603   8.684 -0.3645  0.1978  0.1035
  294loPI   C1B 4701  11.528  11.162  10.639  0.1552  0.0431 -0.1278
  294loPI   C2B 4702  11.585  11.228  10.148  0.1547 -0.0727  0.0040
  294loPI   C3B 4703  11.536  11.241   9.667  0.0446  0.2087 -0.0600
  294loPI   C4B 4704  11.639  11.243   9.249  0.1181 -0.1390 -0.2364
  295loPI    C1 4705   7.122   1.458  11.447  0.0876 -0.1179 -0.0872
  295loPI    C2 4706   7.054   1.177  11.724 -0.0371 -0.0031 -0.0001
  295loPI    C3 4707   6.841   1.516  11.726  0.1415  0.1107 -0.0785
  295loPI   PO4 4708   7.139   1.288  11.202  0.0322 -0.1990 -0.1070
  295loPI   GL1 4709   7.399   1.180  10.888 -0.0982 -0.0426  0.1370
  295loPI   GL2 4710   7.639   1.232  10.677  0.2151 -0.0792  0.2405
  295loPI   C1A 4711   7.188   1.286  10.509  0.2081 -0.0029  0.3855
  295loPI   C2A 4712   7.209   1.412  10.063  0.1315  0.2611 -0.2232
  295loPI   C3A 4713   7.112   1.376   9.758 -0.1782  0.1158  0.1511
  295loPI   C4A 4714   7.181   1.364   9.320  0.2645 -0.1398 -0.1276
  295loPI   C5A 4715   7.211   1.444   8.940  0.0884 -0.1559  0.1161
  295loPI   C6A 4716   7.050   1.503   8.572  0.1727 -0.0094 -0.0438
  295loPI   C1B 4717   7.729   1.387  10.250  0.0664 -0.1849 -0.1499
  295loPI   C2B 4718   7.680   1.388   9.808 -0.3333  0.3050 -0.1333
  295loPI   C3B 4719   7.704   1.377   9.353  0.1246 -0.0352 -0.2935
  295loPI   C4B 4720   7.697   1.310   8.896  0.0656  0.1572 -0.2970
  296loPI    C1 4721   5.422   6.731  11.436 -0.0765  0.1185 -0.0730
  296loPI    C2 4722   5.425   6.774  11.834  0.3048  0.2031 -0.0810
  296loPI    C3 4723   5.108   6.609  11.653  0.2828 -0.1837  0.2936
  296loPI   PO4 4724   5.506   6.933  11.316 -0.2414  0.4977  0.1368
  296loPI   GL1 4725   5.323   7.063  10.818 -0.0090  0.0010 -0.0534
  296loPI   GL2 4726   5.599   7.212  10.907  0.0896  0.1510  0.0214
  296loPI   C1A 4727   5.266   7.132  10.364  0.0201 -0.2871 -0.2104
  296loPI   C2A 4728   5.135   7.210   9.922 -0.3022  0.0697  0.0767
  296loPI   C3A 4729   5.105   7.450   9.503 -0.0597  0.0755  0.0714
  296loPI   C4A 4730   5.480   7.473   9.160  0.3214 -0.3111 -0.0619
  296loPI   C5A 4731   5.854   7.561   8.954 -0.1227 -0.0027  0.0635
  296loPI   C6A 4732   6.309   7.758   8.895 -0.4949  0.0683  0.2691
  296loPI   C1B 4733   5.717   7.322  10.455 -0.2437  0.0513  0.3725
  296loPI   C2B 4734   5.597   7.400   9.995 -0.2750 -0.0236 -0.0292
  296loPI   C3B 4735   5.562   7.505   9.652 -0.0733 -0.1366 -0.1231
  296loPI   C4B 4736   5.418   7.878   9.476 -0.1901  0.2108 -0.0966
  297loPI    C1 4737  12.359  13.733  11.479  0.1631  0.1710 -0.0814
  297loPI    C2 4738  12.413  14.129  11.470  0.2250  0.1671  0.0872
  297loPI    C3 4739  12.679  13.896  11.655  0.2256  0.0396 -0.0727
  297loPI   PO4 4740  12.080  13.662  11.431  0.0151 -0.0921  0.0656
  297loPI   GL1 4741  11.799  13.706  11.082  0.1292  0.3200 -0.0835
  297loPI   GL2 4742  11.812  13.499  11.059 -0.2883  0.1402 -0.2563
  297loPI   C1A 4743  11.985  13.759  10.580 -0.0010  0.0325  0.0668
  297loPI   C2A 4744  12.065  13.766  10.255  0.1090 -0.0638  0.0266
  297loPI   C3A 4745  12.035  13.764   9.798 -0.2335  0.0651  0.0982
  297loPI   C4A 4746  12.161  13.740   9.374 -0.1883 -0.0568  0.0087
  297loPI   C5A 4747  12.400  13.885   9.036 -0.1671  0.3069 -0.2044
  297loPI   C6A 4748  12.588  13.680   8.668 -0.3035  0.1754  0.0812
  297loPI   C1B 4749  11.829  13.222  10.707 -0.2330  0.1943  0.1244
  297loPI   C2B 4750  11.911  13.251  10.281  0.0254 -0.3526 -0.1473
  297loPI   C3B 4751  12.009  13.236   9.902  0.1272 -0.1860 -0.2528
  297loPI   C4B 4752  12.060  13.268   9.416  0.0421  0.1307 -0.0573
  298loPI    C1 4753   8.961   5.365  11.499  0.1729 -0.2718 -0.0267
  298loPI    C2 4754   8.635   5.300  11.720  0.1408 -0.0637 -0.0107
  298loPI    C3 4755   8.981   5.394  11.897  0.1595 -0.0796 -0.0388
  298loPI   PO4 4756   8.829   5.479  11.231  0.2600  0.1283  0.0773
  298loPI   GL1 4757   8.577   5.506  10.885  0.1169 -0.1257 -0.0028
  298loPI   GL2 4758   8.486   5.241  10.683  0.0918 -0.0800 -0.2684
  298loPI   C1A 4759   8.670   5.618  10.432 -0.2325 -0.0545  0.0966
  298loPI   C2A 4760   8.748   5.730   9.948  0.1344 -0.0950  0.1742
  298loPI   C3A 4761   8.791   5.754   9.515  0.0761  0.4697 -0.1262
  298loPI   C4A 4762   8.771   5.725   9.083  0.4178 -0.2746 -0.0619
  298loPI   C5A 4763   8.758   5.323   8.683  0.0869 -0.2326 -0.0089
  298loPI   C6A 4764   8.991   5.117   8.485 -0.3865  0.2592  0.2769
  298loPI   C1B 4765   8.422   5.263  10.194  0.1284 -0.0793 -0.1029
  298loPI   C2B 4766   8.374   5.287   9.830 -0.0041  0.4043  0.0339
  298loPI   C3B 4767   8.385   5.318   9.431 -0.6328 -0.1738  0.1102
  298loPI   C4B 4768   8.397   5.405   8.975 -0.0483  0.1303 -0.1465
  299loPI    C1 4769   0.817   7.222  11.616 -0.0914 -0.0509  0.0006
  299loPI    C2 4770   0.812   7.106  11.999  0.0798  0.0903  0.0469
  299loPI    C3 4771   0.565   7.395  11.874  0.0183  0.0387  0.0485
  299loPI   PO4 4772   0.771   7.134  11.439 -0.0050 -0.2984 -0.1143
  299loPI   GL1 4773   0.753   6.888  11.037  0.0231  0.2011  0.0700
  299loPI   GL2 4774   0.531   7.102  10.953  0.1611 -0.0373  0.0620
  299loPI   C1A 4775   0.914   6.953  10.645  0.0196  0.2047 -0.2286
  299loPI   C2A 4776   0.889   7.053  10.214 -0.2244  0.2116 -0.0271
  299loPI   C3A 4777   0.913   7.053   9.736 -0.1676 -0.0034  0.3698
  299loPI   C4A 4778   0.826   6.973   9.313 -0.0503  0.1014 -0.0894
  299loPI   C5A 4779   1.070   6.763   8.940  0.0658  0.3794 -0.1343
  299loPI   C6A 4780   1.346   7.048   8.788  0.3144  0.4455 -0.0528
  299loPI   C1B 4781   0.468   7.252  10.581  0.3484 -0.0704 -0.1046
  299loPI   C2B 4782   0.411   7.351  10.172  0.2140 -0.1867 -0.0541
  299loPI   C3B 4783   0.413   7.414   9.711 -0.0724 -0.1822  0.2983
  299loPI   C4B 4784   0.488   7.337   9.231  0.1756  0.1330 -0.0404
  300loPI    C1 4785   9.473  13.762  11.639  0.1950 -0.3317 -0.0073
  300loPI    C2 4786   9.742  13.894  11.903 -0.1474  0.1654  0.1056
  300loPI    C3 4787   9.416  13.700  12.030  0.1152 -0.3812 -0.0264
  300loPI   PO4 4788   9.577  13.681  11.429 -0.0873 -0.1399  0.2647
  300loPI   GL1 4789   9.443  13.737  11.029  0.2809  0.0292 -0.1125
  300loPI   GL2 4790   9.210  13.745  10.883  0.4181 -0.1445  0.2482
  300loPI   C1A 4791   9.605  13.622  10.644  0.1362 -0.0558 -0.1821
  300loPI   C2A 4792   9.603  13.510  10.246 -0.2463 -0.2531  0.0169
  300loPI   C3A 4793   9.685  13.596   9.892 -0.0454  0.0804 -0.0632
  300loPI   C4A 4794   9.762  13.434   9.518  0.0695  0.2539  0.0977
  300loPI   C5A 4795   9.722  13.172   9.115 -0.2405  0.0242 -0.4052
  300loPI   C6A 4796   9.700  12.765   8.874  0.1654  0.0930 -0.0289
  300loPI   C1B 4797   9.150  13.707  10.408 -0.3338  0.0903 -0.2075
  300loPI   C2B 4798   9.194  13.547   9.946 -0.0435 -0.0950 -0.0423
  300loPI   C3B 4799   9.116  13.708   9.561  0.0399  0.2504  0.2006
  300loPI   C4B 4800   9.304  13.671   9.169  0.0776  0.0804  0.0950
  301loPI    C1 4801  15.112   6.552  11.770  0.0718  0.1907  0.2133
  301loPI    C2 4802  15.477   6.502  11.926  0.0895  0.1548  0.1611
  301loPI    C3 4803  15.189   6.235  12.002  0.1200  0.0948  0.0680
  301loPI   PO4 4804  15.116   6.712  11.574 -0.2005 -0.2164  0.3514
  301loPI   GL1 4805  15.347   6.808  11.236 -0.0143  0.0179 -0.0444
  301loPI   GL2 4806  15.355   6.512  11.173 -0.1163 -0.0156 -0.1835
  301loPI   C1A 4807  15.431   6.815  10.739  0.0290  0.1413  0.1027
  301loPI   C2A 4808  15.456   6.929  10.286  0.0837 -0.0994 -0.0153
  301loPI   C3A 4809  15.429   6.925   9.813  0.0975  0.0760  0.2581
  301loPI   C4A 4810  15.275   6.925   9.399 -0.0041 -0.1395 -0.0247
  301loPI   C5A 4811  15.134   7.225   9.059 -0.2649 -0.1164  0.1994
  301loPI   C6A 4812  15.042   7.510   8.699  0.1019  0.2102 -0.1385
  301loPI   C1B 4813  15.450   6.338  10.833  0.0703  0.1446  0.0820
  301loPI   C2B 4814  15.473   6.318  10.429  0.0324  0.0723 -0.2165
  301loPI   C3B 4815  15.427   6.445  10.036  0.0583  0.4683 -0.1648
  301loPI   C4B 4816  15.336   6.448   9.604  0.1997 -0.1177 -0.0540
  302loPI    C1 4817   9.356   3.890  11.587  0.0856  0.0285  0.0535
  302loPI    C2 4818   9.008   3.732  11.707  0.0652  0.0414  0.0115
  302loPI    C3 4819   9.151   4.060  11.886  0.0258  0.0711 -0.0114
  302loPI   PO4 4820   9.320   3.860  11.317  0.0959 -0.0196  0.1319
  302loPI   GL1 4821   9.197   3.925  10.932  0.3407 -0.2509  0.0158
  302loPI   GL2 4822   9.102   3.713  10.643  0.1356  0.2811  0.0757
  302loPI   C1A 4823   9.343   4.208  10.589  0.2313  0.0253  0.2846
  302loPI   C2A 4824   9.379   4.306  10.158  0.1732  0.1777  0.1061
  302loPI   C3A 4825   9.413   4.369   9.652  0.1521 -0.0957 -0.2301
  302loPI   C4A 4826   9.420   4.265   9.272  0.0407  0.1976  0.1194
  302loPI   C5A 4827   9.370   4.354   8.813  0.2621 -0.1781  0.2506
  302loPI   C6A 4828   9.292   4.096   8.405 -0.2538  0.2079 -0.0776
  302loPI   C1B 4829   8.973   3.866  10.235 -0.0281  0.0990 -0.2321
  302loPI   C2B 4830   9.023   3.825   9.850  0.0591 -0.2247  0.3521
  302loPI   C3B 4831   9.050   3.916   9.408  0.0675  0.0954  0.1177
  302loPI   C4B 4832   9.078   3.876   8.990 -0.0637 -0.3850 -0.0938
  303loPI    C1 4833  10.429  10.209  11.646  0.2203  0.2677  0.0062
  303loPI    C2 4834  10.266  10.516  11.844 -0.0156  0.2864 -0.2111
  303loPI    C3 4835  10.091  10.156  11.853  0.1520  0.2058 -0.1198
  303loPI   PO4 4836  10.522  10.333  11.455 -0.0068  0.1554  0.0613
  303loPI   GL1 4837  10.525  10.541  11.011 -0.1555 -0.1235  0.2246
  303loPI   GL2 4838  10.868  10.536  10.886  0.0343  0.0952 -0.0833
  303loPI   C1A 4839  10.555  10.770  10.563 -0.0008  0.2080  0.0004
  303loPI   C2A 4840  10.535  10.781  10.184  0.2488 -0.0096  0.5397
  303loPI   C3A 4841  10.579  10.852   9.701  0.0619 -0.0260  0.1725
  303loPI   C4A 4842  10.673  10.834   9.399 -0.1211 -0.2324  0.0853
  303loPI   C5A 4843  10.526  11.211   9.158 -0.1709 -0.1810  0.0089
  303loPI   C6A 4844  10.756  11.285   8.724  0.0674  0.0402 -0.1461
  303loPI   C1B 4845  10.937  10.450  10.540  0.0022  0.0260 -0.3236
  303loPI   C2B 4846  10.874  10.416  10.106  0.1022  0.0383  0.1038
  303loPI   C3B 4847  11.044  10.537   9.760 -0.2636  0.1682  0.2383
  303loPI   C4B 4848  11.099  10.383   9.483  0.3308 -0.1352  0.0308
  304loPI    C1 4849   6.416   9.766  11.559  0.2406  0.3003 -0.0825
  304loPI    C2 4850   6.379   9.534  11.883 -0.0567  0.1158 -0.2442
  304loPI    C3 4851   6.671   9.808  11.865  0.0626  0.0170  0.1087
  304loPI   PO4 4852   6.136   9.850  11.504 -0.1857 -0.1136  0.2712
  304loPI   GL1 4853   6.081   9.809  11.032  0.0480  0.1388  0.0349
  304loPI   GL2 4854   5.848   9.804  10.775 -0.5721  0.3215  0.2833
  304loPI   C1A 4855   6.200  10.174  10.820  0.0101 -0.1746  0.2729
  304loPI   C2A 4856   6.096  10.264  10.367 -0.0776 -0.0719  0.1974
  304loPI   C3A 4857   6.056  10.376   9.961 -0.0902  0.0482  0.0119
  304loPI   C4A 4858   6.086  10.113   9.601 -0.2961 -0.2070  0.1724
  304loPI   C5A 4859   6.329  10.103   9.281 -0.1234  0.0028  0.0671
  304loPI   C6A 4860   6.412   9.893   8.798 -0.2355 -0.2738 -0.1721
  304loPI   C1B 4861   5.969   9.712  10.441 -0.0254  0.1041  0.0328
  304loPI   C2B 4862   5.967   9.719   9.941  0.0619  0.0294 -0.1591
  304loPI   C3B 4863   6.040   9.606   9.631 -0.1597  0.2426 -0.0180
  304loPI   C4B 4864   5.930   9.291   9.343  0.1513 -0.1893 -0.0247
  305loPI    C1 4865  13.863  13.547  11.654 -0.0486  0.1734  0.0052
  305loPI    C2 4866  13.768  13.547  12.042 -0.0313 -0.2824  0.0151
  305loPI    C3 4867  13.532  13.361  11.779 -0.1110  0.1327 -0.2162
  305loPI   PO4 4868  13.961  13.645  11.582  0.3530 -0.1019 -0.1971
  305loPI   GL1 4869  14.053  13.704  11.141  0.4858  0.0773  0.0116
  305loPI   GL2 4870  13.694  13.866  11.093  0.0419  0.2028 -0.1708
  305loPI   C1A 4871  14.204  13.618  10.718  0.0253  0.0331  0.0805
  305loPI   C2A 4872  14.261  13.603  10.351 -0.0087 -0.0122  0.0057
  305loPI   C3A 4873  14.282  13.704   9.951  0.2821 -0.1549 -0.1089
  305loPI   C4A 4874  14.384  13.666   9.458  0.4262 -0.2939 -0.2852
  305loPI   C5A 4875  14.194  13.620   9.131  0.0720 -0.1760  0.2218
  305loPI   C6A 4876  14.139  13.203   8.800 -0.3583  0.1170  0.1127
  305loPI   C1B 4877  13.819  13.906  10.685  0.1214  0.0613  0.1787
  305loPI   C2B 4878  13.925  13.940  10.323  0.1220  0.2907  0.1955
  305loPI   C3B 4879  13.926  14.071   9.916 -0.1234 -0.0162 -0.3088
  305loPI   C4B 4880  13.999  13.965   9.428 -0.0964 -0.1267  0.6644
  306loPI    C1 4881  11.666   7.434  11.499  0.0541  0.1019  0.2577
  306loPI    C2 4882  11.365   7.566  11.727  0.1071 -0.0328  0.4079
  306loPI    C3 4883  11.707   7.446  11.897  0.1015 -0.2536  0.2674
  306loPI   PO4 4884  11.681   7.682  11.219 -0.2409  0.2172  0.4877
  306loPI   GL1 4885  11.401   7.802  10.812  0.0146 -0.0903  0.0161
  306loPI   GL2 4886  11.451   8.100  10.986  0.0609  0.4420 -0.0589
  306loPI   C1A 4887  11.498   7.781  10.313  0.0119  0.0920 -0.2136
  306loPI   C2A 4888  11.616   7.743   9.834  0.3689 -0.1791 -0.2507
  306loPI   C3A 4889  11.587   7.784   9.418  0.0639  0.0235  0.1205
  306loPI   C4A 4890  11.593   7.668   8.951 -0.0474 -0.0623 -0.1190
  306loPI   C5A 4891  11.402   7.524   8.646  0.1603  0.0542  0.0423
  306loPI   C6A 4892  11.116   7.184   8.540  0.0411 -0.0111 -0.1131
  306loPI   C1B 4893  11.595   8.275  10.675  0.0761 -0.1104  0.2171
  306loPI   C2B 4894  11.550   8.271  10.233  0.0924 -0.2543  0.0779
  306loPI   C3B 4895  11.621   8.217   9.765  0.2132 -0.0711  0.0232
  306loPI   C4B 4896  11.701   8.310   9.415  0.1099  0.3097  0.0711
  307loPI    C1 4897   4.379   2.001  11.429  0.0368  0.0261 -0.0141
  307loPI    C2 4898   4.711   1.833  11.282 -0.0232 -0.1406  0.0383
  307loPI    C3 4899   4.719   2.011  11.640 -0.0160 -0.2399  0.0877
  307loPI   PO4 4900   4.312   2.111  11.198 -0.1116 -0.1042  0.1036
  307loPI   GL1 4901   4.480   2.378  10.854  0.1748  0.2378 -0.0445
  307loPI   GL2 4902   4.627   2.116  10.793  0.3036  0.2185  0.2038
  307loPI   C1A 4903   4.481   2.484  10.412  0.0046 -0.0923 -0.0772
  307loPI   C2A 4904   4.561   2.458  10.023  0.1819 -0.2414 -0.1813
  307loPI   C3A 4905   4.632   2.539   9.518 -0.0165 -0.3474 -0.0830
  307loPI   C4A 4906   4.753   2.454   9.129  0.0751  0.1278 -0.0574
  307loPI   C5A 4907   5.031   2.190   8.924 -0.1566  0.1463  0.2964
  307loPI   C6A 4908   5.093   2.121   8.465 -0.1714 -0.0684 -0.0378
  307loPI   C1B 4909   4.766   2.034  10.295  0.2328  0.1648 -0.2214
  307loPI   C2B 4910   4.805   1.991   9.883 -0.2027 -0.0377 -0.1540
  307loPI   C3B 4911   4.804   1.972   9.442 -0.0265  0.1624  0.0595
  307loPI   C4B 4912   4.430   2.065   9.136  0.0881  0.3713  0.0213
  308loPI    C1 4913   0.353   7.819  11.744 -0.1001 -0.0146  0.0475
  308loPI    C2 4914   0.124   8.094  11.923 -0.1896 -0.0487 -0.0144
  308loPI    C3 4915   0.491   8.017  12.063 -0.0928  0.2340 -0.1066
  308loPI   PO4 4916   0.185   7.802  11.488  0.3726  0.0407 -0.0984
  308loPI   GL1 4917   0.267   7.900  11.193  0.0935  0.0594 -0.0404
  308loPI   GL2 4918   0.389   7.639  10.994  0.1913  0.3047  0.3489
  308loPI   C1A 4919   0.236   8.117  10.823 -0.1924  0.0078 -0.0506
  308loPI   C2A 4920   0.112   8.253  10.464  0.2735  0.0593 -0.0719
  308loPI   C3A 4921   0.198   8.307   9.985 -0.2320 -0.3820  0.0422
  308loPI   C4A 4922   0.205   8.260   9.631 -0.0647  0.2408  0.0250
  308loPI   C5A 4923   0.167   8.251   9.269  0.1269  0.0414  0.0342
  308loPI   C6A 4924  -0.038   8.207   8.884  0.0043  0.1141 -0.0811
  308loPI   C1B 4925   0.132   7.635  10.622  0.0261  0.0652 -0.4276
  308loPI   C2B 4926   0.051   7.689  10.156  0.0669 -0.2002 -0.2211
  308loPI   C3B 4927   0.080   7.765   9.766 -0.1375  0.0358 -0.0378
  308loPI   C4B 4928   0.060   7.643   9.383 -0.1037 -0.2716  0.5047
  309loPI    C1 4929  15.481  14.970  11.859  0.0140 -0.0636  0.0281
  309loPI    C2 4930  15.295  15.008  11.507 -0.0956 -0.2561  0.0640
  309loPI    C3 4931  15.101  14.852  11.820 -0.0018 -0.0762  0.2135
  309loPI   PO4 4932  15.718  14.895  11.748 -0.2730  0.1579  0.0587
  309loPI   GL1 4933  15.814  15.034  11.250 -0.2890  0.2117 -0.2057
  309loPI   GL2 4934  15.693  15.191  11.082  0.1928 -0.2872 -0.0877
  309loPI   C1A 4935  15.941  14.815  10.826 -0.0115 -0.0223 -0.3608
  309loPI   C2A 4936  15.844  14.736  10.327  0.1619  0.1303 -0.2005
  309loPI   C3A 4937  15.880  14.902   9.864 -0.0061  0.0020  0.0472
  309loPI   C4A 4938  15.867  14.781   9.414  0.1051  0.3716  0.0182
  309loPI   C5A 4939  15.995  14.901   8.998  0.1354 -0.0595  0.3117
  309loPI   C6A 4940  16.240  15.105   8.666 -0.0735  0.0155 -0.1789
  309loPI   C1B 4941  15.849  15.358  10.785 -0.0096 -0.1578  0.0385
  309loPI   C2B 4942  15.847  15.278  10.374 -0.0408  0.1929  0.3989
  309loPI   C3B 4943  15.903  15.409   9.991 -0.1231 -0.0037  0.0424
  309loPI   C4B 4944  15.769  15.319   9.484  0.0973 -0.1875 -0.2417
  310loPI    C1 4945   6.806  14.212  11.457 -0.0598 -0.0737 -0.0493
  310loPI    C2 4946   6.607  14.171  11.801  0.0789  0.1113  0.0546
  310loPI    C3 4947   6.952  13.975  11.744 -0.0132 -0.0268 -0.0338
  310loPI   PO4 4948   6.590  14.135  11.281 -0.0700  0.2357 -0.0968
  310loPI   GL1 4949   6.280  14.180  11.071  0.1574  0.0332  0.0053
  310loPI   GL2 4950   6.396  14.438  10.834 -0.2858  0.0890  0.0652
  310loPI   C1A 4951   6.204  14.074  10.560 -0.2472 -0.2429  0.0275
  310loPI   C2A 4952   6.180  14.022  10.161  0.1710 -0.1507  0.2651
  310loPI   C3A 4953   6.191  13.790   9.787 -0.0567 -0.2518  0.1629
  310loPI   C4A 4954   6.228  13.798   9.349  0.1608  0.3093  0.0600
  310loPI   C5A 4955   5.972  13.880   9.105 -0.2537 -0.2234  0.0670
  310loPI   C6A 4956   5.621  13.722   8.923  0.1475 -0.0093 -0.1465
  310loPI   C1B 4957   6.444  14.691  10.478 -0.0766 -0.0518 -0.2566
  310loPI   C2B 4958   6.412  14.644  10.097  0.2313 -0.1159  0.1229
  310loPI   C3B 4959   6.471  14.813   9.679 -0.0118 -0.2831 -0.2953
  310loPI   C4B 4960   6.419  14.751   9.255 -0.0001 -0.0356 -0.0829
  311loPI    C1 4961  11.203  11.651  11.617  0.1489 -0.1459  0.1178
  311loPI    C2 4962  11.077  11.782  11.973  0.0198 -0.0705  0.0454
  311loPI    C3 4963  11.294  11.446  11.948  0.1742  0.0150  0.2115
  311loPI   PO4 4964  11.061  11.869  11.456 -0.0048 -0.2036  0.0069
  311loPI   GL1 4965  11.006  12.211  11.187  0.0549  0.1566 -0.1519
  311loPI   GL2 4966  10.747  12.219  11.203 -0.0417  0.1850 -0.3769
  311loPI   C1A 4967  11.178  12.084  10.861  0.1241  0.2113  0.1180
  311loPI   C2A 4968  11.241  11.987  10.565 -0.1695  0.0658  0.4031
  311loPI   C3A 4969  11.265  12.083  10.142 -0.0287 -0.2980  0.0444
  311loPI   C4A 4970  11.341  12.025   9.711  0.2784  0.2671 -0.2997
  311loPI   C5A 4971  11.271  12.072   9.284  0.0422 -0.4705  0.1832
  311loPI   C6A 4972  11.056  12.107   8.965  0.1198 -0.0578  0.1950
  311loPI   C1B 4973  10.757  12.381  10.785  0.0392 -0.0946  0.0873
  311loPI   C2B 4974  10.823  12.253  10.391  0.1235  0.0424 -0.2212
  311loPI   C3B 4975  10.939  12.347   9.944 -0.2413 -0.3341  0.1111
  311loPI   C4B 4976  11.017  12.412   9.495 -0.1599  0.0990  0.1675
  312loPI    C1 4977  12.572   6.879  11.634  0.0744 -0.0202 -0.1757
  312loPI    C2 4978  12.336   6.563  11.699  0.0695  0.0135 -0.0262
  312loPI    C3 4979  12.686   6.594  11.890  0.2015 -0.0417 -0.2552
  312loPI   PO4 4980  12.448   6.919  11.348 -0.1428  0.1668  0.0705
  312loPI   GL1 4981  12.669   6.790  10.955  0.1665 -0.0755  0.2370
  312loPI   GL2 4982  12.803   7.013  10.927 -0.3853  0.2500  0.3716
  312loPI   C1A 4983  12.713   6.641  10.545 -0.0750  0.0977  0.0537
  312loPI   C2A 4984  12.716   6.609  10.166 -0.1614 -0.1831  0.1433
  312loPI   C3A 4985  12.755   6.733   9.802  0.1993 -0.3298  0.0763
  312loPI   C4A 4986  12.788   6.866   9.453 -0.0179  0.2262  0.2972
  312loPI   C5A 4987  12.816   7.021   8.994  0.0840 -0.1694 -0.0648
  312loPI   C6A 4988  12.759   7.348   8.879 -0.1063 -0.1048  0.0936
  312loPI   C1B 4989  13.114   6.942  10.575  0.2410  0.1883 -0.2321
  312loPI   C2B 4990  13.111   6.944  10.106  0.0937  0.3872  0.1656
  312loPI   C3B 4991  13.194   7.009   9.707 -0.1660  0.4462  0.3767
  312loPI   C4B 4992  13.280   6.948   9.274  0.0644  0.1388  0.0992
  313loPI    C1 4993   5.372   9.398  11.473  0.3416  0.1468 -0.1723
  313loPI    C2 4994   5.444   9.091  11.719 -0.5137  0.1806  0.1528
  313loPI    C3 4995   5.478   9.467  11.853  0.1500  0.2369 -0.1340
  313loPI   PO4 4996   5.126   9.254  11.321  0.0969  0.1267 -0.0847
  313loPI   GL1 4997   5.121   9.402  10.882  0.2616 -0.1196  0.2557
  313loPI   GL2 4998   5.428   9.574  10.984 -0.4402  0.0915 -0.3930
  313loPI   C1A 4999   5.087   9.403  10.382 -0.1456  0.0997 -0.0191
  313loPI   C2A 5000   5.012   9.514  10.069 -0.1369  0.4266  0.1642
  313loPI   C3A 5001   4.983   9.386   9.639 -0.3238 -0.1105 -0.2946
  313loPI   C4A 5002   4.997   9.229   9.239 -0.1065  0.4900  0.3050
  313loPI   C5A 5003   4.666   9.125   8.827  0.2514 -0.0089 -0.1104
  313loPI   C6A 5004   4.243   8.970   8.561  0.0501  0.0243 -0.1948
  313loPI   C1B 5005   5.429   9.694  10.577 -0.1635  0.1367  0.1309
  313loPI   C2B 5006   5.488   9.672  10.189  0.0463 -0.1430  0.0628
  313loPI   C3B 5007   5.452   9.690   9.806  0.1187 -0.1004 -0.0699
  313loPI   C4B 5008   5.592   9.737   9.415  0.1977 -0.0705  0.0267
  314loPI    C1 5009  16.826  15.395  11.718  0.0500 -0.1998  0.0405
  314loPI    C2 5010  16.531  15.445  11.452  0.2296  0.0114 -0.1232
  314loPI    C3 5011  16.446  15.416  11.842 -0.0176 -0.0770 -0.1816
  314loPI   PO4 5012  17.023  15.280  11.668 -0.2294 -0.5420  0.2295
  314loPI   GL1 5013  17.244  14.985  11.331  0.1268 -0.0325 -0.1256
  314loPI   GL2 5014  16.974  15.080  11.233  0.4089  0.0852  0.1683
  314loPI   C1A 5015  17.224  14.748  10.940  0.2043  0.1024  0.1679
  314loPI   C2A 5016  17.224  14.745  10.415  0.3089  0.1730  0.0581
  314loPI   C3A 5017  17.174  14.806   9.963 -0.1299  0.1075  0.0746
  314loPI   C4A 5018  17.213  14.757   9.591  0.1241 -0.0707 -0.0753
  314loPI   C5A 5019  17.298  14.763   9.194  0.0834 -0.0842  0.0443
  314loPI   C6A 5020  17.350  14.676   8.676 -0.1537 -0.2073  0.1496
  314loPI   C1B 5021  17.151  15.237  10.752 -0.1587  0.3042  0.1317
  314loPI   C2B 5022  17.219  15.308  10.335  0.0185 -0.0297 -0.1038
  314loPI   C3B 5023  17.304  15.335   9.832  0.1870 -0.2199  0.1103
  314loPI   C4B 5024  17.278  15.452   9.344  0.2687  0.2277 -0.2645
  315loPI    C1 5025  10.110   3.128  11.478 -0.0353  0.0516 -0.0602
  315loPI    C2 5026  10.382   3.414  11.544 -0.0599  0.1667 -0.4347
  315loPI    C3 5027  10.041   3.409  11.754  0.1166  0.1717 -0.1434
  315loPI   PO4 5028  10.201   3.117  11.185  0.2512  0.0397 -0.2682
  315loPI   GL1 5029  10.168   3.169  10.720 -0.0006  0.0836  0.0149
  315loPI   GL2 5030  10.049   2.827  10.749  0.0203  0.0755 -0.0181
  315loPI   C1A 5031  10.243   3.322  10.290 -0.0612  0.2306  0.1270
  315loPI   C2A 5032  10.397   3.203   9.868  0.0176 -0.0677  0.1081
  315loPI   C3A 5033  10.250   3.272   9.495 -0.1821  0.0116  0.0506
  315loPI   C4A 5034  10.444   3.419   9.111  0.1388  0.0640 -0.3133
  315loPI   C5A 5035  10.419   3.234   8.734  0.3028 -0.0266  0.0001
  315loPI   C6A 5036  10.352   3.497   8.405 -0.1714  0.1799  0.0909
  315loPI   C1B 5037  10.037   2.882  10.349 -0.1468  0.1830 -0.0073
  315loPI   C2B 5038  10.023   2.838   9.896  0.0124 -0.1409  0.0322
  315loPI   C3B 5039  10.078   2.817   9.480  0.0950  0.0390  0.1494
  315loPI   C4B 5040   9.937   2.850   9.044  0.0346 -0.1286 -0.2234
  316loPI    C1 5041  16.230  12.527  11.783 -0.0291  0.2925  0.0449
  316loPI    C2 5042  16.464  12.418  12.088  0.0245 -0.0348 -0.1084
  316loPI    C3 5043  16.093  12.272  12.058 -0.0338  0.1136 -0.1213
  316loPI   PO4 5044  16.360  12.334  11.542 -0.0041  0.1142 -0.0956
  316loPI   GL1 5045  16.363  12.134  11.164 -0.1865 -0.5204  0.1915
  316loPI   GL2 5046  16.076  11.979  11.172 -0.2368  0.0052  0.2521
  316loPI   C1A 5047  16.281  12.078  10.709 -0.3396  0.1670 -0.0934
  316loPI   C2A 5048  16.260  12.082  10.283 -0.3809 -0.0600  0.0811
  316loPI   C3A 5049  16.302  12.060   9.777 -0.1019 -0.1333  0.1790
  316loPI   C4A 5050  16.314  12.084   9.284  0.0060 -0.1986  0.1520
  316loPI   C5A 5051  16.354  12.476   9.029  0.0605  0.1522  0.2290
  316loPI   C6A 5052  16.267  12.651   8.680 -0.1410  0.3354 -0.0756
  316loPI   C1B 5053  15.817  11.794  10.744 -0.1113  0.0129 -0.2201
  316loPI   C2B 5054  15.782  11.935  10.328  0.1645  0.0062 -0.3634
  316loPI   C3B 5055  15.799  11.935   9.897 -0.2249 -0.0201 -0.1077
  316loPI   C4B 5056  15.852  11.885   9.396  0.1130 -0.3875  0.0953
  317loPI    C1 5057  10.869   1.151  11.707 -0.0872 -0.0132 -0.0676
  317loPI    C2 5058  10.654   1.486  11.668  0.0383  0.0884  0.0987
  317loPI    C3 5059  10.844   1.409  12.012 -0.0870 -0.2124  0.1032
  317loPI   PO4 5060  10.975   1.149  11.444 -0.0620  0.0545 -0.0641
  317loPI   GL1 5061  10.963   1.075  11.076  0.0572  0.0872  0.1313
  317loPI   GL2 5062  11.182   0.894  10.991  0.2367  0.2906 -0.1165
  317loPI   C1A 5063  10.974   1.168  10.559 -0.2541 -0.0267  0.1270
  317loPI   C2A 5064  10.865   1.260  10.074 -0.0004  0.3880  0.3854
  317loPI   C3A 5065  11.029   1.177   9.698 -0.0329  0.1663  0.0253
  317loPI   C4A 5066  11.014   1.335   9.281 -0.2926 -0.0420 -0.0159
  317loPI   C5A 5067  10.956   1.536   8.899 -0.1277  0.1443 -0.0327
  317loPI   C6A 5068  10.959   1.982   8.850  0.0870  0.2098 -0.0574
  317loPI   C1B 5069  11.422   0.849  10.712  0.1989 -0.1551 -0.0869
  317loPI   C2B 5070  11.425   0.901  10.257  0.0398 -0.3808  0.0133
  317loPI   C3B 5071  11.432   0.970   9.836 -0.0599  0.2083  0.0334
  317loPI   C4B 5072  11.393   1.036   9.337 -0.0333  0.2446 -0.0743
  318loPI    C1 5073  11.237   8.021  11.647  0.1706  0.0011  0.3770
  318loPI    C2 5074  10.847   8.108  11.634  0.1203 -0.2596 -0.0578
  318loPI    C3 5075  10.993   7.889  11.935 -0.0503 -0.0892  0.1519
  318loPI   PO4 5076  11.255   8.138  11.439 -0.5003 -0.0339 -0.1285
  318loPI   GL1 5077  11.088   8.400  11.106  0.2416 -0.0017  0.2040
  318loPI   GL2 5078  11.032   8.567  10.872  0.2728  0.3205  0.1573
  318loPI   C1A 5079  11.081   8.115  10.664  0.0091 -0.0573 -0.0802
  318loPI   C2A 5080  11.111   8.078  10.264  0.0060  0.1673 -0.0400
  318loPI   C3A 5081  11.128   8.058   9.962 -0.3238 -0.0848  0.0896
  318loPI   C4A 5082  11.248   8.057   9.539  0.2775 -0.1509  0.0745
  318loPI   C5A 5083  11.311   8.064   9.050 -0.0333 -0.0609 -0.0584
  318loPI   C6A 5084  11.265   8.068   8.564  0.0165 -0.0142 -0.1834
  318loPI   C1B 5085  11.181   8.555  10.427  0.1484 -0.2723 -0.2510
  318loPI   C2B 5086  11.210   8.575  10.047  0.2570  0.0934 -0.0683
  318loPI   C3B 5087  11.251   8.537   9.631 -0.4643  0.2760 -0.1532
  318loPI   C4B 5088  11.290   8.641   9.300 -0.2003 -0.0844  0.0341
  319loPI    C1 5089   8.348  10.565  11.437  0.1244  0.1343 -0.1637
  319loPI    C2 5090   8.059  10.670  11.693  0.0167 -0.1352 -0.1714
  319loPI    C3 5091   8.315  10.378  11.789  0.2967  0.1086 -0.1604
  319loPI   PO4 5092   8.433  10.792  11.328  0.0692  0.1364 -0.1896
  319loPI   GL1 5093   8.630  10.831  10.981  0.1657 -0.0444  0.1088
  319loPI   GL2 5094   8.552  11.096  10.834 -0.3802 -0.1134  0.0666
  319loPI   C1A 5095   8.385  10.647  10.646 -0.1814  0.3177 -0.2812
  319loPI   C2A 5096   8.367  10.601  10.181 -0.0236  0.0703  0.1127
  319loPI   C3A 5097   8.371  10.673   9.690 -0.0097 -0.2032 -0.1233
  319loPI   C4A 5098   8.292  10.850   9.311 -0.0445  0.0843 -0.0286
  319loPI   C5A 5099   8.063  10.706   8.875  0.1113 -0.1194 -0.1129
  319loPI   C6A 5100   7.868  10.481   8.449 -0.0128  0.0174  0.2922
  319loPI   C1B 5101   8.707  11.020  10.461  0.1205 -0.1822  0.0216
  319loPI   C2B 5102   8.681  11.080   9.944 -0.0586  0.1720  0.1698
  319loPI   C3B 5103   8.753  11.084   9.490 -0.1186  0.1671  0.0451
  319loPI   C4B 5104   8.953  11.111   9.027  0.1647 -0.1610 -0.0312
  320loPI    C1 5105  14.784   8.379  11.911  0.1255 -0.1191  0.2884
  320loPI    C2 5106  14.871   8.750  12.033  0.0147  0.0264 -0.0622
  320loPI    C3 5107  14.635   8.517  12.255 -0.0334  0.2179  0.0902
  320loPI   PO4 5108  14.841   8.410  11.626  0.0462 -0.0396 -0.1395
  320loPI   GL1 5109  14.679   8.472  11.200 -0.2719 -0.0308  0.0504
  320loPI   GL2 5110  14.938   8.665  11.125 -0.0525 -0.0341  0.1964
  320loPI   C1A 5111  14.747   8.506  10.707  0.3276 -0.0466 -0.0133
  320loPI   C2A 5112  14.864   8.652  10.287 -0.0334  0.1475  0.1366
  320loPI   C3A 5113  14.863   8.614   9.799 -0.0162  0.2710  0.1329
  320loPI   C4A 5114  14.881   8.633   9.323 -0.0488  0.0101  0.0406
  320loPI   C5A 5115  14.585   8.597   8.946 -0.0029 -0.1591 -0.4629
  320loPI   C6A 5116  14.360   8.825   8.704  0.2674 -0.4503 -0.1016
  320loPI   C1B 5117  15.176   8.752  10.723 -0.1043  0.0768  0.2391
  320loPI   C2B 5118  15.280   8.896  10.324 -0.0108  0.0874 -0.0945
  320loPI   C3B 5119  15.291   8.785   9.973  0.0128  0.3286  0.0611
  320loPI   C4B 5120  15.279   8.823   9.618  0.2273  0.1144  0.2356
  321loPI    C1 5121  11.079  13.763  11.641  0.1499  0.1340 -0.0076
  321loPI    C2 5122  11.035  13.987  11.969 -0.1217 -0.0090  0.0563
  321loPI    C3 5123  11.207  13.627  11.994 -0.1273 -0.0129  0.0396
  321loPI   PO4 5124  11.099  13.996  11.479 -0.0908  0.0219 -0.0069
  321loPI   GL1 5125  11.260  13.789  11.190  0.2101 -0.2344  0.6932
  321loPI   GL2 5126  11.428  14.093  11.072  0.3474  0.0144  0.0118
  321loPI   C1A 5127  11.093  13.882  10.786  0.2301 -0.2765  0.0690
  321loPI   C2A 5128  11.030  13.912  10.377 -0.1463  0.2155  0.3066
  321loPI   C3A 5129  11.048  13.905   9.925 -0.0618 -0.0258  0.3263
  321loPI   C4A 5130  11.268  13.847   9.582 -0.0220 -0.0962  0.0484
  321loPI   C5A 5131  11.388  13.789   9.101 -0.0419  0.0497  0.0988
  321loPI   C6A 5132  11.063  13.961   8.688 -0.1230 -0.1216 -0.0926
  321loPI   C1B 5133  11.569  14.012  10.683 -0.0674 -0.3166  0.0185
  321loPI   C2B 5134  11.631  14.061  10.211 -0.2064 -0.2238 -0.0782
  321loPI   C3B 5135  11.610  14.079   9.819  0.0488 -0.1316  0.0159
  321loPI   C4B 5136  11.699  14.024   9.395  0.0027 -0.2983  0.2527
  322loPI    C1 5137  11.308  17.110  11.497  0.1946 -0.2004 -0.0089
  322loPI    C2 5138  10.938  16.965  11.545  0.1258 -0.1129 -0.2588
  322loPI    C3 5139  11.149  17.084  11.863 -0.0733 -0.1319 -0.1180
  322loPI   PO4 5140  11.434  16.870  11.337 -0.0946 -0.2521  0.1763
  322loPI   GL1 5141  11.576  16.840  10.907 -0.0272  0.2549  0.1463
  322loPI   GL2 5142  11.478  16.579  10.878 -0.0759 -0.3654 -0.1315
  322loPI   C1A 5143  11.616  16.941  10.488  0.0833 -0.0399  0.1578
  322loPI   C2A 5144  11.677  16.993  10.022 -0.1248 -0.1801  0.0598
  322loPI   C3A 5145  11.647  16.980   9.512 -0.0091 -0.0630 -0.1527
  322loPI   C4A 5146  11.796  17.091   9.073  0.0236  0.2165  0.3553
  322loPI   C5A 5147  11.744  17.471   8.876  0.1601  0.1218  0.0115
  322loPI   C6A 5148  11.514  17.691   8.716 -0.0476 -0.2523  0.0177
  322loPI   C1B 5149  11.253  16.596  10.604  0.0905  0.3656 -0.1560
  322loPI   C2B 5150  11.311  16.654  10.205 -0.2349  0.1985  0.2676
  322loPI   C3B 5151  11.389  16.573   9.708  0.0967 -0.0310  0.0328
  322loPI   C4B 5152  11.600  16.452   9.343 -0.0987 -0.4873 -0.3328
  323loPI    C1 5153   3.534   1.500  11.658 -0.0962  0.3376  0.2084
  323loPI    C2 5154   3.665   1.427  12.029 -0.0511 -0.0703  0.1164
  323loPI    C3 5155   3.333   1.248  11.894 -0.0821  0.0962 -0.0323
  323loPI   PO4 5156   3.705   1.404  11.477 -0.1558  0.0979  0.0131
  323loPI   GL1 5157   3.636   1.097  11.170 -0.0430 -0.2436  0.1021
  323loPI   GL2 5158   3.874   1.319  10.978 -0.0357  0.0480  0.2344
  323loPI   C1A 5159   3.576   1.059  10.657 -0.2075  0.1679  0.1576
  323loPI   C2A 5160   3.628   1.009  10.270 -0.1393 -0.3352  0.1868
  323loPI   C3A 5161   3.688   1.140   9.847  0.0086  0.0971 -0.5052
  323loPI   C4A 5162   3.639   1.259   9.390  0.0270 -0.2282 -0.1010
  323loPI   C5A 5163   3.623   1.695   9.181 -0.0069  0.0493  0.3166
  323loPI   C6A 5164   3.476   1.928   8.811  0.0683 -0.2866  0.0762
  323loPI   C1B 5165   3.962   1.410  10.473  0.1841 -0.0823  0.0239
  323loPI   C2B 5166   4.047   1.548  10.042  0.3115 -0.1201 -0.1377
  323loPI   C3B 5167   3.986   1.632   9.668  0.0880 -0.0929  0.2603
  323loPI   C4B 5168   4.091   1.675   9.155 -0.1835  0.1399 -0.0533
  324loPI    C1 5169   2.389  15.493  11.697 -0.0145 -0.0028  0.0236
  324loPI    C2 5170   2.473  15.662  12.050 -0.1806  0.0903  0.0201
  324loPI    C3 5171   2.634  15.309  11.953 -0.0004  0.1445  0.1175
  324loPI   PO4 5172   2.506  15.632  11.496 -0.1620  0.0125 -0.0503
  324loPI   GL1 5173   2.667  15.690  11.159  0.1263  0.1754  0.0337
  324loPI   GL2 5174   2.321  15.714  11.023  0.1474 -0.2912 -0.1909
  324loPI   C1A 5175   2.719  15.886  10.754  0.1302  0.0933  0.0171
  324loPI   C2A 5176   2.765  15.952  10.295 -0.0885 -0.0188 -0.2913
  324loPI   C3A 5177   2.803  15.863   9.915  0.0384  0.0261  0.0070
  324loPI   C4A 5178   2.768  15.935   9.494  0.1623 -0.0581 -0.2896
  324loPI   C5A 5179   2.821  16.002   9.116  0.1162  0.0426 -0.2271
  324loPI   C6A 5180   2.818  16.396   8.800  0.0148 -0.0541 -0.1240
  324loPI   C1B 5181   2.305  15.695  10.524  0.0025  0.1392 -0.1487
  324loPI   C2B 5182   2.352  15.743  10.110 -0.1610 -0.0967  0.0202
  324loPI   C3B 5183   2.296  15.773   9.659 -0.0140  0.2221  0.1849
  324loPI   C4B 5184   2.307  15.755   9.293  0.1859  0.0535  0.3378
  325loPI    C1 5185  10.581   6.421  11.348  0.0889 -0.0612  0.0057
  325loPI    C2 5186  10.335   6.439  11.033  0.2165 -0.0599 -0.0941
  325loPI    C3 5187  10.184   6.411  11.402  0.0583  0.2952 -0.1270
  325loPI   PO4 5188  10.920   6.560  11.290  0.3124 -0.2712  0.2019
  325loPI   GL1 5189  10.791   6.579  10.808 -0.0107  0.0671 -0.3521
  325loPI   GL2 5190  10.784   6.283  10.903 -0.2038  0.0348  0.0842
  325loPI   C1A 5191  10.817   6.483  10.394 -0.2463  0.2276 -0.0728
  325loPI   C2A 5192  10.928   6.540  10.013 -0.1177  0.3176 -0.1922
  325loPI   C3A 5193  10.856   6.518   9.576  0.0375 -0.1408  0.3693
  325loPI   C4A 5194  10.900   6.542   9.142  0.1370  0.0225  0.0262
  325loPI   C5A 5195  11.123   6.317   8.864  0.3198 -0.1394  0.0397
  325loPI   C6A 5196  11.347   6.182   8.514  0.0035  0.1803  0.0419
  325loPI   C1B 5197  11.014   6.026  10.581 -0.1164 -0.1453 -0.1797
  325loPI   C2B 5198  11.156   6.041  10.181 -0.0310 -0.4175 -0.1142
  325loPI   C3B 5199  11.196   6.191   9.724 -0.2417  0.2049 -0.0220
  325loPI   C4B 5200  11.336   6.226   9.338 -0.0337 -0.0220 -0.0064
  326loPI    C1 5201  13.934   8.038  11.684  0.1446 -0.0086  0.2421
  326loPI    C2 5202  13.760   8.362  11.528  0.4084  0.1137  0.1957
  326loPI    C3 5203  13.599   8.182  11.847 -0.1348 -0.1353 -0.2024
  326loPI   PO4 5204  13.994   7.848  11.457  0.0372 -0.1338 -0.0013
  326loPI   GL1 5205  13.919   8.126  11.135 -0.0396 -0.1964  0.0046
  326loPI   GL2 5206  14.170   8.108  11.046  0.2889 -0.3660  0.1955
  326loPI   C1A 5207  13.746   8.182  10.744 -0.3912  0.1931  0.0500
  326loPI   C2A 5208  13.903   8.248  10.292 -0.1730  0.1970 -0.1774
  326loPI   C3A 5209  13.868   8.213   9.805  0.1880 -0.1128  0.2151
  326loPI   C4A 5210  13.896   8.203   9.310  0.1726  0.1281  0.1554
  326loPI   C5A 5211  13.897   8.125   8.922  0.0891  0.1576  0.0931
  326loPI   C6A 5212  13.963   8.276   8.550  0.0654  0.0585 -0.1518
  326loPI   C1B 5213  14.209   7.885  10.665 -0.2786 -0.0568 -0.0363
  326loPI   C2B 5214  14.208   7.906  10.183 -0.0643 -0.1777 -0.0695
  326loPI   C3B 5215  14.248   7.925   9.651 -0.0149 -0.1580  0.0706
  326loPI   C4B 5216  14.144   7.702   9.181  0.3012  0.1694 -0.2171
  327loPI    C1 5217   1.743  11.261  12.086 -0.0462  0.1228  0.3696
  327loPI    C2 5218   2.021  11.035  12.263  0.2346  0.1105 -0.0722
  327loPI    C3 5219   2.051  11.434  12.275  0.1892  0.1118  0.0057
  327loPI   PO4 5220   1.618  11.018  11.984  0.2802 -0.1757 -0.2610
  327loPI   GL1 5221   1.496  10.973  11.582  0.0829 -0.2671 -0.1679
  327loPI   GL2 5222   1.331  10.709  11.536  0.0404 -0.0716 -0.3460
  327loPI   C1A 5223   1.381  11.253  11.249 -0.1292 -0.2035 -0.1915
  327loPI   C2A 5224   1.231  11.445  10.886  0.0833 -0.1889  0.1735
  327loPI   C3A 5225   1.142  11.540  10.540 -0.2732 -0.1406  0.3576
  327loPI   C4A 5226   1.145  11.508  10.064  0.1899 -0.1461  0.0829
  327loPI   C5A 5227   1.103  11.467   9.585  0.3116 -0.2323 -0.0634
  327loPI   C6A 5228   1.100  11.501   9.160  0.0508  0.2666 -0.1085
  327loPI   C1B 5229   1.405  10.628  11.029  0.0153 -0.1025  0.0037
  327loPI   C2B 5230   1.496  10.613  10.642 -0.2929 -0.0664  0.2421
  327loPI   C3B 5231   1.459  10.662  10.168  0.1771 -0.1454  0.1831
  327loPI   C4B 5232   1.437  10.594   9.722 -0.1519 -0.2999 -0.1996
  328loPI    C1 5233  16.148   3.172  11.700 -0.0536 -0.0620 -0.1156
  328loPI    C2 5234  16.211   3.564  11.746 -0.0262 -0.0913  0.1063
  328loPI    C3 5235  15.888   3.393  11.907 -0.1060 -0.1379 -0.1000
  328loPI   PO4 5236  16.126   3.164  11.501 -0.2334 -0.0616  0.0636
  328loPI   GL1 5237  16.115   3.374  11.133  0.1995  0.1740 -0.0020
  328loPI   GL2 5238  16.387   3.289  11.080 -0.0046 -0.3777  0.0842
  328loPI   C1A 5239  15.839   3.208  10.847 -0.1315 -0.0088 -0.1022
  328loPI   C2A 5240  15.802   3.146  10.463  0.1888 -0.0630 -0.1555
  328loPI   C3A 5241  15.855   3.111   9.967 -0.1088 -0.2250  0.1321
  328loPI   C4A 5242  15.703   3.294   9.632 -0.3668  0.1546 -0.1642
  328loPI   C5A 5243  15.773   3.211   9.205  0.1235  0.3200  0.0323
  328loPI   C6A 5244  15.802   3.272   8.729  0.1470  0.0119  0.0511
  328loPI   C1B 5245  16.292   3.316  10.656 -0.1340 -0.2654  0.2475
  328loPI   C2B 5246  16.241   3.332  10.243  0.0955 -0.1807 -0.1066
  328loPI   C3B 5247  16.242   3.337   9.809 -0.1203  0.1683 -0.1904
  328loPI   C4B 5248  16.242   3.467   9.403 -0.0006 -0.0657 -0.0070
  329loPI    C1 5249   5.518   5.736  11.342  0.0374  0.0400 -0.0273
  329loPI    C2 5250   5.486   5.413  11.576 -0.0799  0.1002  0.0410
  329loPI    C3 5251   5.527   5.775  11.740  0.0873  0.1170 -0.0358
  329loPI   PO4 5252   5.739   5.732  11.218 -0.1529  0.1169 -0.0041
  329loPI   GL1 5253   5.766   5.896  10.878  0.1051 -0.1738  0.1295
  329loPI   GL2 5254   5.617   6.109  10.716 -0.3432  0.2634 -0.0117
  329loPI   C1A 5255   6.075   5.938  10.487  0.1581 -0.0221  0.0342
  329loPI   C2A 5256   6.097   6.050  10.081  0.0766  0.2418 -0.1183
  329loPI   C3A 5257   6.083   5.971   9.675  0.2322 -0.5981  0.1524
  329loPI   C4A 5258   6.191   5.999   9.221  0.3035 -0.0471 -0.1555
  329loPI   C5A 5259   6.021   5.684   8.859  0.0947 -0.1918 -0.0706
  329loPI   C6A 5260   5.588   5.715   8.743  0.0055 -0.1218 -0.1414
  329loPI   C1B 5261   5.619   6.021  10.335  0.1838 -0.1367 -0.1838
  329loPI   C2B 5262   5.643   6.063   9.839 -0.1991  0.0524  0.0998
  329loPI   C3B 5263   5.566   6.157   9.392 -0.1936 -0.2606  0.0372
  329loPI   C4B 5264   5.291   6.108   8.973  0.0864  0.3896  0.1339
  330loPI    C1 5265   1.579   5.304  11.676  0.2319  0.0482 -0.0941
  330loPI    C2 5266   1.783   5.128  11.972 -0.0846 -0.1507  0.0111
  330loPI    C3 5267   1.536   5.433  12.052  0.1681  0.0929 -0.1166
  330loPI   PO4 5268   1.671   5.306  11.473  0.1064  0.0955  0.2329
  330loPI   GL1 5269   1.490   5.069  11.066  0.1102  0.1945  0.2717
  330loPI   GL2 5270   1.573   4.829  10.919  0.0820 -0.0573 -0.0736
  330loPI   C1A 5271   1.209   5.165  10.769  0.3171 -0.1168  0.0760
  330loPI   C2A 5272   1.159   5.210  10.421 -0.1034  0.0832 -0.1538
  330loPI   C3A 5273   1.130   5.165   9.981  0.1854 -0.0973 -0.0124
  330loPI   C4A 5274   1.182   5.250   9.574 -0.1321  0.0164  0.0312
  330loPI   C5A 5275   1.145   5.224   9.120  0.0934 -0.1532 -0.2507
  330loPI   C6A 5276   1.371   5.094   8.867 -0.0397 -0.0913 -0.0950
  330loPI   C1B 5277   1.524   4.842  10.544  0.0219 -0.0275 -0.2282
  330loPI   C2B 5278   1.513   4.859  10.071  0.0668  0.1110 -0.0274
  330loPI   C3B 5279   1.536   4.849   9.695  0.0491 -0.1496 -0.0597
  330loPI   C4B 5280   1.430   4.830   9.268 -0.1979 -0.1837 -0.1579
  331loPI    C1 5281   3.480   7.979  11.547 -0.1025  0.0410 -0.1613
  331loPI    C2 5282   3.397   8.103  11.918 -0.3221 -0.2789 -0.0989
  331loPI    C3 5283   3.474   8.370  11.630 -0.2059 -0.0262  0.1611
  331loPI   PO4 5284   3.227   7.805  11.371  0.0929 -0.0575  0.5534
  331loPI   GL1 5285   3.057   7.956  10.930  0.1969 -0.2672  0.1551
  331loPI   GL2 5286   3.042   8.265  10.817  0.2244  0.1184  0.3374
  331loPI   C1A 5287   2.926   7.748  10.608 -0.0340 -0.4440 -0.2272
  331loPI   C2A 5288   2.908   7.693  10.095  0.1166  0.1072 -0.0786
  331loPI   C3A 5289   2.851   7.661   9.646  0.0682 -0.0490 -0.0123
  331loPI   C4A 5290   2.765   7.710   9.325  0.2216 -0.0014  0.2169
  331loPI   C5A 5291   2.933   7.786   8.953  0.0840 -0.0577  0.2002
  331loPI   C6A 5292   3.231   8.080   8.765  0.2618 -0.2582 -0.2209
  331loPI   C1B 5293   3.121   8.211  10.409 -0.0140  0.0248 -0.3544
  331loPI   C2B 5294   3.077   8.364   9.959  0.2448  0.0594  0.1019
  331loPI   C3B 5295   2.916   8.190   9.562 -0.0831 -0.0565 -0.0959
  331loPI   C4B 5296   2.846   8.215   9.146 -0.0705  0.2154 -0.1173
  332loPI    C1 5297  14.470  13.728  11.769 -0.3947 -0.0953 -0.0566
  332loPI    C2 5298  14.204  13.936  11.982 -0.2883 -0.0768  0.0597
  332loPI    C3 5299  14.276  13.553  12.072 -0.2649 -0.0775  0.0379
  332loPI   PO4 5300  14.462  13.792  11.527  0.0186 -0.1031  0.3021
  332loPI   GL1 5301  14.667  13.677  11.126 -0.1118 -0.2156  0.2364
  332loPI   GL2 5302  14.616  13.350  11.116  0.1586  0.2148  0.1293
  332loPI   C1A 5303  14.750  13.723  10.677 -0.0655 -0.2837  0.0503
  332loPI   C2A 5304  14.736  13.802  10.242 -0.2822  0.1949  0.1436
  332loPI   C3A 5305  14.829  13.877   9.874 -0.2449  0.0334  0.3431
  332loPI   C4A 5306  14.879  13.877   9.490  0.1713  0.3204 -0.0118
  332loPI   C5A 5307  14.829  13.769   9.079 -0.2903  0.0900 -0.1729
  332loPI   C6A 5308  14.566  13.547   8.769 -0.0028 -0.1021  0.0940
  332loPI   C1B 5309  14.594  13.264  10.743  0.4751  0.0423  0.4151
  332loPI   C2B 5310  14.675  13.312  10.275 -0.0797  0.0138  0.0793
  332loPI   C3B 5311  14.684  13.377   9.824 -0.2561  0.1887  0.2387
  332loPI   C4B 5312  14.766  13.320   9.340  0.0406 -0.1652  0.0092
  333loPI    C1 5313  10.056   3.611  11.205  0.0651  0.1174  0.3378
  333loPI    C2 5314   9.757   3.411  11.380 -0.1014  0.0541 -0.0105
  333loPI    C3 5315   9.830   3.791  11.481  0.0351 -0.0874  0.4496
  333loPI   PO4 5316   9.949   3.602  10.904 -0.0162 -0.3727  0.2158
  333loPI   GL1 5317  10.076   3.699  10.578  0.1541  0.1744  0.3753
  333loPI   GL2 5318   9.658   3.767  10.583 -0.2674 -0.3073  0.1516
  333loPI   C1A 5319  10.103   3.793  10.227  0.0843  0.1247  0.1201
  333loPI   C2A 5320  10.069   3.685   9.857 -0.3579  0.0905  0.1296
  333loPI   C3A 5321  10.121   3.744   9.439 -0.0257  0.1117 -0.2791
  333loPI   C4A 5322  10.171   3.940   9.053 -0.0555  0.1712 -0.1739
  333loPI   C5A 5323  10.316   4.298   8.964 -0.1839 -0.0315 -0.1158
  333loPI   C6A 5324  10.262   4.529   8.571 -0.0079 -0.3046  0.3007
  333loPI   C1B 5325   9.571   3.796  10.142 -0.0710 -0.0962 -0.1889
  333loPI   C2B 5326   9.638   3.813   9.704  0.2408 -0.0913 -0.2125
  333loPI   C3B 5327   9.650   3.812   9.265 -0.0922  0.2067  0.1009
  333loPI   C4B 5328   9.539   3.897   8.851  0.3715 -0.1683  0.1780
  334loPI    C1 5329   9.419   9.086  11.420 -0.1526  0.0863  0.0558
  334loPI    C2 5330   9.192   9.050  11.747 -0.1184  0.0796  0.0788
  334loPI    C3 5331   9.456   9.349  11.720  0.0924 -0.0935  0.1871
  334loPI   PO4 5332   9.228   8.895  11.266  0.0203  0.1700 -0.1179
  334loPI   GL1 5333   8.913   8.754  10.944  0.4012 -0.0684  0.0893
  334loPI   GL2 5334   8.912   8.413  10.829 -0.1352 -0.1798  0.0846
  334loPI   C1A 5335   9.000   8.784  10.459  0.3786 -0.1334  0.1419
  334loPI   C2A 5336   8.989   8.819  10.062  0.1744  0.1268  0.0443
  334loPI   C3A 5337   8.984   8.742   9.640  0.0149 -0.1263  0.0627
  334loPI   C4A 5338   8.997   8.670   9.137 -0.1460 -0.1032 -0.3302
  334loPI   C5A 5339   9.054   8.786   8.720 -0.0746 -0.2362 -0.0824
  334loPI   C6A 5340   9.111   9.220   8.587  0.1307 -0.0538 -0.0667
  334loPI   C1B 5341   8.618   8.352  10.415  0.1199 -0.0699 -0.3746
  334loPI   C2B 5342   8.682   8.468   9.940  0.0555  0.3276 -0.0003
  334loPI   C3B 5343   8.599   8.414   9.563 -0.0068 -0.0006 -0.1321
  334loPI   C4B 5344   8.492   8.447   9.115 -0.0216 -0.3509  0.0194
  335loPI    C1 5345   5.888   4.636  11.204 -0.1416 -0.0411  0.0722
  335loPI    C2 5346   5.680   4.451  11.490 -0.0091  0.2080  0.3357
  335loPI    C3 5347   6.059   4.558  11.557  0.0171  0.2860  0.0721
  335loPI   PO4 5348   5.626   4.725  11.036 -0.0055  0.1288 -0.2396
  335loPI   GL1 5349   5.404   4.662  10.747 -0.0240  0.2597  0.1562
  335loPI   GL2 5350   5.224   4.687  10.480 -0.0854 -0.0628  0.4162
  335loPI   C1A 5351   5.675   4.631  10.365 -0.0520  0.0665  0.5157
  335loPI   C2A 5352   5.648   4.715   9.916 -0.1421  0.1915 -0.1914
  335loPI   C3A 5353   5.566   4.703   9.491 -0.0817  0.2519  0.0013
  335loPI   C4A 5354   5.694   4.716   9.121 -0.0765 -0.0563  0.0786
  335loPI   C5A 5355   5.546   4.662   8.785  0.0509  0.0451  0.1665
  335loPI   C6A 5356   5.056   4.526   8.800  0.2547  0.1656  0.2067
  335loPI   C1B 5357   5.208   4.733  10.133 -0.2383  0.0880 -0.1826
  335loPI   C2B 5358   5.075   4.702   9.713  0.1302 -0.1053  0.1840
  335loPI   C3B 5359   4.868   4.698   9.382  0.1130 -0.0379  0.0758
  335loPI   C4B 5360   4.610   4.821   8.986  0.0040 -0.2650 -0.1917
  336loPI    C1 5361   2.926   3.494  11.767 -0.1270 -0.0314 -0.1665
  336loPI    C2 5362   2.681   3.486  12.083  0.2500 -0.0559  0.1323
  336loPI    C3 5363   2.915   3.804  12.019  0.1155 -0.0155 -0.1731
  336loPI   PO4 5364   2.809   3.490  11.576  0.2793  0.1922 -0.1042
  336loPI   GL1 5365   2.930   3.452  11.128  0.1113  0.1427 -0.0272
  336loPI   GL2 5366   3.113   3.590  10.973  0.0306  0.1713 -0.1371
  336loPI   C1A 5367   2.620   3.259  10.879  0.2621 -0.1995 -0.1861
  336loPI   C2A 5368   2.586   3.252  10.373 -0.1299  0.0582 -0.0693
  336loPI   C3A 5369   2.545   3.334   9.908  0.1979 -0.1997  0.1134
  336loPI   C4A 5370   2.861   3.310   9.555 -0.0528 -0.0959  0.0038
  336loPI   C5A 5371   3.030   3.411   9.065 -0.0078 -0.2057  0.0355
  336loPI   C6A 5372   3.189   3.751   8.736 -0.0244 -0.3459  0.4278
  336loPI   C1B 5373   3.072   3.405  10.585 -0.1116  0.1432 -0.1642
  336loPI   C2B 5374   3.053   3.369  10.063 -0.0711  0.1513 -0.4277
  336loPI   C3B 5375   3.270   3.113   9.724  0.1018  0.1641  0.0153
  336loPI   C4B 5376   3.437   3.060   9.301 -0.1390 -0.1982  0.0948
  337loPI    C1 5377   4.654  12.730  11.767 -0.0525 -0.0003 -0.1720
  337loPI    C2 5378   4.597  12.953  12.094 -0.0922 -0.0216 -0.1643
  337loPI    C3 5379   4.552  12.556  12.112 -0.1046 -0.0218 -0.1980
  337loPI   PO4 5380   4.848  12.781  11.603 -0.1494  0.0209 -0.1707
  337loPI   GL1 5381   4.684  12.845  11.243 -0.0394 -0.0054  0.0089
  337loPI   GL2 5382   5.004  12.827  11.116 -0.0619  0.2461 -0.1595
  337loPI   C1A 5383   4.646  12.681  10.740  0.1866 -0.2497  0.2783
  337loPI   C2A 5384   4.665  12.747  10.272  0.0532 -0.2847 -0.1267
  337loPI   C3A 5385   4.599  12.758   9.861  0.1409  0.1346 -0.2345
  337loPI   C4A 5386   4.542  12.701   9.504  0.0669  0.1006 -0.1017
  337loPI   C5A 5387   4.721  12.701   9.088 -0.0271 -0.0245 -0.1663
  337loPI   C6A 5388   4.758  12.893   8.739  0.0881  0.1399 -0.2932
  337loPI   C1B 5389   5.131  12.943  10.697 -0.1070 -0.2187  0.1679
  337loPI   C2B 5390   5.193  13.008  10.217 -0.1447  0.2770  0.0847
  337loPI   C3B 5391   5.078  12.977   9.765 -0.0855 -0.0149  0.4393
  337loPI   C4B 5392   5.062  12.971   9.341  0.1145 -0.2729  0.0415
  338loPI    C1 5393  12.069   7.731  11.611 -0.2875  0.0204 -0.0831
  338loPI    C2 5394  11.710   7.898  11.669 -0.1783  0.2222  0.0244
  338loPI    C3 5395  11.966   7.864  11.974 -0.2533 -0.2824  0.0404
  338loPI   PO4 5396  12.120   7.821  11.352 -0.2258 -0.0419  0.2500
  338loPI   GL1 5397  12.166   7.763  10.971  0.1063  0.1753  0.0491
  338loPI   GL2 5398  11.941   7.928  10.867  0.0334  0.0637  0.4415
  338loPI   C1A 5399  12.349   7.570  10.554  0.2649  0.0090 -0.0019
  338loPI   C2A 5400  12.403   7.721  10.161 -0.2700  0.2871  0.0492
  338loPI   C3A 5401  12.457   7.638   9.780  0.0037 -0.0236  0.0676
  338loPI   C4A 5402  12.385   7.572   9.404 -0.1769 -0.2065  0.1693
  338loPI   C5A 5403  12.565   7.743   9.129  0.2263  0.1495 -0.2225
  338loPI   C6A 5404  12.591   8.200   9.013 -0.0098 -0.0204 -0.0937
  338loPI   C1B 5405  11.958   7.977  10.439 -0.2718  0.1923  0.1468
  338loPI   C2B 5406  12.020   8.027   9.948 -0.1292  0.0719 -0.4621
  338loPI   C3B 5407  12.142   7.936   9.553  0.1801 -0.2809 -0.2230
  338loPI   C4B 5408  12.033   7.894   9.195 -0.1540 -0.1163  0.2453
  339loPI    C1 5409   5.942   4.094  11.726  0.1805 -0.0100  0.1152
  339loPI    C2 5410   5.751   3.752  11.806 -0.1971  0.1705  0.0093
  339loPI    C3 5411   5.861   3.995  12.105  0.1861 -0.0980  0.0934
  339loPI   PO4 5412   6.012   4.056  11.374  0.0664  0.1986  0.0449
  339loPI   GL1 5413   5.940   4.148  10.955  0.0529  0.1405 -0.1431
  339loPI   GL2 5414   5.592   4.173  10.970  0.0545  0.3203 -0.0574
  339loPI   C1A 5415   6.231   4.102  10.611  0.1438  0.1499  0.0945
  339loPI   C2A 5416   6.266   4.086  10.139  0.1616  0.1474  0.1130
  339loPI   C3A 5417   6.375   4.182   9.764  0.1350  0.2342 -0.1743
  339loPI   C4A 5418   6.401   4.151   9.352  0.0310  0.2580  0.0015
  339loPI   C5A 5419   6.321   4.187   8.993  0.1442 -0.0702 -0.3146
  339loPI   C6A 5420   6.520   4.232   8.662  0.0373  0.0761 -0.0329
  339loPI   C1B 5421   5.732   4.167  10.490  0.1726  0.1676 -0.1580
  339loPI   C2B 5422   5.759   4.222  10.070 -0.1267  0.3582  0.2519
  339loPI   C3B 5423   5.884   4.325   9.639  0.2449 -0.3018 -0.4183
  339loPI   C4B 5424   5.891   4.217   9.236  0.3522 -0.0040 -0.1657
  340loPI    C1 5425   5.186  13.506  11.643  0.2339  0.1105  0.0036
  340loPI    C2 5426   4.947  13.322  11.381  0.1615  0.1952  0.0098
  340loPI    C3 5427   4.909  13.248  11.772  0.2979  0.0365 -0.0060
  340loPI   PO4 5428   5.402  13.561  11.455 -0.2593  0.0782  0.0928
  340loPI   GL1 5429   5.630  13.609  11.117  0.0851  0.2369  0.0344
  340loPI   GL2 5430   5.945  13.655  11.288 -0.0334 -0.3608 -0.0064
  340loPI   C1A 5431   5.618  13.650  10.650  0.2428 -0.2269  0.1349
  340loPI   C2A 5432   5.606  13.749  10.190  0.1312  0.1269 -0.0188
  340loPI   C3A 5433   5.703  13.660   9.692  0.0323  0.1641  0.2525
  340loPI   C4A 5434   6.015  13.384   9.528  0.0108  0.0679  0.3536
  340loPI   C5A 5435   6.190  13.198   9.227 -0.0980  0.0497  0.2815
  340loPI   C6A 5436   6.228  13.051   8.847  0.3986 -0.0609  0.3068
  340loPI   C1B 5437   6.181  13.619  10.882 -0.0463 -0.1876 -0.2334
  340loPI   C2B 5438   6.101  13.499  10.532 -0.0652 -0.0105  0.1066
  340loPI   C3B 5439   6.129  13.410  10.140 -0.0575  0.0995 -0.1729
  340loPI   C4B 5440   6.404  13.234   9.758 -0.0040  0.2649  0.2270
  341loPI    C1 5441  15.230   1.720  12.024  0.2151  0.0388 -0.0200
  341loPI    C2 5442  14.998   1.946  12.258  0.0406 -0.2347  0.0764
  341loPI    C3 5443  15.123   1.588  12.386  0.1907 -0.2590 -0.1326
  341loPI   PO4 5444  15.048   1.705  11.815 -0.0585 -0.2532 -0.0345
  341loPI   GL1 5445  15.031   1.692  11.403 -0.0283  0.1581  0.1629
  341loPI   GL2 5446  14.826   1.890  11.135  0.2295  0.4368 -0.0759
  341loPI   C1A 5447  15.144   1.579  10.946  0.0792 -0.0506 -0.1350
  341loPI   C2A 5448  15.131   1.545  10.586  0.0390  0.3908  0.2704
  341loPI   C3A 5449  15.090   1.413  10.063  0.0256 -0.0693 -0.0705
  341loPI   C4A 5450  15.040   1.441   9.591  0.0035  0.1003 -0.0371
  341loPI   C5A 5451  15.092   1.543   9.167 -0.0479 -0.2844 -0.1601
  341loPI   C6A 5452  14.788   1.859   8.958  0.2155  0.2921  0.0542
  341loPI   C1B 5453  14.671   1.867  10.660 -0.0974 -0.1767 -0.1152
  341loPI   C2B 5454  14.593   1.783  10.248  0.1296  0.2248  0.1247
  341loPI   C3B 5455  14.647   1.769   9.827  0.1145  0.1175 -0.4556
  341loPI   C4B 5456  14.635   1.701   9.435 -0.0424 -0.0737 -0.2074
  342loPI    C1 5457  15.721   1.053  11.750 -0.2707  0.1626  0.1263
  342loPI    C2 5458  15.992   0.944  12.023  0.0755  0.1627 -0.2097
  342loPI    C3 5459  15.658   0.729  11.976  0.0472  0.1197  0.1577
  342loPI   PO4 5460  15.822   1.121  11.601 -0.0231  0.1246  0.0270
  342loPI   GL1 5461  16.024   0.941  11.303 -0.1195 -0.2180  0.4156
  342loPI   GL2 5462  16.129   1.242  11.225 -0.3238  0.1893 -0.0457
  342loPI   C1A 5463  15.994   0.839  10.935 -0.1980  0.4169 -0.2276
  342loPI   C2A 5464  15.891   0.811  10.493  0.0022 -0.1740 -0.4065
  342loPI   C3A 5465  15.820   0.854  10.138  0.1502 -0.2412  0.0691
  342loPI   C4A 5466  15.798   0.855   9.710 -0.0924 -0.1759  0.1156
  342loPI   C5A 5467  15.798   0.908   9.335  0.0475  0.2109  0.1334
  342loPI   C6A 5468  16.114   0.994   9.045 -0.0332  0.2264 -0.2232
  342loPI   C1B 5469  15.984   1.361  10.783  0.0488  0.1996 -0.2017
  342loPI   C2B 5470  15.959   1.305  10.330 -0.0917 -0.2053 -0.1103
  342loPI   C3B 5471  15.974   1.309   9.996  0.1462 -0.1580  0.2154
  342loPI   C4B 5472  15.821   1.403   9.583  0.1570 -0.0925  0.0415
  343loPI    C1 5473  11.257  12.214  11.690  0.0368  0.0634 -0.1308
  343loPI    C2 5474  11.443  12.326  12.026  0.0582  0.0917 -0.1521
  343loPI    C3 5475  11.044  12.340  12.004  0.0654  0.2565 -0.1876
  343loPI   PO4 5476  11.337  12.390  11.504  0.2383  0.0944  0.0942
  343loPI   GL1 5477  11.497  12.378  11.084 -0.3247  0.3089 -0.0951
  343loPI   GL2 5478  11.234  12.580  10.955  0.2023 -0.1182 -0.0972
  343loPI   C1A 5479  11.633  12.244  10.687 -0.0555 -0.1851  0.2301
  343loPI   C2A 5480  11.665  12.253  10.255  0.0081  0.1528  0.2920
  343loPI   C3A 5481  11.804  12.231   9.871  0.1339  0.1036  0.1412
  343loPI   C4A 5482  11.875  12.236   9.491  0.1166 -0.2034  0.2760
  343loPI   C5A 5483  11.785  12.427   9.070 -0.3245  0.2714  0.2785
  343loPI   C6A 5484  11.848  12.838   8.810  0.0062  0.0467  0.0672
  343loPI   C1B 5485  11.243  12.494  10.504  0.0583 -0.2257 -0.0643
  343loPI   C2B 5486  11.405  12.619  10.004  0.1183 -0.1523  0.1320
  343loPI   C3B 5487  11.476  12.571   9.495  0.2999  0.0359  0.2886
  343loPI   C4B 5488  11.312  12.540   9.091 -0.0069  0.1954  0.1821
  344loPI    C1 5489   5.011  10.855  11.691 -0.0976 -0.0094  0.1054
  344loPI    C2 5490   5.341  10.699  11.854  0.0673  0.2365  0.0131
  344loPI    C3 5491   5.231  11.073  11.945 -0.0795  0.2227 -0.1049
  344loPI   PO4 5492   5.032  10.907  11.419 -0.0972 -0.1254  0.1302
  344loPI   GL1 5493   4.873  10.860  11.012  0.1069 -0.1507 -0.1116
  344loPI   GL2 5494   4.539  10.927  11.102 -0.0167 -0.2569  0.1549
  344loPI   C1A 5495   4.806  10.857  10.544 -0.3045 -0.2749 -0.0866
  344loPI   C2A 5496   4.814  10.889  10.113 -0.1920 -0.0136 -0.0930
  344loPI   C3A 5497   4.798  10.861   9.710  0.2558 -0.1317 -0.0314
  344loPI   C4A 5498   4.606  10.832   9.264 -0.1634  0.3202  0.0261
  344loPI   C5A 5499   4.429  11.035   8.945  0.1482  0.0662 -0.2507
  344loPI   C6A 5500   4.092  11.165   8.765  0.2579 -0.0477 -0.1111
  344loPI   C1B 5501   4.331  11.167  10.785 -0.0857  0.0580 -0.4311
  344loPI   C2B 5502   4.391  11.149  10.383  0.3046  0.0897  0.0890
  344loPI   C3B 5503   4.383  11.220   9.945  0.0243 -0.0419  0.1669
  344loPI   C4B 5504   4.437  11.233   9.552  0.2792  0.2583  0.2806
  345loPI    C1 5505   4.870  11.747  11.791  0.0847 -0.0742  0.0033
  345loPI    C2 5506   4.907  11.921  12.149 -0.0462 -0.0764  0.0183
  345loPI    C3 5507   5.156  11.626  12.043  0.0877  0.0252  0.0479
  345loPI   PO4 5508   4.665  11.664  11.687 -0.1807 -0.0667  0.0818
  345loPI   GL1 5509   4.477  11.590  11.267  0.3357 -0.0280 -0.0828
  345loPI   GL2 5510   4.695  11.390  11.152 -0.0135  0.2673  0.1577
  345loPI   C1A 5511   4.448  11.707  10.810  0.0682  0.0595 -0.0345
  345loPI   C2A 5512   4.438  11.644  10.372 -0.0661 -0.1324 -0.0491
  345loPI   C3A 5513   4.444  11.729   9.966  0.2116  0.0521 -0.0357
  345loPI   C4A 5514   4.543  11.744   9.556  0.0314 -0.0732  0.1366
  345loPI   C5A 5515   4.408  11.977   9.244 -0.2281  0.1534 -0.2645
  345loPI   C6A 5516   4.377  12.356   9.009 -0.0060  0.1300  0.0987
  345loPI   C1B 5517   4.846  11.386  10.639 -0.1194  0.2070 -0.0789
  345loPI   C2B 5518   4.852  11.388  10.293 -0.0477 -0.1155  0.1466
  345loPI   C3B 5519   4.826  11.439   9.890  0.1381  0.0177  0.0767
  345loPI   C4B 5520   4.944  11.432   9.509 -0.1981  0.0696  0.0469
  346loPI    C1 5521   3.794   2.879  11.783  0.0630 -0.0171  0.0128
  346loPI    C2 5522   3.592   2.538  11.732 -0.1190  0.0983 -0.0474
  346loPI    C3 5523   3.934   2.539  11.939  0.0623 -0.1827 -0.3364
  346loPI   PO4 5524   3.683   2.990  11.489 -0.0600 -0.2843 -0.2073
  346loPI   GL1 5525   3.787   2.976  11.063  0.2556  0.1923  0.2159
  346loPI   GL2 5526   3.968   2.761  10.858 -0.2307  0.0366  0.1151
  346loPI   C1A 5527   3.611   3.118  10.622 -0.0222  0.0929 -0.0255
  346loPI   C2A 5528   3.704   3.035  10.189 -0.0733 -0.0329  0.1354
  346loPI   C3A 5529   3.771   2.994   9.677 -0.1262  0.2205 -0.2962
  346loPI   C4A 5530   3.945   3.167   9.233 -0.0077  0.0247 -0.3907
  346loPI   C5A 5531   3.958   3.181   8.819  0.1082  0.0713  0.0112
  346loPI   C6A 5532   4.103   2.761   8.566 -0.0179  0.1074  0.0402
  346loPI   C1B 5533   4.088   2.872  10.483 -0.0173  0.0577  0.2913
  346loPI   C2B 5534   4.311   2.923  10.023  0.0005 -0.1885 -0.0539
  346loPI   C3B 5535   4.325   2.945   9.561 -0.4414 -0.2193  0.0626
  346loPI   C4B 5536   4.652   3.000   9.337  0.0738  0.0950  0.2686
  347loPI    C1 5537   9.810  17.177  11.510  0.2166 -0.1228  0.0199
  347loPI    C2 5538   9.470  17.015  11.646  0.1223  0.0207 -0.0428
  347loPI    C3 5539   9.629  17.331  11.832  0.1158  0.0750 -0.1284
  347loPI   PO4 5540   9.801  17.216  11.208  0.0062  0.1103 -0.0561
  347loPI   GL1 5541  10.110  17.022  11.007  0.0499  0.0415  0.1035
  347loPI   GL2 5542   9.769  16.843  10.849 -0.1975  0.2223 -0.1825
  347loPI   C1A 5543  10.255  16.789  10.606  0.0314 -0.0176 -0.0639
  347loPI   C2A 5544  10.306  16.731  10.102 -0.0120  0.0298 -0.0316
  347loPI   C3A 5545  10.384  16.793   9.701 -0.2558 -0.2332 -0.0972
  347loPI   C4A 5546  10.405  16.681   9.262 -0.0524  0.0387 -0.0325
  347loPI   C5A 5547  10.315  16.893   8.813  0.0395 -0.3943 -0.1818
  347loPI   C6A 5548  10.484  17.061   8.393 -0.0359 -0.2602  0.0982
  347loPI   C1B 5549   9.817  16.817  10.344  0.2506  0.1971 -0.0185
  347loPI   C2B 5550   9.900  16.886   9.853 -0.2405 -0.1845 -0.0165
  347loPI   C3B 5551  10.001  16.879   9.431  0.2100 -0.0198 -0.0079
  347loPI   C4B 5552   9.881  16.924   9.064  0.1960 -0.2331  0.0748
  348loPI    C1 5553   8.493  12.824  11.602 -0.0874 -0.0747  0.0889
  348loPI    C2 5554   8.209  13.097  11.531  0.0241  0.0145 -0.0183
  348loPI    C3 5555   8.323  13.019  11.906 -0.1065  0.0142  0.0217
  348loPI   PO4 5556   8.452  12.626  11.499 -0.4176  0.0993  0.3027
  348loPI   GL1 5557   8.275  12.475  11.074 -0.3142  0.0661  0.1708
  348loPI   GL2 5558   8.405  12.164  11.085 -0.1093  0.1413  0.1803
  348loPI   C1A 5559   8.208  12.482  10.609  0.1026  0.0476 -0.0189
  348loPI   C2A 5560   8.196  12.444  10.103  0.1437 -0.2324  0.0081
  348loPI   C3A 5561   8.059  12.445   9.702 -0.1082 -0.0073 -0.1816
  348loPI   C4A 5562   7.963  12.501   9.216 -0.1756 -0.0410 -0.0379
  348loPI   C5A 5563   8.217  12.777   9.072 -0.2917 -0.1150 -0.0450
  348loPI   C6A 5564   8.359  13.095   8.815 -0.1652 -0.1924  0.0478
  348loPI   C1B 5565   8.304  12.035  10.584 -0.0579  0.0727  0.0009
  348loPI   C2B 5566   8.237  11.977  10.197  0.5043  0.0635  0.1855
  348loPI   C3B 5567   8.251  12.005   9.671 -0.0326  0.1074  0.3366
  348loPI   C4B 5568   8.209  12.065   9.276  0.1622  0.3509  0.2699
  349loPI    C1 5569   0.659   9.714  11.703  0.0732 -0.0930 -0.2970
  349loPI    C2 5570   0.612  10.103  11.622  0.2890 -0.0408 -0.1805
  349loPI    C3 5571   0.800   9.989  11.956 -0.2653 -0.2500  0.0731
  349loPI   PO4 5572   0.806   9.564  11.497  0.1663 -0.0670  0.1335
  349loPI   GL1 5573   0.819   9.280  11.202  0.0526  0.0943  0.0194
  349loPI   GL2 5574   0.729   8.950  11.247 -0.5807  0.1118 -0.0146
  349loPI   C1A 5575   0.818   9.427  10.726 -0.1638  0.0254 -0.0453
  349loPI   C2A 5576   0.738   9.434  10.231 -0.2514 -0.2310 -0.2079
  349loPI   C3A 5577   0.807   9.366   9.848  0.1026  0.2646 -0.3311
  349loPI   C4A 5578   0.933   9.377   9.489 -0.0327 -0.0908  0.3442
  349loPI   C5A 5579   0.799   9.607   9.101  0.0487  0.0746 -0.0533
  349loPI   C6A 5580   0.418   9.533   8.857 -0.0835  0.0050 -0.1996
  349loPI   C1B 5581   0.688   8.999  10.847 -0.0249  0.0260  0.2627
  349loPI   C2B 5582   0.666   9.036  10.481  0.2280  0.1633 -0.3304
  349loPI   C3B 5583   0.636   8.949  10.101 -0.0727 -0.2845 -0.0291
  349loPI   C4B 5584   0.713   8.897   9.646  0.0781  0.2370  0.0660
  350loPI    C1 5585  16.938   5.170  11.802  0.2462 -0.2808 -0.0412
  350loPI    C2 5586  16.624   4.926  11.847  0.0581 -0.0328  0.0163
  350loPI    C3 5587  16.791   5.098  12.167 -0.1110  0.2835 -0.0619
  350loPI   PO4 5588  17.050   5.094  11.598  0.0285  0.2486 -0.2116
  350loPI   GL1 5589  17.189   5.013  11.223 -0.5692 -0.0857 -0.1270
  350loPI   GL2 5590  17.324   5.308  11.194 -0.1114  0.1261 -0.0050
  350loPI   C1A 5591  17.065   5.046  10.784  0.0580  0.2653  0.2372
  350loPI   C2A 5592  16.987   5.026  10.390  0.2674 -0.0853 -0.0193
  350loPI   C3A 5593  16.977   5.132   9.916 -0.0874 -0.1351  0.1689
  350loPI   C4A 5594  17.052   5.198   9.442 -0.2990 -0.0926 -0.0152
  350loPI   C5A 5595  17.339   4.905   9.141 -0.0924  0.0059 -0.1350
  350loPI   C6A 5596  17.223   4.586   8.833  0.0390  0.0914 -0.3245
  350loPI   C1B 5597  17.587   5.179  10.822  0.1508  0.2125  0.0539
  350loPI   C2B 5598  17.445   5.214  10.388  0.0653 -0.1876  0.2802
  350loPI   C3B 5599  17.469   5.255   9.888  0.2868  0.0398  0.1144
  350loPI   C4B 5600  17.549   5.337   9.451  0.0319  0.0954  0.1666
  351loPI    C1 5601   7.035   5.894  11.415 -0.1317  0.0722 -0.3214
  351loPI    C2 5602   7.364   5.816  11.629 -0.0621  0.1881 -0.3850
  351loPI    C3 5603   7.007   5.832  11.809 -0.0626 -0.1467 -0.3500
  351loPI   PO4 5604   7.037   5.713  11.188 -0.0523 -0.1248  0.1988
  351loPI   GL1 5605   7.225   5.637  10.928 -0.1401  0.0206 -0.0650
  351loPI   GL2 5606   7.158   5.911  10.780 -0.2828 -0.4079  0.3551
  351loPI   C1A 5607   7.426   5.431  10.447  0.0769  0.1898 -0.1442
  351loPI   C2A 5608   7.457   5.509   9.990 -0.3050  0.2075  0.1771
  351loPI   C3A 5609   7.446   5.540   9.568  0.0131 -0.2743  0.2473
  351loPI   C4A 5610   7.480   5.649   9.098  0.0581  0.1301  0.1814
  351loPI   C5A 5611   7.574   6.012   8.893 -0.1892  0.0777 -0.1845
  351loPI   C6A 5612   7.259   6.315   8.654  0.0973  0.0860  0.3336
  351loPI   C1B 5613   7.251   5.920  10.236  0.1422 -0.0331  0.0627
  351loPI   C2B 5614   7.122   6.026   9.786 -0.0079 -0.1855  0.1098
  351loPI   C3B 5615   7.122   5.878   9.402 -0.1646 -0.1666 -0.1241
  351loPI   C4B 5616   7.011   6.014   8.976 -0.1159 -0.0478  0.0453
  352loPI    C1 5617   6.042   8.236  11.620  0.0251 -0.0743 -0.1652
  352loPI    C2 5618   6.235   7.946  11.425 -0.1077 -0.1480 -0.1880
  352loPI    C3 5619   6.011   7.857  11.744  0.0738 -0.0338 -0.0260
  352loPI   PO4 5620   5.969   8.380  11.323  0.0022 -0.1559 -0.1047
  352loPI   GL1 5621   6.080   8.200  10.973  0.2141  0.1217  0.2808
  352loPI   GL2 5622   5.764   8.227  10.839 -0.2470  0.0075 -0.0977
  352loPI   C1A 5623   6.133   8.123  10.572 -0.3692 -0.2289 -0.0890
  352loPI   C2A 5624   6.146   8.186  10.172 -0.3616  0.1828  0.1800
  352loPI   C3A 5625   6.210   8.341   9.742  0.2097  0.2063 -0.0799
  352loPI   C4A 5626   6.202   8.605   9.364 -0.1342 -0.1685  0.1562
  352loPI   C5A 5627   6.107   8.482   8.968 -0.1620  0.5177  0.1085
  352loPI   C6A 5628   6.024   8.150   8.683  0.0738  0.0651 -0.2230
  352loPI   C1B 5629   5.712   8.359  10.397 -0.0940  0.0206  0.0786
  352loPI   C2B 5630   5.738   8.429   9.953 -0.1677 -0.0005 -0.1415
  352loPI   C3B 5631   5.619   8.301   9.626 -0.0660 -0.1386 -0.3013
  352loPI   C4B 5632   5.666   8.517   9.206 -0.2219  0.1030  0.2675
  353loPI    C1 5633   3.588   5.681  11.500  0.0448 -0.1287 -0.0726
  353loPI    C2 5634   3.702   5.989  11.728 -0.3678 -0.0104 -0.0186
  353loPI    C3 5635   3.825   5.619  11.816 -0.2791  0.0729  0.2176
  353loPI   PO4 5636   3.570   5.836  11.260  0.0901  0.2242  0.1493
  353loPI   GL1 5637   3.314   5.762  10.798 -0.0205 -0.2129  0.0314
  353loPI   GL2 5638   3.547   5.559  10.613  0.2375 -0.0264 -0.0036
  353loPI   C1A 5639   3.142   5.872  10.475  0.2344 -0.3064  0.0331
  353loPI   C2A 5640   3.062   5.847  10.053  0.2099 -0.0864 -0.0725
  353loPI   C3A 5641   3.031   5.809   9.650  0.2643  0.1444 -0.2608
  353loPI   C4A 5642   3.129   5.686   9.260  0.0408  0.2297 -0.2185
  353loPI   C5A 5643   3.360   5.515   9.016 -0.0250 -0.2136  0.0583
  353loPI   C6A 5644   3.478   5.682   8.499 -0.1057  0.4222  0.1488
  353loPI   C1B 5645   3.425   5.558  10.177  0.0553 -0.2061  0.0746
  353loPI   C2B 5646   3.426   5.512   9.730  0.1242  0.0475 -0.1104
  353loPI   C3B 5647   3.652   5.486   9.456  0.0856  0.0955  0.0868
  353loPI   C4B 5648   3.843   5.716   9.156 -0.3544  0.1950  0.1129
  354loPI    C1 5649   0.558   2.093  11.939  0.0967  0.1500  0.2327
  354loPI    C2 5650   0.938   2.003  12.024  0.1039 -0.1839 -0.1276
  354loPI    C3 5651   0.850   2.352  11.848  0.2281 -0.0549  0.0621
  354loPI   PO4 5652   0.471   1.833  11.732 -0.1039  0.0122 -0.4893
  354loPI   GL1 5653   0.353   1.835  11.230 -0.1701  0.4708  0.2547
  354loPI   GL2 5654   0.659   1.636  11.209  0.0703  0.1801  0.0597
  354loPI   C1A 5655   0.191   1.931  10.842  0.0420 -0.2249 -0.0659
  354loPI   C2A 5656   0.151   1.886  10.423  0.2807 -0.0840  0.2289
  354loPI   C3A 5657   0.023   1.941   9.961 -0.1709 -0.2939 -0.0666
  354loPI   C4A 5658   0.091   1.925   9.568  0.3364 -0.1367 -0.1643
  354loPI   C5A 5659   0.460   2.037   9.266  0.0026  0.2437  0.0547
  354loPI   C6A 5660   0.727   1.981   8.959 -0.1638  0.2099 -0.3005
  354loPI   C1B 5661   0.616   1.629  10.722  0.0416 -0.0310  0.4999
  354loPI   C2B 5662   0.629   1.611  10.265 -0.0625  0.0622  0.0036
  354loPI   C3B 5663   0.449   1.640   9.804 -0.2670  0.0997  0.3644
  354loPI   C4B 5664   0.397   1.498   9.330 -0.2706  0.0785 -0.1544
  355loPI    C1 5665   3.037   2.388  11.527 -0.2441 -0.0401  0.1136
  355loPI    C2 5666   2.795   2.235  11.805 -0.0044 -0.0553  0.3175
  355loPI    C3 5667   3.191   2.230  11.861  0.0400  0.0426  0.0249
  355loPI   PO4 5668   2.963   2.386  11.313 -0.1959  0.1485 -0.1517
  355loPI   GL1 5669   2.992   2.404  10.916  0.1918 -0.0381  0.1608
  355loPI   GL2 5670   2.667   2.290  10.880 -0.0432  0.1016 -0.1026
  355loPI   C1A 5671   3.040   2.417  10.490 -0.0370 -0.0691 -0.1937
  355loPI   C2A 5672   2.906   2.383  10.088 -0.4830  0.3313 -0.4670
  355loPI   C3A 5673   2.852   2.425   9.642 -0.1817 -0.1381  0.1255
  355loPI   C4A 5674   2.815   2.410   9.169 -0.1749 -0.0792 -0.0362
  355loPI   C5A 5675   2.776   2.689   8.823 -0.1284  0.0134 -0.3052
  355loPI   C6A 5676   2.690   2.996   8.476 -0.2024  0.0731  0.1689
  355loPI   C1B 5677   2.500   2.297  10.454  0.2508 -0.0077 -0.1320
  355loPI   C2B 5678   2.413   2.325   9.919  0.2102 -0.1665 -0.1749
  355loPI   C3B 5679   2.400   2.292   9.503  0.2412 -0.0346  0.0600
  355loPI   C4B 5680   2.384   2.618   9.223  0.2639  0.0019  0.2743
  356loPI    C1 5681   7.710   3.381  11.708 -0.0652  0.0687 -0.0741
  356loPI    C2 5682   7.536   3.241  12.040 -0.0463 -0.0162 -0.0996
  356loPI    C3 5683   7.822   3.519  12.066 -0.0019 -0.0671 -0.0407
  356loPI   PO4 5684   7.679   3.272  11.530 -0.3476  0.1220 -0.0523
  356loPI   GL1 5685   7.646   3.336  11.035 -0.1244  0.1019 -0.2203
  356loPI   GL2 5686   7.461   3.434  10.906 -0.1257  0.0805  0.0825
  356loPI   C1A 5687   7.774   3.062  10.632 -0.1354 -0.2214 -0.0596
  356loPI   C2A 5688   7.850   3.116  10.259 -0.1941  0.0134  0.1871
  356loPI   C3A 5689   7.739   3.084   9.890  0.5234  0.0530  0.2154
  356loPI   C4A 5690   7.855   3.194   9.414  0.1600  0.0791 -0.0720
  356loPI   C5A 5691   8.057   3.187   8.936  0.1037  0.1134  0.2711
  356loPI   C6A 5692   8.112   3.224   8.514  0.0715  0.0292 -0.3280
  356loPI   C1B 5693   7.680   3.544  10.523 -0.2014 -0.0189  0.0231
  356loPI   C2B 5694   7.691   3.700  10.084  0.0279 -0.0729 -0.0749
  356loPI   C3B 5695   7.604   3.643   9.624 -0.2463  0.1557  0.0042
  356loPI   C4B 5696   7.726   3.599   9.196 -0.1443  0.2560  0.0950
  357loPI    C1 5697  10.267   9.396  11.445  0.1124 -0.0238  0.3831
  357loPI    C2 5698   9.892   9.532  11.469  0.1382  0.0790  0.2216
  357loPI    C3 5699  10.168   9.657  11.731  0.1570  0.3261  0.0875
  357loPI   PO4 5700  10.289   9.406  11.204  0.0550  0.1017 -0.1075
  357loPI   GL1 5701  10.448   9.578  10.819 -0.0085  0.1355 -0.0557
  357loPI   GL2 5702  10.740   9.458  10.769 -0.3211  0.2110  0.2078
  357loPI   C1A 5703  10.459   9.684  10.370 -0.2319  0.1968 -0.1206
  357loPI   C2A 5704  10.505   9.745   9.905  0.1098  0.0876 -0.1445
  357loPI   C3A 5705  10.390   9.903   9.524 -0.0287 -0.2750 -0.3090
  357loPI   C4A 5706  10.299   9.935   9.121 -0.1164  0.0115  0.1294
  357loPI   C5A 5707  10.332  10.065   8.677 -0.2328  0.1757 -0.1618
  357loPI   C6A 5708  10.714  10.241   8.480  0.1185  0.1622 -0.0560
  357loPI   C1B 5709  10.795   9.329  10.406 -0.3118 -0.3377 -0.1091
  357loPI   C2B 5710  10.879   9.399   9.963  0.2286 -0.0018 -0.1008
  357loPI   C3B 5711  10.798   9.370   9.635 -0.0201 -0.0850  0.1431
  357loPI   C4B 5712  10.916   9.404   9.170  0.0805 -0.1677  0.4983
  358loPI    C1 5713   4.263   8.922  11.840 -0.2651  0.0232 -0.0132
  358loPI    C2 5714   4.475   9.260  11.813 -0.1846 -0.0390 -0.1724
  358loPI    C3 5715   4.304   9.158  12.160 -0.0319  0.0581 -0.0671
  358loPI   PO4 5716   4.261   8.882  11.544  0.1893  0.1499  0.1373
  358loPI   GL1 5717   4.469   8.790  11.105 -0.2521  0.1729  0.2585
  358loPI   GL2 5718   4.700   9.014  10.916  0.0685 -0.2082 -0.3569
  358loPI   C1A 5719   4.354   8.495  10.803 -0.0281 -0.4103  0.3175
  358loPI   C2A 5720   4.005   8.579  10.457 -0.1064 -0.0397  0.1889
  358loPI   C3A 5721   3.973   8.687  10.034  0.2587 -0.2870 -0.1148
  358loPI   C4A 5722   3.920   8.638   9.630 -0.3536  0.2542 -0.1948
  358loPI   C5A 5723   3.753   8.570   9.258 -0.2089  0.2160  0.1263
  358loPI   C6A 5724   3.652   8.568   8.795 -0.2469 -0.1488  0.2231
  358loPI   C1B 5725   4.646   9.231  10.657  0.1622 -0.1523  0.0078
  358loPI   C2B 5726   4.630   9.219  10.163 -0.1212  0.2313  0.0729
  358loPI   C3B 5727   4.508   9.234   9.646  0.5322  0.0876 -0.1016
  358loPI   C4B 5728   4.526   9.413   9.305 -0.2817  0.3551  0.2251
  359loPI    C1 5729   0.305  15.298  11.645  0.1194 -0.0244  0.1979
  359loPI    C2 5730   0.582  15.494  11.858 -0.0426  0.2466  0.1642
  359loPI    C3 5731   0.256  15.348  12.038  0.1835 -0.1973  0.2287
  359loPI   PO4 5732   0.476  15.205  11.410  0.0238  0.1024  0.1496
  359loPI   GL1 5733   0.407  14.932  11.082 -0.1928  0.0358 -0.5372
  359loPI   GL2 5734   0.429  14.628  11.076  0.0925 -0.1713  0.1053
  359loPI   C1A 5735   0.262  15.023  10.633 -0.0479 -0.0475  0.2339
  359loPI   C2A 5736   0.260  15.020  10.149 -0.1045 -0.0633 -0.3961
  359loPI   C3A 5737   0.360  14.989   9.691  0.2464 -0.4174  0.1226
  359loPI   C4A 5738   0.402  15.058   9.333  0.0749 -0.3050 -0.0272
  359loPI   C5A 5739   0.244  15.193   8.998  0.0185  0.0115  0.2725
  359loPI   C6A 5740   0.352  15.141   8.618  0.0533 -0.0326 -0.0529
  359loPI   C1B 5741   0.269  14.487  10.706 -0.1109  0.1629 -0.0389
  359loPI   C2B 5742   0.290  14.430  10.220 -0.1837  0.1025  0.1756
  359loPI   C3B 5743   0.292  14.520   9.758  0.0524  0.1167  0.0352
  359loPI   C4B 5744   0.382  14.470   9.348  0.2113  0.3162  0.1796
  360loPI    C1 5745  12.179   5.348  11.512 -0.0932  0.1332 -0.0448
  360loPI    C2 5746  11.991   5.670  11.656 -0.2268 -0.0194  0.1265
  360loPI    C3 5747  11.790   5.327  11.606 -0.1612  0.0041 -0.3413
  360loPI   PO4 5748  12.259   5.394  11.189  0.0299  0.1949 -0.0251
  360loPI   GL1 5749  12.144   5.267  10.762 -0.1174  0.0583  0.2872
  360loPI   GL2 5750  11.924   5.344  10.854  0.0708 -0.2419  0.0002
  360loPI   C1A 5751  12.273   5.138  10.335 -0.0579  0.1720 -0.2566
  360loPI   C2A 5752  12.360   5.125   9.914  0.2127 -0.1164  0.1288
  360loPI   C3A 5753  12.402   5.241   9.534 -0.1121 -0.1657 -0.2629
  360loPI   C4A 5754  12.495   5.281   9.023  0.1116 -0.0520 -0.2696
  360loPI   C5A 5755  12.633   5.413   8.802  0.0008 -0.1999  0.0249
  360loPI   C6A 5756  12.836   5.744   8.554  0.1614 -0.1300 -0.0515
  360loPI   C1B 5757  11.939   5.548  10.463 -0.1439  0.1531  0.0245
  360loPI   C2B 5758  11.952   5.467  10.036 -0.1087  0.0284 -0.1143
  360loPI   C3B 5759  12.043   5.601   9.551  0.2859  0.3299 -0.0023
  360loPI   C4B 5760  12.049   5.558   9.089 -0.0259  0.2618 -0.0588
  361loPI    C1 5761   0.720   2.902  11.924  0.3077 -0.0014 -0.0349
  361loPI    C2 5762   0.566   3.271  11.944  0.2995 -0.0064 -0.0055
  361loPI    C3 5763   0.557   3.032  12.265  0.0272 -0.1442 -0.1122
  361loPI   PO4 5764   0.617   2.833  11.628 -0.2031  0.0956 -0.3221
  361loPI   GL1 5765   0.650   2.821  11.258  0.0371 -0.1696 -0.0152
  361loPI   GL2 5766   0.818   2.992  11.106  0.0673  0.0642  0.2380
  361loPI   C1A 5767   0.765   2.612  10.806 -0.0218 -0.2030  0.1352
  361loPI   C2A 5768   0.698   2.620  10.443 -0.2240  0.2428  0.0382
  361loPI   C3A 5769   0.623   2.592  10.094 -0.0347  0.2927  0.0630
  361loPI   C4A 5770   0.665   2.584   9.685 -0.0363  0.0737 -0.1976
  361loPI   C5A 5771   0.596   2.514   9.195 -0.2230  0.0478 -0.1981
  361loPI   C6A 5772   0.555   2.400   8.745 -0.0353 -0.0301  0.0742
  361loPI   C1B 5773   0.830   3.105  10.579 -0.1511 -0.1654 -0.0384
  361loPI   C2B 5774   0.671   3.097  10.163 -0.1617 -0.0360 -0.0165
  361loPI   C3B 5775   0.663   3.134   9.711 -0.0089  0.1763  0.0734
  361loPI   C4B 5776   0.678   3.270   9.328 -0.1740 -0.1460 -0.0186
  362loPI    C1 5777   8.693  12.030  11.874 -0.0601 -0.1660 -0.0995
  362loPI    C2 5778   8.717  12.269  12.194 -0.0829 -0.0128 -0.2111
  362loPI    C3 5779   8.668  11.875  12.242 -0.1399  0.0158 -0.0271
  362loPI   PO4 5780   8.685  12.215  11.682  0.3517  0.2141 -0.2480
  362loPI   GL1 5781   8.881  12.278  11.283  0.2271  0.0512  0.3881
  362loPI   GL2 5782   8.825  12.554  11.106  0.1551 -0.1270 -0.3836
  362loPI   C1A 5783   8.834  11.975  10.819  0.3958  0.1803  0.1371
  362loPI   C2A 5784   8.784  11.902  10.423 -0.3126 -0.2345  0.1364
  362loPI   C3A 5785   8.687  11.915   9.953  0.1198  0.0072 -0.1274
  362loPI   C4A 5786   8.740  11.958   9.531 -0.0708 -0.4041 -0.2608
  362loPI   C5A 5787   8.675  11.844   9.142 -0.1151  0.2848  0.2819
  362loPI   C6A 5788   8.878  11.765   8.833 -0.2036  0.3624  0.5264
  362loPI   C1B 5789   8.701  12.473  10.736 -0.1919 -0.3136 -0.0061
  362loPI   C2B 5790   8.640  12.315  10.305  0.3277 -0.0616  0.1287
  362loPI   C3B 5791   8.678  12.367   9.778  0.4681  0.1953  0.1803
  362loPI   C4B 5792   8.499  12.465   9.462  0.0586 -0.1187 -0.1742
  363loPI    C1 5793  11.608   9.401  11.320 -0.0900  0.3730 -0.1021
  363loPI    C2 5794  11.250   9.528  11.443 -0.2138  0.1572 -0.2334
  363loPI    C3 5795  11.539   9.455  11.710 -0.3796 -0.0055 -0.0952
  363loPI   PO4 5796  11.637   9.163  11.178 -0.2318 -0.0876 -0.3747
  363loPI   GL1 5797  11.611   9.113  10.759  0.2269 -0.0564  0.2034
  363loPI   GL2 5798  11.644   8.824  10.607 -0.3968 -0.1080 -0.4255
  363loPI   C1A 5799  11.663   9.242  10.308 -0.0345 -0.0270  0.2856
  363loPI   C2A 5800  11.642   9.404   9.907  0.1105 -0.1224  0.0433
  363loPI   C3A 5801  11.785   9.377   9.446  0.2413 -0.3786 -0.1594
  363loPI   C4A 5802  11.831   9.453   9.034 -0.0247 -0.3537  0.0231
  363loPI   C5A 5803  12.115   9.327   8.777 -0.0175 -0.0628 -0.0472
  363loPI   C6A 5804  12.515   9.532   8.694 -0.2036 -0.0449  0.1918
  363loPI   C1B 5805  11.620   8.738  10.271 -0.0056 -0.2661  0.5183
  363loPI   C2B 5806  11.644   8.895   9.893  0.1536 -0.0992  0.2400
  363loPI   C3B 5807  11.764   8.852   9.496 -0.1863  0.2683 -0.0156
  363loPI   C4B 5808  11.772   8.673   9.105 -0.0599 -0.1206  0.2013
  364loPI    C1 5809  10.132   7.184  11.181 -0.1922 -0.2767  0.1160
  364loPI    C2 5810  10.016   7.414  11.487  0.2773  0.1785 -0.0346
  364loPI    C3 5811  10.161   7.047  11.556 -0.1958  0.0340  0.2324
  364loPI   PO4 5812   9.895   7.168  11.041  0.0805  0.0016  0.3238
  364loPI   GL1 5813   9.893   7.359  10.770  0.0569 -0.1012  0.3645
  364loPI   GL2 5814   9.641   7.340  10.487  0.2556  0.3415 -0.0567
  364loPI   C1A 5815  10.049   7.582  10.465  0.0598  0.0542 -0.1506
  364loPI   C2A 5816  10.126   7.675  10.002  0.0507  0.1932  0.2068
  364loPI   C3A 5817  10.242   7.755   9.563 -0.2113  0.1420 -0.0302
  364loPI   C4A 5818  10.334   7.762   9.095 -0.1865  0.2289  0.1248
  364loPI   C5A 5819  10.519   7.700   8.677 -0.0224 -0.2153 -0.1772
  364loPI   C6A 5820  10.929   7.609   8.575  0.3546  0.1283  0.1474
  364loPI   C1B 5821   9.722   7.358  10.091  0.2938  0.0859  0.3709
  364loPI   C2B 5822   9.858   7.373   9.649 -0.1888  0.1063 -0.2177
  364loPI   C3B 5823  10.189   7.354   9.308 -0.2925  0.4296  0.0799
  364loPI   C4B 5824  10.264   7.202   8.854 -0.0997  0.0923 -0.3512
  365loPI    C1 5825   3.200   8.858  11.710 -0.2191  0.1554  0.0519
  365loPI    C2 5826   2.998   8.551  11.870  0.0977 -0.0704  0.0281
  365loPI    C3 5827   3.361   8.646  12.009  0.0789  0.1797 -0.0883
  365loPI   PO4 5828   3.221   8.888  11.498 -0.1262 -0.1941 -0.0482
  365loPI   GL1 5829   3.310   8.679  11.078 -0.0434  0.0636 -0.3167
  365loPI   GL2 5830   3.120   8.770  10.883 -0.3508 -0.0261 -0.1838
  365loPI   C1A 5831   3.652   8.952  10.772  0.0105 -0.3308 -0.0416
  365loPI   C2A 5832   3.604   9.025  10.343  0.1443 -0.3562 -0.0367
  365loPI   C3A 5833   3.499   9.003   9.948 -0.2121 -0.4331 -0.1616
  365loPI   C4A 5834   3.536   8.888   9.537  0.0181 -0.3319 -0.1598
  365loPI   C5A 5835   3.349   8.902   9.212 -0.4814  0.0723  0.0484
  365loPI   C6A 5836   3.245   8.858   8.812  0.2837  0.0335 -0.2005
  365loPI   C1B 5837   3.214   8.842  10.528 -0.1328 -0.1191  0.1400
  365loPI   C2B 5838   2.984   8.875  10.141 -0.0623  0.0250  0.1965
  365loPI   C3B 5839   3.078   8.797   9.691 -0.0827  0.1649  0.0955
  365loPI   C4B 5840   2.853   8.713   9.244  0.0787 -0.0957  0.1526
  366loPI    C1 5841  16.621   7.843  11.682 -0.0094 -0.2224 -0.0160
  366loPI    C2 5842  16.272   7.736  11.845  0.0371 -0.1132  0.1581
  366loPI    C3 5843  16.427   8.097  11.922  0.0512 -0.0520 -0.1453
  366loPI   PO4 5844  16.646   7.735  11.474  0.2710  0.2317  0.0952
  366loPI   GL1 5845  16.463   7.686  11.054  0.1785 -0.0883 -0.1906
  366loPI   GL2 5846  16.608   8.011  11.066 -0.1907  0.0486 -0.0119
  366loPI   C1A 5847  16.548   7.702  10.608  0.0350 -0.0908  0.0097
  366loPI   C2A 5848  16.437   7.790  10.137 -0.1478 -0.0138 -0.0562
  366loPI   C3A 5849  16.547   7.837   9.656  0.1622  0.2433  0.1672
  366loPI   C4A 5850  16.406   7.779   9.296  0.1721  0.0816 -0.0400
  366loPI   C5A 5851  16.391   8.062   8.939 -0.0653 -0.0568 -0.0445
  366loPI   C6A 5852  16.011   8.156   8.708 -0.2677 -0.1163  0.1644
  366loPI   C1B 5853  16.518   8.192  10.685  0.0990 -0.0444  0.1901
  366loPI   C2B 5854  16.541   8.298  10.374 -0.1655  0.0563  0.1566
  366loPI   C3B 5855  16.600   8.371   9.908  0.0202  0.3446 -0.2742
  366loPI   C4B 5856  16.542   8.306   9.480  0.0182  0.0178  0.0525
  367loPI    C1 5857   0.270   5.919  11.631  0.0214 -0.0173  0.0646
  367loPI    C2 5858   0.228   5.583  11.843 -0.1519 -0.0363  0.0016
  367loPI    C3 5859   0.290   5.931  12.030 -0.1751 -0.0723  0.0767
  367loPI   PO4 5860   0.367   5.838  11.380 -0.0852 -0.1176 -0.2023
  367loPI   GL1 5861   0.127   5.783  11.011 -0.1609 -0.1024 -0.0635
  367loPI   GL2 5862  -0.011   6.061  10.834 -0.2907  0.0254  0.0597
  367loPI   C1A 5863   0.313   5.672  10.573 -0.1102  0.0302 -0.1549
  367loPI   C2A 5864   0.312   5.757  10.124 -0.0755 -0.1192 -0.2275
  367loPI   C3A 5865   0.266   5.818   9.672  0.0328 -0.4056  0.1497
  367loPI   C4A 5866   0.222   5.813   9.290 -0.0528 -0.0354  0.1563
  367loPI   C5A 5867  -0.114   5.552   8.956  0.0073  0.1872 -0.0982
  367loPI   C6A 5868  -0.430   5.202   8.799 -0.0987 -0.0624 -0.1253
  367loPI   C1B 5869   0.044   6.045  10.465 -0.1041 -0.1895 -0.0518
  367loPI   C2B 5870  -0.034   6.147  10.090  0.2701 -0.0844 -0.5952
  367loPI   C3B 5871  -0.129   6.145   9.616 -0.2300 -0.2584  0.1555
  367loPI   C4B 5872  -0.153   6.136   9.181 -0.0735  0.3070  0.2544
  368loPI    C1 5873   7.281   7.650  11.582 -0.0786  0.1487 -0.0179
  368loPI    C2 5874   7.650   7.629  11.734  0.0017  0.1056 -0.2166
  368loPI    C3 5875   7.380   7.349  11.827  0.0938 -0.0012 -0.2677
  368loPI   PO4 5876   7.278   7.733  11.221  0.1493  0.3348  0.2670
  368loPI   GL1 5877   7.320   7.497  10.885  0.2452 -0.0205  0.0724
  368loPI   GL2 5878   7.687   7.567  10.836  0.1142 -0.1649  0.0237
  368loPI   C1A 5879   7.355   7.623  10.378  0.2546  0.0298 -0.0439
  368loPI   C2A 5880   7.424   7.700   9.939  0.0029  0.4837 -0.0299
  368loPI   C3A 5881   7.363   7.749   9.391 -0.1156 -0.0608 -0.3139
  368loPI   C4A 5882   7.361   7.579   8.934 -0.0470  0.1078 -0.0618
  368loPI   C5A 5883   7.618   7.359   8.614  0.0481 -0.1419  0.3063
  368loPI   C6A 5884   8.044   7.262   8.513 -0.0432 -0.0419  0.1008
  368loPI   C1B 5885   7.998   7.565  10.534 -0.2157 -0.0605 -0.1317
  368loPI   C2B 5886   7.953   7.644  10.041  0.2494 -0.1096  0.0315
  368loPI   C3B 5887   7.904   7.712   9.599 -0.1375 -0.0009  0.0880
  368loPI   C4B 5888   7.833   7.616   9.152  0.1143 -0.2314 -0.0769
  369loPI    C1 5889   6.891  12.607  11.614  0.2284 -0.2445  0.1407
  369loPI    C2 5890   7.194  12.636  11.873  0.2518 -0.0133  0.0888
  369loPI    C3 5891   6.817  12.663  12.003  0.2588 -0.0825  0.1237
  369loPI   PO4 5892   6.916  12.737  11.463 -0.0744 -0.0266 -0.2179
  369loPI   GL1 5893   7.079  12.987  11.081  0.0282 -0.2898 -0.2143
  369loPI   GL2 5894   7.457  12.982  11.059  0.0913  0.2636 -0.2991
  369loPI   C1A 5895   7.022  13.072  10.554  0.0866 -0.2666  0.0193
  369loPI   C2A 5896   6.903  13.112  10.138 -0.0663 -0.0870 -0.0582
  369loPI   C3A 5897   6.892  13.139   9.682  0.2880 -0.1790  0.1525
  369loPI   C4A 5898   6.704  13.390   9.356  0.1167 -0.1284 -0.0255
  369loPI   C5A 5899   6.639  13.708   8.983  0.1394 -0.0074  0.0738
  369loPI   C6A 5900   6.476  13.843   8.507  0.1498  0.1149 -0.2425
  369loPI   C1B 5901   7.565  13.025  10.661  0.2977  0.0198  0.1927
  369loPI   C2B 5902   7.460  12.973  10.232  0.1419 -0.2171  0.1617
  369loPI   C3B 5903   7.378  13.112   9.946 -0.0178 -0.1768  0.1937
  369loPI   C4B 5904   7.425  13.200   9.590  0.0846 -0.0222 -0.0381
  370loPI    C1 5905   3.842   9.786  11.882  0.0731  0.1753  0.0533
  370loPI    C2 5906   4.185   9.630  12.016 -0.0295 -0.1897 -0.0960
  370loPI    C3 5907   3.835   9.479  12.138 -0.1387  0.1157 -0.0213
  370loPI   PO4 5908   3.814   9.779  11.639  0.3867 -0.0617  0.0104
  370loPI   GL1 5909   3.805   9.611  11.229  0.1182  0.1774  0.0166
  370loPI   GL2 5910   3.659   9.803  11.150  0.1167  0.0070 -0.2843
  370loPI   C1A 5911   3.712   9.447  10.862 -0.1204 -0.0103 -0.0557
  370loPI   C2A 5912   3.697   9.529  10.454 -0.2244 -0.3150  0.0263
  370loPI   C3A 5913   3.684   9.458  10.037 -0.0322  0.1215 -0.0022
  370loPI   C4A 5914   3.613   9.360   9.528  0.3056 -0.0869 -0.2867
  370loPI   C5A 5915   3.683   9.189   9.060  0.0161  0.1701 -0.0661
  370loPI   C6A 5916   3.817   9.264   8.707 -0.0049 -0.1286  0.0837
  370loPI   C1B 5917   3.685   9.938  10.743 -0.0408  0.0939  0.0247
  370loPI   C2B 5918   3.765   9.999  10.288 -0.0332 -0.2356 -0.1650
  370loPI   C3B 5919   3.735   9.966   9.841 -0.2484 -0.0927 -0.1861
  370loPI   C4B 5920   3.644   9.951   9.453  0.1938  0.0905  0.2288
  371loPI    C1 5921   8.971  14.814  11.655  0.1147 -0.0185 -0.1523
  371loPI    C2 5922   9.221  15.063  11.842 -0.0097  0.1052 -0.1493
  371loPI    C3 5923   8.830  15.072  11.926 -0.0123 -0.1075 -0.1324
  371loPI   PO4 5924   9.055  14.776  11.465  0.0450  0.1591  0.0056
  371loPI   GL1 5925   9.040  14.545  11.062  0.5103 -0.0576  0.0672
  371loPI   GL2 5926   8.728  14.667  11.017 -0.0351 -0.2431  0.2099
  371loPI   C1A 5927   9.088  14.241  10.666 -0.1188  0.0839  0.1815
  371loPI   C2A 5928   8.973  14.248  10.333 -0.1651 -0.1757  0.2981
  371loPI   C3A 5929   8.952  14.070   9.864 -0.0028 -0.1157  0.0876
  371loPI   C4A 5930   8.861  14.158   9.422 -0.0280  0.0946  0.5240
  371loPI   C5A 5931   8.984  14.371   8.946  0.3377 -0.1913 -0.0285
  371loPI   C6A 5932   8.806  14.797   8.850 -0.0734  0.1065 -0.0951
  371loPI   C1B 5933   8.805  14.654  10.621  0.2016 -0.0616  0.0910
  371loPI   C2B 5934   8.786  14.758  10.191  0.0241  0.1084  0.1489
  371loPI   C3B 5935   8.685  14.884   9.804 -0.2329  0.2299 -0.1977
  371loPI   C4B 5936   8.633  14.798   9.374 -0.3908  0.1961  0.0662
  372loPI    C1 5937  12.548   4.426  11.466 -0.0249  0.0572 -0.2131
  372loPI    C2 5938  12.827   4.139  11.458 -0.0748  0.0062 -0.1349
  372loPI    C3 5939  12.845   4.427  11.735 -0.1186 -0.0162 -0.1087
  372loPI   PO4 5940  12.531   4.434  11.209 -0.0479 -0.0219  0.0035
  372loPI   GL1 5941  12.420   4.384  10.811  0.1935 -0.2508 -0.1208
  372loPI   GL2 5942  12.301   4.114  10.819 -0.0703 -0.0704 -0.1435
  372loPI   C1A 5943  12.678   4.349  10.394 -0.1894 -0.1421  0.0028
  372loPI   C2A 5944  12.786   4.296   9.905  0.3129 -0.0547  0.0899
  372loPI   C3A 5945  12.808   4.371   9.414 -0.1059  0.0374 -0.1142
  372loPI   C4A 5946  12.886   4.484   8.980  0.5866  0.1637  0.0276
  372loPI   C5A 5947  12.967   4.369   8.559 -0.0653 -0.0801  0.0608
  372loPI   C6A 5948  12.903   4.714   8.342 -0.2308 -0.0788 -0.0884
  372loPI   C1B 5949  12.218   4.175  10.361  0.2965  0.1688  0.0570
  372loPI   C2B 5950  12.199   4.210   9.971  0.0129  0.1800  0.0792
  372loPI   C3B 5951  12.190   4.214   9.518  0.1919  0.1161  0.2701
  372loPI   C4B 5952  12.402   4.278   9.101  0.0700  0.1164 -0.1901
  373loPI    C1 5953  10.116   5.510  11.220  0.0066 -0.0566  0.0971
  373loPI    C2 5954   9.967   5.738  11.512 -0.0011  0.2181 -0.1168
  373loPI    C3 5955  10.193   5.420  11.602 -0.0931  0.2354  0.1883
  373loPI   PO4 5956   9.822   5.472  11.012 -0.2894  0.1839 -0.0358
  373loPI   GL1 5957   9.564   5.562  10.678 -0.2015 -0.0224 -0.1060
  373loPI   GL2 5958   9.431   5.247  10.645 -0.0954  0.0219  0.0695
  373loPI   C1A 5959   9.688   5.541  10.232  0.0478 -0.0739  0.2222
  373loPI   C2A 5960   9.807   5.537   9.698 -0.0119  0.0237  0.2276
  373loPI   C3A 5961   9.697   5.627   9.300  0.2325  0.2990  0.0390
  373loPI   C4A 5962   9.651   5.799   8.942  0.1524 -0.3151 -0.3379
  373loPI   C5A 5963   9.927   5.880   8.546  0.0937  0.1397  0.1600
  373loPI   C6A 5964  10.388   5.752   8.360  0.1482 -0.1253 -0.4675
  373loPI   C1B 5965   9.388   5.079  10.279 -0.0654 -0.0710 -0.1600
  373loPI   C2B 5966   9.417   5.194   9.847 -0.1266 -0.0769  0.1004
  373loPI   C3B 5967   9.527   5.161   9.402  0.0595  0.2477  0.0065
  373loPI   C4B 5968   9.510   5.217   9.005 -0.0416  0.1622  0.0569
  374loPI    C1 5969   5.377   1.679  11.393  0.1608 -0.0061 -0.0173
  374loPI    C2 5970   5.562   1.831  11.714  0.0573 -0.0453  0.0614
  374loPI    C3 5971   5.488   1.439  11.693 -0.1107 -0.0153  0.0782
  374loPI   PO4 5972   5.463   1.738  11.214 -0.0996  0.1787 -0.0075
  374loPI   GL1 5973   5.531   1.498  10.811 -0.1439  0.0070  0.2723
  374loPI   GL2 5974   5.425   1.207  10.732  0.2047  0.0350 -0.1328
  374loPI   C1A 5975   5.516   1.540  10.347 -0.2596  0.0333 -0.0621
  374loPI   C2A 5976   5.556   1.455   9.897  0.1112  0.0683 -0.1436
  374loPI   C3A 5977   5.513   1.502   9.452  0.1960 -0.0078  0.2070
  374loPI   C4A 5978   5.687   1.579   9.111  0.1366  0.0003 -0.0588
  374loPI   C5A 5979   5.924   1.788   8.853  0.5342  0.0485 -0.1668
  374loPI   C6A 5980   6.026   1.667   8.411  0.1917  0.0599  0.1272
  374loPI   C1B 5981   5.391   1.062  10.364  0.0374 -0.2129 -0.0335
  374loPI   C2B 5982   5.314   1.028   9.978  0.1444  0.0231 -0.1116
  374loPI   C3B 5983   5.374   1.037   9.533  0.1100  0.2910 -0.2385
  374loPI   C4B 5984   5.358   1.111   9.091 -0.0844 -0.1202 -0.0907
  375loPI    C1 5985  12.659   8.358  11.944  0.1051 -0.1347 -0.0616
  375loPI    C2 5986  13.036   8.405  12.069  0.0658  0.1868 -0.0580
  375loPI    C3 5987  12.732   8.508  12.307 -0.0221  0.0870 -0.1263
  375loPI   PO4 5988  12.757   8.471  11.627 -0.0622  0.0002 -0.0992
  375loPI   GL1 5989  12.820   8.672  11.229 -0.2445 -0.1546 -0.1355
  375loPI   GL2 5990  12.933   8.357  11.150 -0.2690 -0.0255 -0.1464
  375loPI   C1A 5991  13.037   8.798  10.839  0.3242 -0.1326 -0.3151
  375loPI   C2A 5992  13.047   8.874  10.391 -0.0211 -0.1687 -0.3159
  375loPI   C3A 5993  13.085   8.956  10.006  0.1459  0.0041  0.0269
  375loPI   C4A 5994  13.021   8.952   9.578 -0.2690 -0.1800  0.0004
  375loPI   C5A 5995  13.118   9.066   9.177 -0.0614  0.1068 -0.2176
  375loPI   C6A 5996  13.396   9.296   8.889  0.0817  0.2578  0.1596
  375loPI   C1B 5997  12.877   8.348  10.693  0.0563 -0.1367 -0.0745
  375loPI   C2B 5998  12.997   8.350  10.247  0.0374 -0.0847 -0.2064
  375loPI   C3B 5999  13.003   8.289   9.772 -0.0953 -0.0360 -0.0599
  375loPI   C4B 6000  12.971   8.391   9.367  0.0337 -0.0727 -0.0646
  376loPI    C1 6001   1.224   7.445  11.497 -0.0172  0.1407  0.1208
  376loPI    C2 6002   1.546   7.422  11.732 -0.0196 -0.1808  0.0973
  376loPI    C3 6003   1.304   7.106  11.694 -0.2378 -0.0010 -0.0285
  376loPI   PO4 6004   1.204   7.679  11.382 -0.0964  0.0208 -0.1950
  376loPI   GL1 6005   1.351   7.758  11.121 -0.0572  0.0193 -0.1540
  376loPI   GL2 6006   1.074   7.995  11.014  0.2669 -0.0681 -0.0508
  376loPI   C1A 6007   1.489   7.705  10.781 -0.0831 -0.0461 -0.1361
  376loPI   C2A 6008   1.565   7.764  10.389  0.0747 -0.0754  0.2265
  376loPI   C3A 6009   1.503   7.755  10.060  0.2721 -0.0106  0.1390
  376loPI   C4A 6010   1.529   7.766   9.610  0.0615 -0.0029  0.1521
  376loPI   C5A 6011   1.457   7.649   9.247 -0.0206 -0.1569  0.0911
  376loPI   C6A 6012   1.545   7.467   8.956  0.1439 -0.0052  0.1632
  376loPI   C1B 6013   1.203   8.134  10.549 -0.0337  0.2997 -0.5146
  376loPI   C2B 6014   1.099   8.127  10.138 -0.2648  0.0347 -0.2954
  376loPI   C3B 6015   1.056   7.958   9.689  0.1453  0.0639  0.1569
  376loPI   C4B 6016   1.100   8.045   9.230 -0.1144  0.2087 -0.0573
  377loPI    C1 6017   7.479   5.344  11.462 -0.1760 -0.0374  0.0697
  377loPI    C2 6018   7.221   5.163  11.216 -0.2739  0.1424  0.0385
  377loPI    C3 6019   7.296   5.007  11.577 -0.1294 -0.1226 -0.1035
  377loPI   PO4 6020   7.657   5.438  11.244 -0.1216  0.1284  0.1934
  377loPI   GL1 6021   7.663   5.221  10.874 -0.0398  0.0838  0.4808
  377loPI   GL2 6022   7.987   5.300  10.636  0.1374  0.0178  0.2668
  377loPI   C1A 6023   7.606   4.949  10.491 -0.1607 -0.1787  0.0109
  377loPI   C2A 6024   7.588   5.019  10.045 -0.1680  0.1173 -0.4250
  377loPI   C3A 6025   7.551   4.986   9.613  0.0354  0.2140  0.2464
  377loPI   C4A 6026   7.508   5.076   9.258 -0.1116 -0.0735 -0.2689
  377loPI   C5A 6027   7.731   5.170   8.865  0.4276  0.2813 -0.1705
  377loPI   C6A 6028   8.157   5.253   8.610 -0.0224 -0.1772 -0.1397
  377loPI   C1B 6029   7.909   5.337  10.196 -0.3608 -0.3034  0.1395
  377loPI   C2B 6030   7.904   5.423   9.687 -0.0592  0.1749  0.0138
  377loPI   C3B 6031   7.906   5.391   9.278 -0.2087 -0.0123 -0.2764
  377loPI   C4B 6032   7.949   5.649   8.923 -0.0172 -0.1363 -0.1786
  378loPI    C1 6033   3.101  16.806  11.919 -0.0367 -0.1918  0.0536
  378loPI    C2 6034   3.055  16.577  12.243 -0.0413 -0.1484  0.0839
  378loPI    C3 6035   3.217  16.941  12.277 -0.0415 -0.1439  0.0372
  378loPI   PO4 6036   3.306  16.682  11.686  0.1225  0.1595  0.1913
  378loPI   GL1 6037   3.241  16.788  11.265 -0.0525 -0.1296  0.0227
  378loPI   GL2 6038   3.327  17.053  11.127 -0.2096 -0.0431  0.1516
  378loPI   C1A 6039   3.409  16.502  10.869 -0.0877 -0.0160 -0.1551
  378loPI   C2A 6040   3.410  16.574  10.389 -0.1269 -0.0755 -0.0533
  378loPI   C3A 6041   3.332  16.604   9.941  0.1728  0.0456 -0.3093
  378loPI   C4A 6042   3.459  16.611   9.534  0.0779 -0.0351 -0.0010
  378loPI   C5A 6043   3.698  16.602   9.199  0.1236 -0.1191  0.1185
  378loPI   C6A 6044   3.903  16.675   8.810  0.0753  0.0445 -0.1062
  378loPI   C1B 6045   3.428  17.051  10.697  0.0125  0.0187 -0.2339
  378loPI   C2B 6046   3.415  17.057  10.232 -0.0836  0.2496 -0.0725
  378loPI   C3B 6047   3.488  17.053   9.767  0.1280 -0.2513  0.0573
  378loPI   C4B 6048   3.498  17.132   9.301 -0.0940 -0.2622  0.2634
  379loPI    C1 6049  14.867  11.709  11.968 -0.1576 -0.2054 -0.0817
  379loPI    C2 6050  15.159  11.528  12.172  0.0358  0.0610 -0.1175
  379loPI    C3 6051  14.813  11.612  12.353  0.1964  0.2728  0.0978
  379loPI   PO4 6052  14.863  11.531  11.621  0.2262 -0.1928 -0.4059
  379loPI   GL1 6053  14.568  11.527  11.299  0.0011 -0.0053 -0.1413
  379loPI   GL2 6054  14.297  11.718  11.152 -0.0196 -0.0045  0.0210
  379loPI   C1A 6055  14.750  11.451  10.972  0.4383  0.1262 -0.0484
  379loPI   C2A 6056  14.861  11.511  10.522  0.1188 -0.1242  0.0545
  379loPI   C3A 6057  14.839  11.518  10.171  0.1205 -0.1470  0.1520
  379loPI   C4A 6058  14.856  11.563   9.705  0.3422  0.2036 -0.2290
  379loPI   C5A 6059  15.019  11.618   9.280  0.0478 -0.0893 -0.0591
  379loPI   C6A 6060  15.085  11.826   8.920 -0.0104  0.0440 -0.1750
  379loPI   C1B 6061  14.401  11.777  10.682  0.3834  0.2792 -0.2802
  379loPI   C2B 6062  14.417  11.766  10.254 -0.2103 -0.3400 -0.2814
  379loPI   C3B 6063  14.450  11.892   9.755  0.2430  0.0770 -0.0129
  379loPI   C4B 6064  14.506  11.858   9.288  0.0391 -0.0537 -0.2197
  380loPI    C1 6065   2.435   9.316  12.134 -0.2649 -0.0190  0.0312
  380loPI    C2 6066   2.533   9.682  12.261 -0.1001 -0.0859  0.0999
  380loPI    C3 6067   2.266   9.464  12.465 -0.0465 -0.0832  0.1732
  380loPI   PO4 6068   2.440   9.337  11.860  0.2195 -0.1160 -0.0232
  380loPI   GL1 6069   2.446   9.503  11.470 -0.0207 -0.0872 -0.1830
  380loPI   GL2 6070   2.726   9.310  11.377  0.0091 -0.0153  0.0343
  380loPI   C1A 6071   2.231   9.573  11.044  0.2695  0.0964  0.1245
  380loPI   C2A 6072   2.321   9.428  10.643 -0.1519 -0.3348 -0.0156
  380loPI   C3A 6073   2.238   9.429  10.307 -0.0578  0.0209 -0.3748
  380loPI   C4A 6074   2.161   9.448   9.859 -0.0179  0.2796 -0.1506
  380loPI   C5A 6075   2.220   9.340   9.423  0.0838  0.0482 -0.1137
  380loPI   C6A 6076   1.955   9.452   9.072  0.1653  0.2436  0.1640
  380loPI   C1B 6077   2.782   9.114  10.903 -0.1678 -0.1981 -0.0119
  380loPI   C2B 6078   2.695   9.151  10.452  0.1123  0.1746  0.0830
  380loPI   C3B 6079   2.586   9.205  10.018  0.0603  0.0313  0.1634
  380loPI   C4B 6080   2.568   9.046   9.585  0.0404 -0.3334  0.1891
  381loPI    C1 6081   5.177  16.015  11.411 -0.0675 -0.1136 -0.0339
  381loPI    C2 6082   5.194  16.103  11.801  0.1866  0.3008 -0.1320
  381loPI    C3 6083   5.489  15.894  11.629  0.0472  0.0692 -0.0939
  381loPI   PO4 6084   4.968  15.895  11.375 -0.2863  0.2838 -0.1540
  381loPI   GL1 6085   4.603  15.940  11.018 -0.5598  0.0873 -0.1049
  381loPI   GL2 6086   4.872  16.167  10.950  0.1011  0.0405 -0.0851
  381loPI   C1A 6087   4.558  15.607  10.718 -0.2409 -0.0259 -0.0310
  381loPI   C2A 6088   4.640  15.612  10.376 -0.0180  0.0737  0.1316
  381loPI   C3A 6089   4.598  15.643   9.951 -0.0611 -0.1827  0.0931
  381loPI   C4A 6090   4.708  15.589   9.535 -0.1383 -0.2528  0.2020
  381loPI   C5A 6091   4.848  15.331   9.197 -0.2053 -0.0154  0.2398
  381loPI   C6A 6092   4.978  15.159   8.817 -0.2407 -0.2134  0.1037
  381loPI   C1B 6093   4.709  16.176  10.548 -0.0333  0.5057  0.0971
  381loPI   C2B 6094   4.687  16.110  10.159 -0.0238  0.1863  0.2254
  381loPI   C3B 6095   4.788  16.153   9.744 -0.1906 -0.0622 -0.0899
  381loPI   C4B 6096   4.693  16.078   9.215 -0.3860  0.1830 -0.4323
  382loPI    C1 6097   8.310  11.672  11.716 -0.0593  0.1322 -0.0492
  382loPI    C2 6098   7.967  11.652  11.920  0.1118  0.0031  0.2324
  382loPI    C3 6099   8.225  11.950  11.989 -0.0101  0.1895 -0.0918
  382loPI   PO4 6100   8.176  11.612  11.487  0.0500  0.3924  0.0479
  382loPI   GL1 6101   8.161  11.649  11.056 -0.0199  0.1196  0.0787
  382loPI   GL2 6102   8.476  11.618  10.901 -0.5698 -0.0375  0.2752
  382loPI   C1A 6103   7.978  11.617  10.656  0.3007 -0.1801  0.1340
  382loPI   C2A 6104   7.897  11.586  10.221  0.4116  0.4230  0.1852
  382loPI   C3A 6105   7.933  11.607   9.814 -0.0254 -0.1228  0.1015
  382loPI   C4A 6106   7.951  11.634   9.346  0.0067 -0.2263  0.0730
  382loPI   C5A 6107   8.107  11.713   8.973  0.1908  0.1419  0.4654
  382loPI   C6A 6108   8.440  11.633   8.682 -0.1121  0.2537  0.1962
  382loPI   C1B 6109   8.377  11.563  10.433 -0.0928  0.3053 -0.2505
  382loPI   C2B 6110   8.414  11.507   9.958 -0.0202 -0.0172 -0.0097
  382loPI   C3B 6111   8.482  11.531   9.491 -0.1204 -0.1250 -0.1952
  382loPI   C4B 6112   8.381  11.323   9.177  0.2054 -0.0711  0.1325
  383loPI    C1 6113   0.239   4.552  11.784 -0.0877 -0.3251 -0.0699
  383loPI    C2 6114  -0.067   4.626  11.537 -0.0406  0.2193  0.0221
  383loPI    C3 6115  -0.090   4.732  11.922  0.0932 -0.1443  0.1343
  383loPI   PO4 6116   0.308   4.313  11.664  0.1184  0.0080 -0.1307
  383loPI   GL1 6117   0.423   4.253  11.359  0.2093  0.3299 -0.0742
  383loPI   GL2 6118   0.197   4.205  11.176  0.3066 -0.1111  0.1258
  383loPI   C1A 6119   0.607   4.417  10.939 -0.1663 -0.3208  0.3176
  383loPI   C2A 6120   0.476   4.364  10.609 -0.0766 -0.1334  0.4026
  383loPI   C3A 6121   0.389   4.493  10.244  0.0381 -0.2356 -0.2315
  383loPI   C4A 6122   0.499   4.581   9.814 -0.0743  0.0700 -0.1820
  383loPI   C5A 6123   0.483   4.714   9.459  0.2044  0.1107 -0.0912
  383loPI   C6A 6124   0.555   5.037   9.187 -0.1890  0.2192  0.2813
  383loPI   C1B 6125   0.027   4.210  10.771  0.0873  0.0821 -0.1151
  383loPI   C2B 6126  -0.046   4.232  10.332 -0.0075  0.3055 -0.0298
  383loPI   C3B 6127   0.039   4.287   9.839 -0.1339 -0.1727  0.0990
  383loPI   C4B 6128  -0.022   4.355   9.343 -0.1205 -0.2086 -0.1845
  384loPI    C1 6129  11.144   2.873  11.514 -0.2325  0.1815 -0.2546
  384loPI    C2 6130  11.244   3.252  11.436 -0.1248  0.2215  0.0654
  384loPI    C3 6131  11.235   3.121  11.814 -0.1315 -0.1038 -0.0446
  384loPI   PO4 6132  11.215   2.764  11.364  0.1474 -0.1249  0.0681
  384loPI   GL1 6133  11.048   2.548  11.041  0.2653 -0.0032 -0.0447
  384loPI   GL2 6134  11.238   2.708  10.820  0.0693 -0.1613  0.0301
  384loPI   C1A 6135  10.756   2.544  10.707 -0.0699  0.1448  0.0187
  384loPI   C2A 6136  10.357   2.524  10.527 -0.1920 -0.0688  0.1594
  384loPI   C3A 6137  10.174   2.406  10.199 -0.0513  0.0132  0.3331
  384loPI   C4A 6138  10.235   2.280   9.794 -0.0152 -0.2256 -0.1096
  384loPI   C5A 6139  10.224   2.331   9.294  0.3756 -0.1301 -0.2044
  384loPI   C6A 6140   9.971   2.384   8.824 -0.0965  0.0089 -0.0347
  384loPI   C1B 6141  11.184   2.699  10.450 -0.2695  0.0210  0.1177
  384loPI   C2B 6142  11.170   2.665   9.975  0.0630 -0.0164  0.1664
  384loPI   C3B 6143  11.101   2.763   9.586  0.1883 -0.0213  0.1174
  384loPI   C4B 6144  11.232   2.828   9.249 -0.0036  0.0643 -0.0357
  385loPI    C1 6145   8.404  15.365  11.760 -0.0183  0.0366 -0.1938
  385loPI    C2 6146   8.018  15.327  11.859  0.0055 -0.2438 -0.1988
  385loPI    C3 6147   8.276  15.033  11.943  0.2535  0.0122 -0.0419
  385loPI   PO4 6148   8.412  15.370  11.541  0.0217 -0.1817 -0.1010
  385loPI   GL1 6149   8.457  15.365  11.078  0.3883  0.1114  0.0832
  385loPI   GL2 6150   8.138  15.437  10.985 -0.1393 -0.0536  0.1269
  385loPI   C1A 6151   8.520  15.124  10.787 -0.1197 -0.1515 -0.0590
  385loPI   C2A 6152   8.594  15.199  10.402 -0.1839  0.0559 -0.0019
  385loPI   C3A 6153   8.593  15.342   9.972  0.2316 -0.0897  0.2712
  385loPI   C4A 6154   8.467  15.302   9.530  0.1261 -0.3156 -0.2807
  385loPI   C5A 6155   8.551  15.327   9.100 -0.0674 -0.1207 -0.0549
  385loPI   C6A 6156   8.941  15.293   8.915 -0.0670 -0.0382 -0.2597
  385loPI   C1B 6157   8.083  15.251  10.606  0.1337  0.0233 -0.0052
  385loPI   C2B 6158   8.134  15.234  10.167  0.3074  0.1244  0.1354
  385loPI   C3B 6159   8.013  15.299   9.765 -0.2658  0.1922  0.0504
  385loPI   C4B 6160   7.992  15.412   9.265 -0.1921 -0.2796  0.3934
  386loPI    C1 6161   6.554  14.923  11.454 -0.0251 -0.0034 -0.1348
  386loPI    C2 6162   6.308  14.742  11.196  0.0834 -0.1018 -0.1698
  386loPI    C3 6163   6.387  14.572  11.550  0.1971 -0.1311 -0.2089
  386loPI   PO4 6164   6.766  15.029  11.283 -0.1733  0.3996 -0.0800
  386loPI   GL1 6165   6.673  14.962  10.875  0.1215 -0.0940  0.0126
  386loPI   GL2 6166   6.592  15.283  10.846 -0.2283 -0.3302  0.0043
  386loPI   C1A 6167   6.691  15.097  10.428 -0.4012 -0.2119  0.0708
  386loPI   C2A 6168   6.687  15.132   9.955 -0.1210 -0.0172 -0.3091
  386loPI   C3A 6169   6.777  15.146   9.534 -0.0420 -0.4747  0.1974
  386loPI   C4A 6170   6.768  15.109   9.114  0.0713 -0.0666 -0.1164
  386loPI   C5A 6171   6.456  15.135   8.845  0.1053 -0.0620  0.0295
  386loPI   C6A 6172   6.322  15.381   8.499  0.1548  0.3070  0.3058
  386loPI   C1B 6173   6.534  15.579  10.522  0.1662  0.0225  0.0871
  386loPI   C2B 6174   6.527  15.592  10.162  0.1804  0.4903 -0.0334
  386loPI   C3B 6175   6.462  15.580   9.728 -0.1303 -0.0053  0.2741
  386loPI   C4B 6176   6.558  15.555   9.234  0.0031 -0.2280  0.0323
  387loPI    C1 6177  12.061   4.559  11.187 -0.0929 -0.2475  0.1665
  387loPI    C2 6178  12.060   4.689  11.566  0.1793 -0.0163  0.0910
  387loPI    C3 6179  11.908   4.918  11.275  0.2514 -0.0594  0.0188
  387loPI   PO4 6180  11.999   4.287  11.174 -0.2949  0.1496 -0.0009
  387loPI   GL1 6181  11.681   3.966  10.884 -0.1906  0.0875  0.2592
  387loPI   GL2 6182  11.911   3.748  10.984  0.0816 -0.3153  0.0388
  387loPI   C1A 6183  11.723   4.009  10.460 -0.3622  0.3220  0.0509
  387loPI   C2A 6184  11.757   3.937   9.993 -0.1030  0.1440  0.1722
  387loPI   C3A 6185  11.620   3.952   9.611 -0.0077 -0.1930 -0.1105
  387loPI   C4A 6186  11.807   4.088   9.193  0.0371 -0.3123  0.1867
  387loPI   C5A 6187  11.632   4.006   8.746  0.0767 -0.0784  0.3948
  387loPI   C6A 6188  11.678   4.065   8.275 -0.0222  0.2475  0.0226
  387loPI   C1B 6189  12.094   3.687  10.625  0.0442 -0.0907 -0.2848
  387loPI   C2B 6190  12.172   3.723  10.190  0.3046  0.2349  0.0364
  387loPI   C3B 6191  12.233   3.756   9.749  0.3264  0.1368  0.1578
  387loPI   C4B 6192  12.303   3.673   9.342 -0.0045  0.1811  0.1461
  388loPI    C1 6193  15.234   3.722  11.713 -0.0361 -0.2123  0.2074
  388loPI    C2 6194  15.344   3.383  11.895 -0.2926 -0.1393  0.5069
  388loPI    C3 6195  14.956   3.477  11.865 -0.2670 -0.2057 -0.1896
  388loPI   PO4 6196  15.333   3.703  11.456 -0.2178 -0.1945 -0.1528
  388loPI   GL1 6197  15.262   3.605  10.994  0.0392  0.3172  0.2432
  388loPI   GL2 6198  15.042   3.311  10.869  0.0065  0.1311 -0.2454
  388loPI   C1A 6199  15.421   3.490  10.632  0.3016 -0.1727  0.1381
  388loPI   C2A 6200  15.473   3.447  10.226 -0.0189 -0.1100  0.0424
  388loPI   C3A 6201  15.302   3.527   9.800 -0.4873  0.0647  0.3314
  388loPI   C4A 6202  15.418   3.788   9.360 -0.3288  0.0737  0.0432
  388loPI   C5A 6203  15.259   3.921   9.062  0.2113 -0.1563  0.1872
  388loPI   C6A 6204  15.169   3.882   8.620 -0.0980  0.0473  0.1887
  388loPI   C1B 6205  15.018   3.270  10.543  0.3037  0.1774  0.1671
  388loPI   C2B 6206  14.942   3.278  10.068  0.1978  0.1973 -0.1136
  388loPI   C3B 6207  14.918   3.268   9.676 -0.0669 -0.0106 -0.1142
  388loPI   C4B 6208  14.963   3.594   9.357  0.0648 -0.0991 -0.0212
  389loPI    C1 6209   4.005   8.389  11.505  0.1945 -0.0568  0.0992
  389loPI    C2 6210   3.894   8.134  11.791  0.0151 -0.0427  0.0437
  389loPI    C3 6211   3.927   8.524  11.873  0.2481 -0.0765  0.1178
  389loPI   PO4 6212   3.860   8.323  11.333 -0.1401  0.0819  0.0226
  389loPI   GL1 6213   3.875   8.210  10.977 -0.0001 -0.0479  0.1379
  389loPI   GL2 6214   3.478   8.176  11.088 -0.1794  0.0124  0.4429
  389loPI   C1A 6215   4.028   8.115  10.582 -0.2026  0.0970  0.0580
  389loPI   C2A 6216   3.841   8.085  10.190 -0.3450  0.1083  0.1838
  389loPI   C3A 6217   3.895   8.057   9.793 -0.0111 -0.1547  0.2654
  389loPI   C4A 6218   3.687   8.019   9.372 -0.1469 -0.1496 -0.1276
  389loPI   C5A 6219   3.786   8.123   8.938 -0.0458 -0.3228 -0.3548
  389loPI   C6A 6220   3.675   8.132   8.564  0.0026 -0.0831 -0.2252
  389loPI   C1B 6221   3.563   8.471  10.686  0.3174 -0.0274 -0.0093
  389loPI   C2B 6222   3.518   8.458  10.206 -0.2790 -0.1616 -0.2831
  389loPI   C3B 6223   3.519   8.447   9.805 -0.3621 -0.2174 -0.0264
  389loPI   C4B 6224   3.301   8.394   9.387 -0.0049  0.1406 -0.1741
  390loPI    C1 6225  11.165   9.092  11.631  0.0340 -0.1495  0.0321
  390loPI    C2 6226  10.781   9.009  11.707  0.0166 -0.0226  0.0843
  390loPI    C3 6227  11.066   8.886  11.959  0.0243 -0.2456 -0.0306
  390loPI   PO4 6228  11.231   9.024  11.359  0.0930 -0.2389 -0.0283
  390loPI   GL1 6229  11.137   9.045  10.933  0.0969 -0.0342 -0.0807
  390loPI   GL2 6230  11.195   9.388  10.969  0.2193  0.1558  0.1272
  390loPI   C1A 6231  11.210   9.049  10.552  0.1904 -0.0756  0.0698
  390loPI   C2A 6232  11.244   9.109  10.106 -0.1462  0.0926 -0.2797
  390loPI   C3A 6233  11.287   9.221   9.661  0.3320 -0.1825  0.1652
  390loPI   C4A 6234  11.407   9.134   9.257  0.1714 -0.0373 -0.2311
  390loPI   C5A 6235  11.578   9.063   8.873  0.0723 -0.0639  0.0343
  390loPI   C6A 6236  11.627   9.181   8.524  0.0778  0.2365  0.0125
  390loPI   C1B 6237  11.223   9.563  10.570  0.0386  0.0772 -0.0990
  390loPI   C2B 6238  11.269   9.574  10.207  0.1597 -0.2434  0.0974
  390loPI   C3B 6239  11.273   9.726   9.872  0.0837 -0.0414 -0.0173
  390loPI   C4B 6240  11.290   9.686   9.471  0.2827 -0.1689 -0.0440
  391loPI    C1 6241   4.279  15.596  11.745 -0.1493  0.2035  0.1093
  391loPI    C2 6242   4.027  15.655  12.050 -0.0407  0.1503  0.2104
  391loPI    C3 6243   4.422  15.652  12.115 -0.0283 -0.2583  0.1390
  391loPI   PO4 6244   4.091  15.504  11.583 -0.0942 -0.1685  0.0075
  391loPI   GL1 6245   4.307  15.476  11.099  0.1220  0.3258 -0.2006
  391loPI   GL2 6246   4.116  15.777  10.947  0.1106  0.0844  0.1713
  391loPI   C1A 6247   4.146  15.404  10.666 -0.1301  0.0732 -0.0051
  391loPI   C2A 6248   4.083  15.462  10.187  0.1151  0.1565 -0.1060
  391loPI   C3A 6249   4.150  15.452   9.811 -0.1166 -0.0305 -0.0057
  391loPI   C4A 6250   4.053  15.335   9.469  0.2944  0.0043  0.1892
  391loPI   C5A 6251   3.732  15.316   9.088  0.0727  0.2013  0.2524
  391loPI   C6A 6252   3.401  15.250   9.088  0.2909 -0.0980  0.1907
  391loPI   C1B 6253   4.177  15.892  10.536 -0.0460 -0.0280 -0.1858
  391loPI   C2B 6254   4.193  15.952  10.093 -0.1902 -0.1580  0.1985
  391loPI   C3B 6255   4.323  15.956   9.651 -0.2181 -0.0261 -0.0474
  391loPI   C4B 6256   4.209  15.741   9.276  0.2414  0.1876 -0.2762
  392loPI    C1 6257   7.648  16.720  11.727  0.0940  0.1651 -0.0198
  392loPI    C2 6258   7.653  16.490  12.055  0.2696  0.1337 -0.0437
  392loPI    C3 6259   7.398  16.797  12.029  0.1773  0.0674  0.0749
  392loPI   PO4 6260   7.638  16.507  11.553 -0.0947 -0.1659  0.2786
  392loPI   GL1 6261   7.674  16.536  11.111 -0.0823 -0.1155 -0.2721
  392loPI   GL2 6262   7.924  16.801  10.922  0.0654  0.1345 -0.0917
  392loPI   C1A 6263   7.698  16.366  10.618  0.0879 -0.2909 -0.2223
  392loPI   C2A 6264   7.604  16.332  10.162 -0.0000  0.2406  0.1946
  392loPI   C3A 6265   7.554  16.323   9.791  0.0952  0.1260 -0.0734
  392loPI   C4A 6266   7.634  16.424   9.428 -0.2334  0.2069 -0.4208
  392loPI   C5A 6267   7.698  16.328   8.977  0.1206  0.0997  0.2645
  392loPI   C6A 6268   7.524  16.247   8.558 -0.2111 -0.2330  0.3181
  392loPI   C1B 6269   8.123  16.763  10.478  0.1155  0.2674 -0.1428
  392loPI   C2B 6270   8.034  16.761  10.043  0.1214  0.0474 -0.0446
  392loPI   C3B 6271   8.028  16.766   9.614  0.3732  0.0246  0.1417
  392loPI   C4B 6272   7.936  16.855   9.177  0.0565 -0.1577 -0.4451
  393loPI    C1 6273  12.046  11.969  11.688  0.1545  0.0315  0.0060
  393loPI    C2 6274  12.311  12.237  11.553  0.1887  0.1154  0.2359
  393loPI    C3 6275  12.384  12.036  11.892  0.0606 -0.0242  0.1819
  393loPI   PO4 6276  12.029  11.773  11.491 -0.0807  0.2667  0.1427
  393loPI   GL1 6277  11.863  11.571  11.078 -0.0731  0.1243  0.1510
  393loPI   GL2 6278  11.995  11.345  10.897 -0.3313  0.3296 -0.0415
  393loPI   C1A 6279  11.589  11.649  10.718 -0.0578  0.1178 -0.3662
  393loPI   C2A 6280  11.610  11.713  10.302  0.0416  0.1680 -0.0559
  393loPI   C3A 6281  11.687  11.690   9.882  0.0279  0.0037  0.3307
  393loPI   C4A 6282  11.657  11.752   9.346 -0.0308  0.1548  0.1001
  393loPI   C5A 6283  11.518  11.927   8.844 -0.2404  0.3031 -0.0832
  393loPI   C6A 6284  11.715  12.038   8.500  0.2341  0.2822  0.2577
  393loPI   C1B 6285  12.027  11.327  10.458  0.3944 -0.0111  0.1365
  393loPI   C2B 6286  12.118  11.297  10.044  0.0958 -0.0058  0.0238
  393loPI   C3B 6287  12.104  11.378   9.574  0.1400 -0.0903 -0.0131
  393loPI   C4B 6288  12.077  11.505   9.209 -0.1265  0.2117 -0.0493
  394loPI    C1 6289  16.839   1.084  11.929 -0.0140  0.0299 -0.1200
  394loPI    C2 6290  17.064   0.793  12.087  0.1406  0.1123 -0.1858
  394loPI    C3 6291  16.847   1.031  12.325 -0.1122 -0.1565 -0.1418
  394loPI   PO4 6292  16.762   0.955  11.723  0.2272  0.0310  0.1135
  394loPI   GL1 6293  16.863   0.920  11.234  0.0543  0.2133 -0.2464
  394loPI   GL2 6294  16.549   0.969  11.271  0.1667 -0.3303 -0.3876
  394loPI   C1A 6295  16.837   0.707  10.843  0.1715  0.1324 -0.0211
  394loPI   C2A 6296  16.771   0.748  10.395  0.2471  0.1922  0.0388
  394loPI   C3A 6297  16.678   0.671   9.957 -0.3220 -0.2393 -0.0190
  394loPI   C4A 6298  16.767   0.697   9.459 -0.2865  0.2282 -0.0436
  394loPI   C5A 6299  17.042   0.658   9.123  0.2868  0.1643 -0.0921
  394loPI   C6A 6300  17.158   0.267   8.925  0.0520 -0.5787 -0.0731
  394loPI   C1B 6301  16.407   1.021  10.858  0.0229 -0.0253 -0.1019
  394loPI   C2B 6302  16.379   1.037  10.399  0.3362  0.1361  0.2294
  394loPI   C3B 6303  16.316   0.977   9.984  0.2661 -0.1482  0.1343
  394loPI   C4B 6304  16.261   1.133   9.549 -0.0249  0.0222  0.0774
  395loPI    C1 6305   8.267  14.425  11.730  0.1743 -0.1046 -0.0859
  395loPI    C2 6306   8.549  14.646  11.908 -0.0748  0.1273  0.0282
  395loPI    C3 6307   8.249  14.493  12.124  0.0458 -0.2527 -0.0650
  395loPI   PO4 6308   8.184  14.554  11.528  0.0160 -0.0562  0.4995
  395loPI   GL1 6309   8.141  14.436  11.211 -0.2331 -0.0810 -0.1266
  395loPI   GL2 6310   8.217  14.795  11.026 -0.0974 -0.0338 -0.1407
  395loPI   C1A 6311   8.032  14.345  10.791  0.1459  0.0945 -0.0262
  395loPI   C2A 6312   8.000  14.358  10.407  0.2597 -0.1550  0.1408
  395loPI   C3A 6313   7.950  14.384   9.896 -0.1478 -0.3194 -0.0487
  395loPI   C4A 6314   7.935  14.429   9.440 -0.1181 -0.1839  0.3001
  395loPI   C5A 6315   7.966  14.470   9.031 -0.1288 -0.0682 -0.1313
  395loPI   C6A 6316   7.745  14.291   8.739  0.2844  0.0374 -0.1638
  395loPI   C1B 6317   8.297  14.745  10.573  0.3664 -0.0629 -0.1441
  395loPI   C2B 6318   8.240  14.724  10.118  0.2412 -0.1120  0.0891
  395loPI   C3B 6319   8.183  14.782   9.642  0.0300 -0.0497 -0.1525
  395loPI   C4B 6320   8.177  14.953   9.300  0.0183 -0.0996 -0.0349
  396loPI    C1 6321   6.563   5.758  11.443  0.0367  0.1403  0.1092
  396loPI    C2 6322   6.419   5.806  11.814 -0.2115  0.2600 -0.0001
  396loPI    C3 6323   6.582   6.116  11.621  0.1496  0.1385  0.1015
  396loPI   PO4 6324   6.303   5.532  11.314  0.1181 -0.0661  0.0907
  396loPI   GL1 6325   6.294   5.289  10.853  0.0752 -0.3861 -0.0021
  396loPI   GL2 6326   6.001   5.469  10.824 -0.2533  0.1311 -0.4103
  396loPI   C1A 6327   6.258   5.437  10.382  0.0059  0.0342  0.1528
  396loPI   C2A 6328   6.256   5.518  10.051  0.0750  0.2344 -0.1144
  396loPI   C3A 6329   6.345   5.570   9.580  0.1954  0.0798 -0.1618
  396loPI   C4A 6330   6.455   5.577   9.116 -0.0410 -0.0919 -0.0259
  396loPI   C5A 6331   6.640   5.778   8.774 -0.2366  0.0850  0.0632
  396loPI   C6A 6332   6.841   6.004   8.520  0.0067  0.0377  0.0642
  396loPI   C1B 6333   5.729   5.505  10.546 -0.0263  0.0023 -0.2059
  396loPI   C2B 6334   5.757   5.609  10.127  0.4662 -0.0761  0.0761
  396loPI   C3B 6335   5.801   5.556   9.782  0.1084 -0.4086 -0.2502
  396loPI   C4B 6336   5.798   5.705   9.314 -0.0172  0.3938 -0.0228
  397loPI    C1 6337   0.832  15.951  11.662  0.3294  0.1157 -0.1497
  397loPI    C2 6338   0.928  16.049  12.038 -0.2064 -0.0933  0.0523
  397loPI    C3 6339   1.065  15.709  11.879 -0.0311 -0.0358  0.0781
  397loPI   PO4 6340   0.852  16.142  11.450 -0.1154  0.0115 -0.2848
  397loPI   GL1 6341   1.034  16.070  11.010 -0.0795 -0.3973 -0.1137
  397loPI   GL2 6342   0.658  16.075  10.972 -0.0662  0.1012  0.0241
  397loPI   C1A 6343   1.059  16.220  10.593 -0.0730  0.1444 -0.0840
  397loPI   C2A 6344   0.973  16.126  10.134  0.0931  0.2508  0.1483
  397loPI   C3A 6345   1.080  16.244   9.743  0.1349  0.3210 -0.0901
  397loPI   C4A 6346   0.991  16.203   9.326  0.0655 -0.0693 -0.2692
  397loPI   C5A 6347   1.234  16.303   8.910 -0.1743 -0.1140 -0.0679
  397loPI   C6A 6348   1.234  16.335   8.493  0.1709 -0.0767 -0.1134
  397loPI   C1B 6349   0.605  16.055  10.531  0.2966  0.3212  0.0377
  397loPI   C2B 6350   0.452  15.990  10.119 -0.1798  0.1351 -0.4049
  397loPI   C3B 6351   0.550  16.052   9.663 -0.0074  0.1354  0.2300
  397loPI   C4B 6352   0.477  16.209   9.300 -0.2848 -0.1697  0.1514
  398loPI    C1 6353   8.637   6.692  11.346  0.1209 -0.2552  0.0509
  398loPI    C2 6354   8.860   6.729  11.677  0.0941  0.2362  0.0223
  398loPI    C3 6355   8.551   6.976  11.615  0.1085  0.1610 -0.3780
  398loPI   PO4 6356   8.777   6.577  11.214 -0.3847 -0.2621  0.0338
  398loPI   GL1 6357   8.690   6.328  10.856 -0.0009 -0.2275 -0.0519
  398loPI   GL2 6358   8.895   6.527  10.747  0.1808 -0.1219  0.2474
  398loPI   C1A 6359   8.494   6.151  10.466 -0.1019 -0.0115  0.2185
  398loPI   C2A 6360   8.504   6.203  10.070 -0.0566 -0.0499  0.0007
  398loPI   C3A 6361   8.551   6.277   9.581  0.0919 -0.0551 -0.0708
  398loPI   C4A 6362   8.687   6.242   9.132  0.0366  0.0555 -0.0946
  398loPI   C5A 6363   8.718   6.518   8.771  0.3019  0.1957 -0.1188
  398loPI   C6A 6364   8.870   6.352   8.460 -0.0554  0.3054  0.3101
  398loPI   C1B 6365   8.847   6.557  10.331 -0.2205  0.1532 -0.1141
  398loPI   C2B 6366   8.829   6.636   9.953  0.0467 -0.2145  0.0336
  398loPI   C3B 6367   8.846   6.724   9.552  0.1069 -0.2191  0.0419
  398loPI   C4B 6368   8.985   6.610   9.190  0.1485  0.0395 -0.0326
  399loPI    C1 6369   4.945   5.525  11.144  0.0177  0.2256  0.0134
  399loPI    C2 6370   4.648   5.736  11.310  0.0548  0.2589  0.0375
  399loPI    C3 6371   5.018   5.758  11.460  0.0555  0.1639  0.0503
  399loPI   PO4 6372   4.884   5.574  10.932  0.4179  0.0119  0.2458
  399loPI   GL1 6373   4.648   5.580  10.581 -0.0909 -0.0301  0.1414
  399loPI   GL2 6374   4.444   5.836  10.427  0.0923 -0.2114 -0.0056
  399loPI   C1A 6375   4.415   5.286  10.329  0.1602  0.1347 -0.0955
  399loPI   C2A 6376   4.442   5.193   9.939  0.2035 -0.1921 -0.0025
  399loPI   C3A 6377   4.630   5.186   9.511 -0.1846  0.1881 -0.0724
  399loPI   C4A 6378   4.839   5.196   9.131  0.0632 -0.0289 -0.2855
  399loPI   C5A 6379   5.129   5.388   8.755 -0.2630  0.1519 -0.0683
  399loPI   C6A 6380   5.103   5.788   8.572  0.1273 -0.0088  0.1048
  399loPI   C1B 6381   4.637   5.695  10.064  0.0815 -0.1994 -0.0225
  399loPI   C2B 6382   4.656   5.730   9.624  0.3653 -0.0967  0.0331
  399loPI   C3B 6383   4.834   5.640   9.277  0.0549 -0.1606  0.1295
  399loPI   C4B 6384   4.640   5.704   8.888 -0.1099  0.1450 -0.3318
  400loPI    C1 6385   7.748  13.760  11.662 -0.0601 -0.2232 -0.0407
  400loPI    C2 6386   7.401  13.624  11.806 -0.1098 -0.1292 -0.0706
  400loPI    C3 6387   7.729  13.618  12.035 -0.1704 -0.0553  0.0188
  400loPI   PO4 6388   7.768  13.701  11.439 -0.0174 -0.2394 -0.3357
  400loPI   GL1 6389   7.806  13.835  11.085  0.0945  0.1819  0.0367
  400loPI   GL2 6390   8.062  13.895  10.962  0.1366 -0.0367  0.1870
  400loPI   C1A 6391   7.568  13.932  10.751  0.0524 -0.2143 -0.1156
  400loPI   C2A 6392   7.545  14.018  10.347 -0.0451 -0.0417  0.1366
  400loPI   C3A 6393   7.622  14.011   9.954  0.0448  0.2235 -0.1584
  400loPI   C4A 6394   7.590  14.130   9.465  0.2303 -0.2846  0.0376
  400loPI   C5A 6395   7.581  13.966   9.004  0.1400 -0.0506 -0.0075
  400loPI   C6A 6396   7.416  14.001   8.507 -0.0021  0.1143  0.1464
  400loPI   C1B 6397   8.108  13.888  10.529  0.1231 -0.5978  0.1020
  400loPI   C2B 6398   8.083  13.961  10.116  0.1295  0.2852 -0.0004
  400loPI   C3B 6399   8.085  13.924   9.674  0.2969  0.2929  0.3413
  400loPI   C4B 6400   8.092  13.995   9.141  0.2248 -0.1215  0.5795
  401loPI    C1 6401  14.699  12.832  11.862 -0.0100  0.1115 -0.1869
  401loPI    C2 6402  14.457  13.086  12.055 -0.1458 -0.2693  0.1582
  401loPI    C3 6403  14.813  12.991  12.212 -0.0101 -0.1432 -0.0688
  401loPI   PO4 6404  14.700  12.952  11.558  0.2991 -0.0441  0.2072
  401loPI   GL1 6405  14.963  12.912  11.169 -0.0460  0.2547 -0.1072
  401loPI   GL2 6406  14.778  12.635  11.094 -0.1972  0.1822  0.0131
  401loPI   C1A 6407  14.930  12.929  10.680 -0.0269  0.1150  0.1623
  401loPI   C2A 6408  15.090  13.027  10.244  0.0101  0.0077  0.0580
  401loPI   C3A 6409  15.164  13.065   9.847 -0.1040  0.0119 -0.1996
  401loPI   C4A 6410  15.240  13.042   9.447  0.0806  0.0650 -0.1769
  401loPI   C5A 6411  15.175  13.034   9.050 -0.1030 -0.3749 -0.0445
  401loPI   C6A 6412  15.005  13.345   8.830 -0.3895  0.1165 -0.1320
  401loPI   C1B 6413  14.482  12.712  10.844  0.0606 -0.1475  0.1149
  401loPI   C2B 6414  14.491  12.849  10.427 -0.0976 -0.3539  0.0483
  401loPI   C3B 6415  14.623  12.882   9.941 -0.0637 -0.1392  0.1241
  401loPI   C4B 6416  14.726  12.819   9.489 -0.0829 -0.0021  0.0724
  402loPI    C1 6417  10.232  16.770  11.648  0.2722  0.0952 -0.1482
  402loPI    C2 6418  10.203  16.868  12.034 -0.2089 -0.0376 -0.1437
  402loPI    C3 6419  10.264  16.487  11.928 -0.2382 -0.0262 -0.2015
  402loPI   PO4 6420  10.441  16.895  11.519  0.2290  0.0465  0.0957
  402loPI   GL1 6421  10.564  16.947  11.150 -0.0425  0.0844  0.0140
  402loPI   GL2 6422  10.403  16.612  11.053  0.1924  0.0315 -0.1159
  402loPI   C1A 6423  10.615  17.230  10.844  0.0419  0.1710  0.1568
  402loPI   C2A 6424  10.633  17.186  10.446  0.2990  0.0261  0.2413
  402loPI   C3A 6425  10.666  17.179   9.941  0.0882  0.1697  0.0250
  402loPI   C4A 6426  10.793  17.116   9.592 -0.0117 -0.1512  0.0179
  402loPI   C5A 6427  10.704  17.055   9.140  0.1270 -0.0199 -0.3548
  402loPI   C6A 6428  10.751  17.280   8.736 -0.3410 -0.2403  0.0589
  402loPI   C1B 6429  10.053  16.418  10.943 -0.0845 -0.1259 -0.2126
  402loPI   C2B 6430  10.000  16.313  10.608 -0.1233 -0.4431 -0.1385
  402loPI   C3B 6431   9.981  16.382  10.224  0.1566 -0.1878  0.2739
  402loPI   C4B 6432  10.105  16.375   9.795  0.0876  0.0538 -0.0114
  403loPI    C1 6433  14.863   7.882  11.755 -0.1635 -0.1941 -0.0129
  403loPI    C2 6434  15.108   7.736  12.035 -0.1428 -0.1059  0.0153
  403loPI    C3 6435  14.762   7.905  12.141 -0.0128  0.1696  0.0087
  403loPI   PO4 6436  14.827   7.649  11.568 -0.1625  0.0307  0.1960
  403loPI   GL1 6437  15.130   7.502  11.230 -0.0448  0.0002  0.2795
  403loPI   GL2 6438  15.083   7.206  11.214 -0.1209  0.0422 -0.2657
  403loPI   C1A 6439  15.143   7.746  10.881 -0.2056  0.0719  0.0861
  403loPI   C2A 6440  15.145   7.732  10.452  0.1523  0.1635  0.2709
  403loPI   C3A 6441  15.094   7.765  10.008 -0.2131  0.1020 -0.0479
  403loPI   C4A 6442  15.063   7.793   9.619  0.1332  0.1873  0.1161
  403loPI   C5A 6443  15.052   7.902   9.229  0.1594  0.2659 -0.2181
  403loPI   C6A 6444  15.057   8.077   8.795  0.1108 -0.0404  0.0162
  403loPI   C1B 6445  15.070   7.205  10.790 -0.0250  0.2980  0.0503
  403loPI   C2B 6446  15.087   7.236  10.340  0.0657  0.0292 -0.0539
  403loPI   C3B 6447  15.085   7.211  10.004 -0.3587  0.1294 -0.2068
  403loPI   C4B 6448  15.028   7.296   9.552  0.0822 -0.2662 -0.2127
  404loPI    C1 6449   7.945   3.894  11.671  0.0976  0.1634  0.2363
  404loPI    C2 6450   8.195   3.588  11.732 -0.1468 -0.0585  0.1426
  404loPI    C3 6451   8.194   3.898  11.984  0.2537 -0.0313  0.1175
  404loPI   PO4 6452   7.932   3.837  11.397  0.0806  0.1794 -0.2509
  404loPI   GL1 6453   7.860   3.755  10.982  0.1837 -0.1774  0.0756
  404loPI   GL2 6454   8.107   3.924  10.831  0.1801 -0.0780  0.0680
  404loPI   C1A 6455   7.631   3.992  10.709  0.1104 -0.0458 -0.1300
  404loPI   C2A 6456   7.371   3.986  10.342  0.1281  0.1475 -0.0573
  404loPI   C3A 6457   7.443   4.109   9.862 -0.2796 -0.0328  0.1468
  404loPI   C4A 6458   7.436   4.085   9.474 -0.1480  0.0871 -0.0535
  404loPI   C5A 6459   7.555   4.044   8.970 -0.0748 -0.2536 -0.2629
  404loPI   C6A 6460   7.314   3.949   8.657 -0.0122  0.1060  0.0755
  404loPI   C1B 6461   7.982   3.978  10.353 -0.0572  0.1787 -0.0825
  404loPI   C2B 6462   7.936   4.094   9.857  0.1082 -0.3398  0.1810
  404loPI   C3B 6463   7.939   3.944   9.496 -0.4084  0.0382  0.1859
  404loPI   C4B 6464   8.090   4.048   9.109 -0.0966  0.4972 -0.3279
  405loPI    C1 6465  14.789   3.151  11.533  0.2500 -0.0988  0.1357
  405loPI    C2 6466  14.840   3.520  11.388  0.0062 -0.1945 -0.2086
  405loPI    C3 6467  15.151   3.270  11.411  0.1926  0.0574  0.1155
  405loPI   PO4 6468  14.667   3.021  11.405 -0.2300  0.0052  0.0799
  405loPI   GL1 6469  14.862   2.878  11.046  0.0454 -0.0822 -0.1224
  405loPI   GL2 6470  14.708   2.527  11.189  0.0247  0.0199 -0.0077
  405loPI   C1A 6471  14.853   2.800  10.632  0.0675 -0.1105 -0.0959
  405loPI   C2A 6472  14.890   2.736  10.210  0.4463  0.0584 -0.1098
  405loPI   C3A 6473  14.855   2.796   9.788  0.2807 -0.0427  0.0426
  405loPI   C4A 6474  14.803   2.878   9.359  0.2676 -0.0821  0.0652
  405loPI   C5A 6475  14.896   3.148   9.102 -0.1781  0.1496 -0.2130
  405loPI   C6A 6476  14.870   3.561   8.853 -0.0522 -0.0434  0.1110
  405loPI   C1B 6477  14.609   2.296  10.834 -0.0100  0.1756 -0.1265
  405loPI   C2B 6478  14.703   2.248  10.367 -0.2215 -0.0585 -0.3105
  405loPI   C3B 6479  14.799   2.257   9.996 -0.0802 -0.0596  0.4235
  405loPI   C4B 6480  14.813   2.329   9.628  0.2424 -0.0395  0.1329
  406loPI    C1 6481  14.037  16.097  11.618 -0.1317 -0.0723 -0.0502
  406loPI    C2 6482  13.910  15.838  11.895 -0.2034 -0.0876 -0.0968
  406loPI    C3 6483  13.979  16.220  11.994 -0.2195 -0.0953 -0.0559
  406loPI   PO4 6484  13.960  15.882  11.411  0.0373 -0.2288 -0.1483
  406loPI   GL1 6485  13.802  15.843  11.046  0.1267 -0.1190 -0.0813
  406loPI   GL2 6486  13.581  16.088  11.082  0.1213  0.0245  0.4434
  406loPI   C1A 6487  13.722  15.817  10.567 -0.1370 -0.1701  0.0176
  406loPI   C2A 6488  13.656  15.819  10.108 -0.0505 -0.0030  0.2244
  406loPI   C3A 6489  13.735  15.898   9.738 -0.0564  0.1877 -0.0358
  406loPI   C4A 6490  13.672  15.805   9.269  0.1826 -0.2915  0.1688
  406loPI   C5A 6491  13.364  15.746   8.959 -0.2312 -0.1854  0.1467
  406loPI   C6A 6492  12.912  15.730   9.029  0.0410 -0.0625 -0.3089
  406loPI   C1B 6493  13.786  16.305  10.762 -0.0472 -0.1743 -0.0536
  406loPI   C2B 6494  13.784  16.401  10.391  0.0706 -0.0732 -0.0840
  406loPI   C3B 6495  13.815  16.362   9.905 -0.1852 -0.0849 -0.0084
  406loPI   C4B 6496  13.793  16.314   9.433  0.1330  0.0462  0.0773
  407loPI    C1 6497   2.112   6.567  11.416 -0.2874 -0.1525  0.1498
  407loPI    C2 6498   2.275   6.756  11.729  0.1111  0.1273 -0.2135
  407loPI    C3 6499   2.410   6.396  11.621 -0.1982 -0.0831  0.0793
  407loPI   PO4 6500   2.157   6.807  11.271  0.1737 -0.1254  0.2293
  407loPI   GL1 6501   1.877   6.759  10.894 -0.0123 -0.2382  0.2851
  407loPI   GL2 6502   1.790   6.979  10.917  0.3344  0.1124 -0.0813
  407loPI   C1A 6503   1.791   6.865  10.431  0.1978  0.0466  0.0546
  407loPI   C2A 6504   1.762   6.870   9.976 -0.1986  0.0824  0.1371
  407loPI   C3A 6505   1.761   6.844   9.586  0.1552 -0.2409  0.0476
  407loPI   C4A 6506   1.762   6.954   9.025 -0.0874 -0.1581 -0.0809
  407loPI   C5A 6507   2.130   6.932   8.869  0.1003 -0.0880 -0.1415
  407loPI   C6A 6508   2.334   6.629   8.544  0.0136 -0.0120  0.1176
  407loPI   C1B 6509   1.821   7.347  10.718 -0.1373  0.1080 -0.0001
  407loPI   C2B 6510   1.832   7.347  10.291  0.1947 -0.0088  0.0368
  407loPI   C3B 6511   1.862   7.399   9.823  0.0167 -0.1378  0.0032
  407loPI   C4B 6512   1.833   7.327   9.366  0.0486 -0.0062 -0.2508
  408loPI    C1 6513  10.264   5.039  11.321 -0.0310 -0.0232 -0.1234
  408loPI    C2 6514  10.361   4.672  11.448 -0.0328 -0.0631 -0.2369
  408loPI    C3 6515  10.103   4.894  11.657  0.0925 -0.0628 -0.0804
  408loPI   PO4 6516  10.202   5.041  11.103  0.1759  0.0335  0.0482
  408loPI   GL1 6517  10.373   4.991  10.683  0.1023  0.0447 -0.0713
  408loPI   GL2 6518   9.996   4.874  10.711 -0.2568 -0.1462  0.2849
  408loPI   C1A 6519  10.479   5.021  10.272 -0.0709  0.0578 -0.1577
  408loPI   C2A 6520  10.477   4.947   9.820  0.1515  0.0833  0.0167
  408loPI   C3A 6521  10.614   5.077   9.475  0.0889  0.0227  0.2879
  408loPI   C4A 6522  10.586   5.237   9.037  0.3903 -0.3280  0.6042
  408loPI   C5A 6523  10.860   5.547   8.770 -0.0598 -0.0820 -0.3624
  408loPI   C6A 6524  10.959   5.912   8.626 -0.0115  0.2246 -0.1483
  408loPI   C1B 6525   9.891   4.983  10.314 -0.1154 -0.1373 -0.1999
  408loPI   C2B 6526   9.935   5.081  10.013  0.0369  0.1287 -0.0798
  408loPI   C3B 6527  10.066   5.171   9.596  0.0210  0.0548  0.0834
  408loPI   C4B 6528  10.148   5.409   9.214  0.4648  0.0139  0.2118
  409loPI    C1 6529   7.957   9.905  11.743  0.0773  0.0537  0.1686
  409loPI    C2 6530   8.042   9.532  11.859 -0.1472  0.0038  0.1756
  409loPI    C3 6531   7.662   9.656  11.846 -0.0705  0.2474  0.2181
  409loPI   PO4 6532   8.113   9.964  11.544  0.0999  0.1565 -0.0979
  409loPI   GL1 6533   8.164   9.951  11.153 -0.0257  0.1208 -0.0056
  409loPI   GL2 6534   8.031  10.287  10.987 -0.1556  0.0107  0.1646
  409loPI   C1A 6535   7.887   9.846  10.753 -0.0220  0.2540 -0.2420
  409loPI   C2A 6536   7.916   9.777  10.271 -0.1291 -0.2071  0.0146
  409loPI   C3A 6537   8.017   9.629   9.917  0.1717 -0.1919  0.0342
  409loPI   C4A 6538   8.124   9.698   9.467 -0.3477 -0.0342 -0.1640
  409loPI   C5A 6539   8.322   9.858   9.059 -0.0134  0.0244  0.2657
  409loPI   C6A 6540   8.384  10.265   8.856 -0.2517 -0.0396 -0.2086
  409loPI   C1B 6541   7.972  10.269  10.459  0.0255  0.0522  0.1773
  409loPI   C2B 6542   7.950  10.241  10.036  0.0817 -0.1423  0.0283
  409loPI   C3B 6543   8.075  10.326   9.586 -0.1277  0.0047 -0.2922
  409loPI   C4B 6544   7.979  10.310   9.202  0.1346  0.0774  0.0569
  410loPI    C1 6545   5.976  16.103  11.679  0.0714  0.1441  0.2479
  410loPI    C2 6546   5.931  16.491  11.767 -0.0539  0.1167  0.3060
  410loPI    C3 6547   5.696  16.218  11.940  0.0374  0.0141  0.2691
  410loPI   PO4 6548   5.951  16.134  11.357  0.1866  0.4372 -0.2697
  410loPI   GL1 6549   6.138  16.332  10.908  0.3231  0.0119  0.0884
  410loPI   GL2 6550   6.462  16.332  10.941  0.0270 -0.2338 -0.1927
  410loPI   C1A 6551   6.139  16.444  10.466 -0.0123  0.1138  0.0314
  410loPI   C2A 6552   6.143  16.583  10.029 -0.0508  0.1027  0.0766
  410loPI   C3A 6553   6.115  16.518   9.555 -0.0956 -0.0807  0.3337
  410loPI   C4A 6554   6.005  16.414   9.052 -0.0153  0.0288 -0.2776
  410loPI   C5A 6555   6.293  16.443   8.787  0.1486 -0.1326 -0.1764
  410loPI   C6A 6556   6.448  16.200   8.522  0.1223  0.1941 -0.1979
  410loPI   C1B 6557   6.608  16.360  10.580 -0.0233 -0.1651 -0.2132
  410loPI   C2B 6558   6.675  16.443  10.219  0.0893  0.1222  0.0255
  410loPI   C3B 6559   6.618  16.433   9.782  0.0093  0.2413 -0.1068
  410loPI   C4B 6560   6.582  16.453   9.258  0.3405 -0.0704 -0.0296
  411loPI    C1 6561   7.786  11.338  11.515  0.0809  0.0655 -0.0232
  411loPI    C2 6562   8.109  11.111  11.450 -0.0151 -0.0485 -0.1052
  411loPI    C3 6563   7.983  11.177  11.824 -0.0224 -0.1816 -0.0836
  411loPI   PO4 6564   7.621  11.320  11.402  0.2342 -0.3946  0.1084
  411loPI   GL1 6565   7.527  11.577  11.041  0.1735  0.1309  0.0160
  411loPI   GL2 6566   7.268  11.873  11.065 -0.2625  0.0137  0.1994
  411loPI   C1A 6567   7.505  11.584  10.652  0.1047 -0.0953  0.2090
  411loPI   C2A 6568   7.356  11.580  10.287 -0.3228  0.0862  0.0783
  411loPI   C3A 6569   7.299  11.706   9.926  0.1387  0.1771 -0.0382
  411loPI   C4A 6570   7.501  11.612   9.499  0.0354 -0.1031 -0.3698
  411loPI   C5A 6571   7.560  11.640   9.065 -0.2594 -0.0035  0.1531
  411loPI   C6A 6572   7.619  11.802   8.609 -0.1989  0.1547  0.0323
  411loPI   C1B 6573   7.329  12.064  10.624 -0.1997 -0.1592 -0.1703
  411loPI   C2B 6574   7.218  12.110  10.187 -0.3504  0.1374  0.3715
  411loPI   C3B 6575   7.191  12.188   9.738 -0.2681 -0.1243  0.1779
  411loPI   C4B 6576   7.141  12.106   9.379  0.3811 -0.0832  0.0070
  412loPI    C1 6577   3.975   0.451  11.645 -0.0532  0.0443  0.0929
  412loPI    C2 6578   4.064   0.685  11.957  0.1746  0.0755  0.0068
  412loPI    C3 6579   3.720   0.481  11.951  0.1227  0.1535  0.2310
  412loPI   PO4 6580   4.023   0.564  11.410 -0.0986  0.0583 -0.0565
  412loPI   GL1 6581   3.941   0.626  11.111  0.1258  0.2024  0.1297
  412loPI   GL2 6582   3.739   0.595  10.906 -0.1936  0.3434  0.0591
  412loPI   C1A 6583   4.117   0.440  10.724  0.1582 -0.1493 -0.0805
  412loPI   C2A 6584   4.102   0.133  10.418  0.1131  0.0702  0.2089
  412loPI   C3A 6585   4.155   0.125   9.968  0.0818  0.1347 -0.1545
  412loPI   C4A 6586   4.180   0.327   9.583  0.0231  0.0535  0.4238
  412loPI   C5A 6587   4.198   0.412   9.104  0.1635 -0.3825  0.1435
  412loPI   C6A 6588   4.287   0.482   8.702  0.2132  0.0885  0.1172
  412loPI   C1B 6589   3.778   0.570  10.352 -0.0538 -0.1131  0.0202
  412loPI   C2B 6590   3.862   0.617   9.910 -0.0134  0.2369 -0.1007
  412loPI   C3B 6591   3.785   0.718   9.501 -0.0378 -0.2096 -0.2097
  412loPI   C4B 6592   3.922   0.796   9.125 -0.0648 -0.0347  0.1444
  413loPI    C1 6593   4.148  13.634  11.773  0.0562 -0.3477  0.0590
  413loPI    C2 6594   4.289  13.343  12.008  0.1158 -0.1158  0.3147
  413loPI    C3 6595   4.429  13.716  12.045  0.2249 -0.1000 -0.1840
  413loPI   PO4 6596   4.170  13.533  11.509  0.0841  0.2413 -0.0570
  413loPI   GL1 6597   4.397  13.410  11.230 -0.2106  0.2224 -0.0461
  413loPI   GL2 6598   4.410  13.712  11.000  0.2726 -0.0136  0.1681
  413loPI   C1A 6599   4.727  13.227  10.911  0.0423 -0.2763  0.0955
  413loPI   C2A 6600   4.769  13.238  10.529  0.0187 -0.0338  0.0510
  413loPI   C3A 6601   4.689  13.303  10.011  0.2197 -0.0290  0.3856
  413loPI   C4A 6602   4.671  13.186   9.564  0.1186  0.0336  0.0093
  413loPI   C5A 6603   4.769  13.294   9.136  0.1616  0.0195 -0.2402
  413loPI   C6A 6604   5.005  13.697   8.932 -0.0934  0.2031 -0.0189
  413loPI   C1B 6605   4.330  13.588  10.573  0.0204  0.1361 -0.0699
  413loPI   C2B 6606   4.252  13.582  10.089  0.0500 -0.0927 -0.0962
  413loPI   C3B 6607   4.264  13.626   9.662  0.1996 -0.1165 -0.0627
  413loPI   C4B 6608   4.265  13.524   9.223 -0.0396 -0.0049 -0.0570
  414loPI    C1 6609   4.003   5.505  11.304 -0.0471 -0.0361  0.1043
  414loPI    C2 6610   4.162   5.863  11.386  0.2994 -0.1368 -0.1084
  414loPI    C3 6611   4.324   5.531  11.540  0.1750 -0.2274 -0.1704
  414loPI   PO4 6612   3.969   5.508  11.069  0.1420  0.0873  0.3015
  414loPI   GL1 6613   4.136   5.442  10.673  0.1624  0.3854 -0.0658
  414loPI   GL2 6614   4.006   5.681  10.476 -0.0692  0.1964  0.1725
  414loPI   C1A 6615   3.911   5.210  10.386  0.0141 -0.3367 -0.1582
  414loPI   C2A 6616   3.892   5.345  10.002 -0.1701 -0.0435 -0.0659
  414loPI   C3A 6617   4.129   5.381   9.528 -0.0851  0.0988  0.0724
  414loPI   C4A 6618   4.343   5.479   9.215  0.1659 -0.0628 -0.0253
  414loPI   C5A 6619   4.241   5.265   8.882 -0.0169 -0.0310 -0.1927
  414loPI   C6A 6620   3.861   5.477   8.747  0.1347 -0.1259 -0.2083
  414loPI   C1B 6621   4.168   5.799  10.018 -0.0605  0.2258  0.0435
  414loPI   C2B 6622   4.154   5.834   9.666 -0.1131 -0.0098  0.0008
  414loPI   C3B 6623   4.335   5.996   9.286  0.3342  0.0584  0.1548
  414loPI   C4B 6624   4.179   5.873   8.789 -0.0924  0.3528  0.1164
  415loPI    C1 6625  15.978  14.281  11.831 -0.1815  0.0478 -0.1274
  415loPI    C2 6626  16.212  13.958  11.851 -0.0062  0.1785 -0.0310
  415loPI    C3 6627  15.942  14.027  12.138 -0.1701  0.0240 -0.1457
  415loPI   PO4 6628  15.861  14.281  11.605  0.0004 -0.1403  0.1980
  415loPI   GL1 6629  15.676  14.554  11.328  0.2286 -0.1852 -0.2604
  415loPI   GL2 6630  15.870  14.359  11.115 -0.2225 -0.3560  0.1870
  415loPI   C1A 6631  15.416  14.726  11.100  0.0759  0.2324  0.4081
  415loPI   C2A 6632  15.435  14.930  10.699  0.1128  0.0820 -0.2175
  415loPI   C3A 6633  15.386  15.104  10.359  0.2192  0.3006  0.0875
  415loPI   C4A 6634  15.405  15.084   9.943 -0.0124  0.1533 -0.1208
  415loPI   C5A 6635  15.263  15.120   9.426 -0.1076  0.0871  0.0724
  415loPI   C6A 6636  15.482  15.137   9.072  0.0585 -0.0285  0.2690
  415loPI   C1B 6637  15.793  14.346  10.728  0.0667 -0.0961 -0.0710
  415loPI   C2B 6638  15.714  14.249  10.308 -0.1137  0.0475 -0.0184
  415loPI   C3B 6639  15.831  14.299   9.816 -0.3687 -0.1087  0.1172
  415loPI   C4B 6640  15.869  14.295   9.292 -0.2149 -0.0888  0.3688
  416loPI    C1 6641  15.755   5.249  11.599  0.1156  0.2082 -0.0475
  416loPI    C2 6642  15.426   5.142  11.799  0.0932  0.0302 -0.1768
  416loPI    C3 6643  15.770   5.197  11.995  0.0405 -0.0098 -0.0722
  416loPI   PO4 6644  15.643   5.497  11.436  0.2809 -0.1841  0.2183
  416loPI   GL1 6645  15.786   5.726  11.175  0.3349 -0.0358  0.1665
  416loPI   GL2 6646  16.091   5.696  10.951  0.1285  0.1270  0.0540
  416loPI   C1A 6647  15.800   5.983  10.687 -0.1796  0.1601 -0.1120
  416loPI   C2A 6648  15.888   5.951  10.259  0.0762 -0.1491  0.2371
  416loPI   C3A 6649  15.772   6.115   9.874  0.1936  0.3558  0.0142
  416loPI   C4A 6650  15.715   6.134   9.367  0.3944 -0.1468  0.0019
  416loPI   C5A 6651  15.784   6.188   8.961  0.1041  0.3341  0.2876
  416loPI   C6A 6652  15.828   6.182   8.503 -0.2767  0.4403 -0.1836
  416loPI   C1B 6653  16.215   5.722  10.583  0.2773  0.0547 -0.2946
  416loPI   C2B 6654  16.347   5.733  10.217 -0.1930 -0.3933  0.0288
  416loPI   C3B 6655  16.217   5.810   9.820  0.1376 -0.0174  0.0362
  416loPI   C4B 6656  16.200   5.857   9.348  0.0082 -0.1719  0.0442
  417loPI    C1 6657  13.249  12.704  12.029 -0.0210  0.1284 -0.1657
  417loPI    C2 6658  13.055  12.522  12.328  0.2037 -0.0232 -0.1100
  417loPI    C3 6659  12.990  12.909  12.254 -0.0426 -0.0474 -0.0276
  417loPI   PO4 6660  13.291  12.438  11.804 -0.1414 -0.3919 -0.2028
  417loPI   GL1 6661  13.223  12.436  11.435  0.0305 -0.3385 -0.2482
  417loPI   GL2 6662  13.081  12.679  11.349 -0.1971  0.1507  0.1038
  417loPI   C1A 6663  13.507  12.358  11.054 -0.0102 -0.1214  0.0656
  417loPI   C2A 6664  13.548  12.327  10.604 -0.2181  0.1204  0.1595
  417loPI   C3A 6665  13.637  12.369  10.189 -0.0448  0.0416 -0.2367
  417loPI   C4A 6666  13.717  12.394   9.739  0.2318  0.2942  0.1284
  417loPI   C5A 6667  13.777  12.453   9.360  0.0710  0.1811  0.2218
  417loPI   C6A 6668  13.690  12.412   8.957  0.2910 -0.1191  0.1222
  417loPI   C1B 6669  13.133  12.607  10.885 -0.0710  0.1335 -0.3155
  417loPI   C2B 6670  13.197  12.662  10.502 -0.2123 -0.0439 -0.2533
  417loPI   C3B 6671  13.312  12.759  10.036  0.1102 -0.0968  0.2582
  417loPI   C4B 6672  13.333  12.705   9.521 -0.0681 -0.2835 -0.0982
  418loPI    C1 6673   9.797  10.595  11.756  0.0644  0.0049 -0.0623
  418loPI    C2 6674   9.526  10.692  12.033  0.2605  0.1523  0.0808
  418loPI    C3 6675   9.913  10.666  12.132  0.3009 -0.0514 -0.1225
  418loPI   PO4 6676   9.817  10.731  11.558  0.0791 -0.2691  0.2663
  418loPI   GL1 6677   9.822  10.655  11.087 -0.0902 -0.0009  0.3352
  418loPI   GL2 6678  10.054  10.438  10.870  0.1106 -0.0186 -0.4211
  418loPI   C1A 6679   9.626  10.819  10.731 -0.0505  0.1014 -0.0112
  418loPI   C2A 6680   9.633  10.926  10.316  0.0960  0.1638 -0.0497
  418loPI   C3A 6681   9.696  10.953   9.848  0.0448  0.0020  0.2490
  418loPI   C4A 6682   9.759  11.032   9.444 -0.0665 -0.0526  0.3000
  418loPI   C5A 6683   9.792  10.810   9.012  0.3153 -0.1689 -0.0454
  418loPI   C6A 6684   9.499  10.638   8.711 -0.0756  0.0280  0.2216
  418loPI   C1B 6685   9.986  10.598  10.484 -0.1101 -0.2835  0.0856
  418loPI   C2B 6686   9.954  10.588  10.091 -0.1519 -0.2473  0.0514
  418loPI   C3B 6687  10.103  10.691   9.731 -0.0165  0.1165 -0.1685
  418loPI   C4B 6688  10.165  10.828   9.354 -0.2138 -0.0714 -0.0778
  419loPI    C1 6689   2.236   2.937  11.822  0.0122 -0.1948  0.0100
  419loPI    C2 6690   2.169   2.789  12.187  0.1492 -0.0231  0.1068
  419loPI    C3 6691   2.278   3.171  12.143  0.1351 -0.0428 -0.1146
  419loPI   PO4 6692   2.051   2.808  11.686 -0.0996  0.0606 -0.1112
  419loPI   GL1 6693   1.817   2.851  11.204  0.2464  0.0152  0.2121
  419loPI   GL2 6694   1.642   2.554  11.175  0.2196  0.0149 -0.3456
  419loPI   C1A 6695   1.723   2.911  10.735  0.0943  0.3202 -0.3247
  419loPI   C2A 6696   1.637   3.021  10.268  0.2322  0.0717  0.2121
  419loPI   C3A 6697   1.512   3.052   9.887 -0.0688  0.0610  0.3458
  419loPI   C4A 6698   1.446   2.914   9.407  0.2435  0.1303 -0.0342
  419loPI   C5A 6699   1.541   2.933   8.991  0.1602 -0.1001  0.2497
  419loPI   C6A 6700   1.743   2.982   8.622  0.0077 -0.2575 -0.4690
  419loPI   C1B 6701   1.600   2.436  10.685  0.0813 -0.2852  0.3613
  419loPI   C2B 6702   1.470   2.539  10.151 -0.0480  0.1233 -0.1039
  419loPI   C3B 6703   1.534   2.436   9.699  0.2181  0.0070 -0.0239
  419loPI   C4B 6704   1.524   2.475   9.221 -0.2496  0.2600  0.3451
  420loPI    C1 6705   6.594   8.738  11.707 -0.0081 -0.1003 -0.0117
  420loPI    C2 6706   6.334   8.581  11.967  0.0155 -0.0438  0.0463
  420loPI    C3 6707   6.726   8.580  12.049  0.0345 -0.1324 -0.0428
  420loPI   PO4 6708   6.410   8.655  11.470 -0.1857 -0.0069 -0.3234
  420loPI   GL1 6709   6.390   8.636  10.976 -0.1645 -0.5490 -0.4228
  420loPI   GL2 6710   6.479   8.448  10.753 -0.1885 -0.0717  0.1045
  420loPI   C1A 6711   6.507   8.994  10.624  0.1037 -0.0397  0.3626
  420loPI   C2A 6712   6.696   8.966  10.222 -0.2453  0.2154 -0.0183
  420loPI   C3A 6713   6.513   8.727   9.799  0.0892 -0.2985 -0.2611
  420loPI   C4A 6714   6.668   8.735   9.192 -0.1332  0.1773 -0.1399
  420loPI   C5A 6715   6.658   8.612   8.794  0.0351  0.3844  0.5191
  420loPI   C6A 6716   6.492   8.231   8.727 -0.1314 -0.1023  0.1018
  420loPI   C1B 6717   6.525   8.487  10.350  0.1878  0.0215  0.2335
  420loPI   C2B 6718   6.691   8.251   9.983 -0.1993  0.0803  0.2115
  420loPI   C3B 6719   6.713   8.235   9.575 -0.0675 -0.1381 -0.0307
  420loPI   C4B 6720   6.557   8.219   9.202  0.1451 -0.0212 -0.3294
  421loPI    C1 6721   3.322  13.022  11.711  0.0307  0.0371  0.0814
  421loPI    C2 6722   2.995  13.227  11.819 -0.0260 -0.1269  0.2267
  421loPI    C3 6723   2.963  12.911  11.575  0.0287 -0.1237  0.2152
  421loPI   PO4 6724   3.432  13.172  11.563 -0.4037  0.0507 -0.1103
  421loPI   GL1 6725   3.408  13.353  11.131  0.0964  0.2112 -0.0976
  421loPI   GL2 6726   3.100  13.235  11.254 -0.0557 -0.1514  0.3146
  421loPI   C1A 6727   3.320  13.180  10.699 -0.0161  0.1939  0.1216
  421loPI   C2A 6728   3.332  13.165  10.265  0.1562 -0.1713  0.0290
  421loPI   C3A 6729   3.322  13.206   9.845 -0.1831  0.2923  0.1692
  421loPI   C4A 6730   3.353  13.287   9.406  0.0382  0.0848 -0.0308
  421loPI   C5A 6731   3.622  13.443   9.034 -0.0192 -0.1475 -0.0298
  421loPI   C6A 6732   3.939  13.637   8.710 -0.2391  0.1628  0.0055
  421loPI   C1B 6733   2.842  12.979  11.007  0.1301 -0.0257  0.1533
  421loPI   C2B 6734   2.872  12.934  10.551 -0.0008 -0.2152 -0.1593
  421loPI   C3B 6735   2.858  13.067  10.102  0.3044  0.1367 -0.0115
  421loPI   C4B 6736   2.867  13.009   9.617 -0.0047  0.2658  0.0373
  422loPI    C1 6737   2.570   7.182  11.395  0.2401  0.0086  0.1330
  422loPI    C2 6738   2.864   7.312  11.634  0.2401 -0.2268  0.2648
  422loPI    C3 6739   2.519   7.184  11.792  0.1548 -0.1737  0.1243
  422loPI   PO4 6740   2.694   7.083  11.176 -0.0047 -0.4270 -0.2535
  422loPI   GL1 6741   2.741   7.209  10.811  0.1631 -0.2965 -0.1550
  422loPI   GL2 6742   2.865   6.831  10.716 -0.0430  0.1210  0.1630
  422loPI   C1A 6743   2.907   7.263  10.422  0.1188 -0.0703 -0.2114
  422loPI   C2A 6744   2.896   7.197  10.103  0.2032 -0.4250  0.0930
  422loPI   C3A 6745   2.651   7.183   9.652  0.2795  0.0118 -0.2702
  422loPI   C4A 6746   2.686   7.138   9.199 -0.1142  0.2073  0.0959
  422loPI   C5A 6747   2.560   7.187   8.847 -0.0276  0.0953 -0.0466
  422loPI   C6A 6748   2.268   7.204   8.497 -0.2396  0.1082  0.0276
  422loPI   C1B 6749   2.749   6.706  10.315  0.0573 -0.1187 -0.1609
  422loPI   C2B 6750   2.670   6.732   9.897  0.0732 -0.0848  0.0224
  422loPI   C3B 6751   2.585   6.671   9.519  0.0339 -0.1575 -0.1393
  422loPI   C4B 6752   2.519   6.708   9.048 -0.3889 -0.1255 -0.0667
  423loPI    C1 6753  14.175  12.250  11.943 -0.1498 -0.1617 -0.1312
  423loPI    C2 6754  13.899  12.086  12.181 -0.2122  0.2798  0.1106
  423loPI    C3 6755  14.287  12.025  12.255 -0.2359 -0.0173  0.0051
  423loPI   PO4 6756  14.131  12.184  11.759  0.0795 -0.1912 -0.1680
  423loPI   GL1 6757  14.119  12.190  11.324  0.2208  0.3163  0.2283
  423loPI   GL2 6758  14.405  12.240  11.115 -0.0340  0.1903 -0.0931
  423loPI   C1A 6759  14.044  12.480  10.919  0.2158 -0.2121  0.1188
  423loPI   C2A 6760  14.066  12.515  10.465 -0.2205  0.1501  0.1095
  423loPI   C3A 6761  14.128  12.606  10.007  0.1859 -0.3420  0.2425
  423loPI   C4A 6762  14.249  12.679   9.611  0.0180  0.0422 -0.3436
  423loPI   C5A 6763  14.166  12.645   9.165  0.0636 -0.0115  0.2351
  423loPI   C6A 6764  14.239  12.349   8.863  0.1172 -0.0893 -0.0340
  423loPI   C1B 6765  14.477  12.240  10.675  0.1959 -0.1007 -0.1854
  423loPI   C2B 6766  14.424  12.281  10.203  0.2867  0.2319  0.1366
  423loPI   C3B 6767  14.598  12.391   9.800  0.0985 -0.0260  0.3112
  423loPI   C4B 6768  14.625  12.381   9.380 -0.0255 -0.2227 -0.1449
  424loPI    C1 6769   9.183  12.437  11.922  0.0226 -0.0983  0.0885
  424loPI    C2 6770   9.538  12.368  12.094  0.2113 -0.0043 -0.2531
  424loPI    C3 6771   9.320  12.685  12.205  0.0763 -0.2430  0.1909
  424loPI   PO4 6772   9.158  12.400  11.687 -0.1789  0.1611  0.1341
  424loPI   GL1 6773   9.352  12.524  11.291 -0.2144  0.0287 -0.2714
  424loPI   GL2 6774   9.554  12.798  11.198  0.1411 -0.4012 -0.1686
  424loPI   C1A 6775   9.224  12.322  10.875  0.1526  0.1682 -0.1412
  424loPI   C2A 6776   9.100  12.284  10.475  0.2261 -0.2141  0.0266
  424loPI   C3A 6777   9.116  12.207  10.027  0.1967  0.3401 -0.0187
  424loPI   C4A 6778   9.117  12.341   9.556 -0.0484  0.0013 -0.0010
  424loPI   C5A 6779   8.878  12.297   9.156 -0.0323  0.1376 -0.3098
  424loPI   C6A 6780   8.714  12.523   8.767 -0.0101 -0.3021 -0.1026
  424loPI   C1B 6781   9.510  12.744  10.673  0.0274  0.0907  0.1620
  424loPI   C2B 6782   9.454  12.557  10.187  0.1350 -0.2640  0.1675
  424loPI   C3B 6783   9.540  12.405   9.751 -0.0186  0.2299  0.0608
  424loPI   C4B 6784   9.607  12.344   9.237 -0.1588 -0.1297  0.0985
  425loPI    C1 6785  12.545  14.635  11.715 -0.0983 -0.0251  0.0510
  425loPI    C2 6786  12.675  14.301  11.892  0.0245 -0.0181 -0.0250
  425loPI    C3 6787  12.305  14.435  11.966 -0.0299 -0.1770 -0.0038
  425loPI   PO4 6788  12.664  14.571  11.477 -0.1986  0.5005 -0.0385
  425loPI   GL1 6789  12.643  14.431  11.139 -0.1096 -0.0465 -0.1473
  425loPI   GL2 6790  12.954  14.453  11.043  0.1958  0.0146 -0.3291
  425loPI   C1A 6791  12.616  14.352  10.716  0.1477 -0.1008  0.1270
  425loPI   C2A 6792  12.593  14.339  10.332  0.0521  0.0838 -0.1858
  425loPI   C3A 6793  12.626  14.403   9.956  0.0318 -0.0860 -0.1437
  425loPI   C4A 6794  12.634  14.504   9.476  0.0054  0.0739 -0.0263
  425loPI   C5A 6795  12.773  14.740   9.143  0.0257  0.2335 -0.1023
  425loPI   C6A 6796  12.826  15.004   8.801  0.2195  0.1975 -0.0847
  425loPI   C1B 6797  13.056  14.540  10.591  0.0047 -0.0357 -0.0611
  425loPI   C2B 6798  13.153  14.627  10.211 -0.0828  0.1694 -0.0740
  425loPI   C3B 6799  13.070  14.562   9.765 -0.1213 -0.1349 -0.0497
  425loPI   C4B 6800  13.176  14.694   9.361  0.1141  0.1172  0.3683
  426loPI    C1 6801  12.417  10.826  11.633  0.0312  0.0417 -0.2535
  426loPI    C2 6802  12.464  11.062  11.954 -0.0204 -0.4229  0.1062
  426loPI    C3 6803  12.098  10.996  11.805  0.0301  0.0252 -0.2390
  426loPI   PO4 6804  12.545  10.914  11.477 -0.4203  0.1423 -0.1925
  426loPI   GL1 6805  12.587  11.012  11.070 -0.1574  0.1665  0.0294
  426loPI   GL2 6806  12.800  10.786  10.958  0.3667  0.0026 -0.2696
  426loPI   C1A 6807  12.376  11.006  10.689  0.0114  0.1215  0.0446
  426loPI   C2A 6808  12.454  11.017  10.245  0.0897  0.1627 -0.0292
  426loPI   C3A 6809  12.486  10.983   9.822  0.0188 -0.0480 -0.1767
  426loPI   C4A 6810  12.544  11.096   9.349  0.0597 -0.1785 -0.2178
  426loPI   C5A 6811  12.552  10.887   9.007 -0.0314 -0.3131 -0.2025
  426loPI   C6A 6812  12.647  10.538   8.852 -0.1478  0.2962 -0.1071
  426loPI   C1B 6813  12.817  10.782  10.448  0.0236 -0.0434  0.2280
  426loPI   C2B 6814  12.865  10.749  10.053 -0.0560  0.2501  0.2525
  426loPI   C3B 6815  12.923  10.752   9.640  0.0010 -0.1502  0.0872
  426loPI   C4B 6816  13.249  10.475   9.570  0.0797 -0.2083 -0.0703
  427loPI    C1 6817  11.791  12.346  11.631 -0.0746 -0.2022  0.2106
  427loPI    C2 6818  11.838  12.685  11.839 -0.0215 -0.0352 -0.0682
  427loPI    C3 6819  11.976  12.339  11.985 -0.1140  0.0549  0.2385
  427loPI   PO4 6820  11.833  12.428  11.437  0.0137  0.2826  0.1260
  427loPI   GL1 6821  11.998  12.592  11.034 -0.0933  0.4228  0.0324
  427loPI   GL2 6822  12.257  12.456  11.102 -0.0487  0.0640  0.0898
  427loPI   C1A 6823  11.761  12.696  10.756 -0.2024  0.0738  0.0999
  427loPI   C2A 6824  11.848  12.690  10.384 -0.0376 -0.1757 -0.2877
  427loPI   C3A 6825  11.901  12.730   9.971 -0.1378  0.1847  0.1283
  427loPI   C4A 6826  11.933  12.813   9.561  0.1971 -0.2521 -0.2355
  427loPI   C5A 6827  12.161  12.704   9.245 -0.0350 -0.1088  0.0359
  427loPI   C6A 6828  12.373  12.783   8.802  0.2032  0.1332 -0.2538
  427loPI   C1B 6829  12.207  12.404  10.638 -0.0796 -0.0380 -0.1895
  427loPI   C2B 6830  12.207  12.408  10.108 -0.0306  0.2106  0.0037
  427loPI   C3B 6831  12.275  12.400   9.711 -0.0531 -0.3745  0.2757
  427loPI   C4B 6832  12.320  12.225   9.290  0.2404 -0.1745  0.0601
  428loPI    C1 6833  15.780   4.682  11.527  0.0076  0.0676  0.0754
  428loPI    C2 6834  15.871   4.367  11.757 -0.0448  0.0310  0.0462
  428loPI    C3 6835  15.837   4.730  11.920 -0.0791  0.0054  0.0960
  428loPI   PO4 6836  15.750   4.557  11.307  0.1765  0.3786  0.2228
  428loPI   GL1 6837  16.003   4.560  11.004 -0.1183 -0.3315  0.3087
  428loPI   GL2 6838  16.329   4.420  11.039  0.0555  0.2198  0.1511
  428loPI   C1A 6839  16.088   4.655  10.556 -0.1060 -0.0591 -0.1583
  428loPI   C2A 6840  16.105   4.694  10.132  0.3670 -0.0795  0.2404
  428loPI   C3A 6841  16.050   4.818   9.675 -0.1542 -0.2130  0.1859
  428loPI   C4A 6842  16.010   4.861   9.197 -0.1557 -0.1818  0.0472
  428loPI   C5A 6843  15.870   5.075   8.762 -0.0125  0.2940 -0.2382
  428loPI   C6A 6844  15.753   5.414   8.674 -0.0837  0.0815 -0.0839
  428loPI   C1B 6845  16.454   4.298  10.689  0.1316  0.1969 -0.0732
  428loPI   C2B 6846  16.458   4.344  10.252 -0.1257 -0.2934 -0.1479
  428loPI   C3B 6847  16.330   4.401   9.767  0.1519  0.0180 -0.0409
  428loPI   C4B 6848  16.428   4.564   9.311  0.1044  0.0404 -0.0415
  429loPI    C1 6849   8.901   7.133  11.285 -0.0770 -0.0454 -0.0600
  429loPI    C2 6850   9.109   7.474  11.265 -0.1803  0.0066 -0.2701
  429loPI    C3 6851   9.183   7.212  11.558 -0.0703  0.1887 -0.1329
  429loPI   PO4 6852   8.878   7.115  11.010 -0.1476  0.0581 -0.2254
  429loPI   GL1 6853   9.039   7.497  10.716 -0.0709 -0.1341 -0.0322
  429loPI   GL2 6854   9.353   7.725  10.601 -0.2922  0.0061  0.2743
  429loPI   C1A 6855   8.885   7.523  10.300 -0.0409 -0.2885  0.3609
  429loPI   C2A 6856   8.886   7.544   9.893  0.0574  0.1334  0.1279
  429loPI   C3A 6857   8.854   7.533   9.432  0.0465 -0.0362 -0.4430
  429loPI   C4A 6858   8.771   7.600   9.037  0.2704  0.2815 -0.1170
  429loPI   C5A 6859   8.955   7.603   8.572  0.0765  0.1843 -0.1832
  429loPI   C6A 6860   9.409   7.710   8.524  0.0648  0.0052 -0.1451
  429loPI   C1B 6861   9.337   7.717  10.113  0.1735  0.0104  0.2151
  429loPI   C2B 6862   9.370   7.705   9.613 -0.1620 -0.0290 -0.3336
  429loPI   C3B 6863   9.344   7.493   9.345  0.4694  0.0582  0.0485
  429loPI   C4B 6864   9.325   7.430   8.921 -0.0492  0.3130 -0.2204
  430loPI    C1 6865  13.133  14.163  11.708 -0.3484  0.0394  0.0179
  430loPI    C2 6866  13.093  14.528  11.867 -0.2130 -0.0276  0.2085
  430loPI    C3 6867  13.288  14.242  12.068 -0.0909 -0.1312 -0.0531
  430loPI   PO4 6868  13.119  14.170  11.444  0.2456 -0.1131  0.1589
  430loPI   GL1 6869  13.190  13.862  11.081  0.0527 -0.1957  0.1155
  430loPI   GL2 6870  12.873  13.900  11.140  0.1197  0.1118  0.0075
  430loPI   C1A 6871  13.360  13.685  10.748  0.1641  0.0088  0.0586
  430loPI   C2A 6872  13.462  13.783  10.274 -0.3550 -0.0077 -0.0022
  430loPI   C3A 6873  13.469  13.722   9.879 -0.2334 -0.1311 -0.0083
  430loPI   C4A 6874  13.503  13.806   9.376 -0.0814  0.1319  0.0918
  430loPI   C5A 6875  13.344  13.667   9.052 -0.2935  0.0194 -0.1403
  430loPI   C6A 6876  12.914  13.863   9.009 -0.3712 -0.3323 -0.1615
  430loPI   C1B 6877  12.982  14.034  10.661 -0.3237 -0.1259  0.1191
  430loPI   C2B 6878  13.059  14.088  10.254  0.0858  0.1111 -0.1872
  430loPI   C3B 6879  13.073  14.077   9.802  0.2101  0.1505  0.0658
  430loPI   C4B 6880  13.185  14.179   9.332 -0.0467 -0.4154 -0.1627
  431loPI    C1 6881   9.122  14.301  11.465 -0.0956 -0.2205  0.0013
  431loPI    C2 6882   9.083  13.996  11.722 -0.1251 -0.3999 -0.2130
  431loPI    C3 6883   9.016  14.371  11.845  0.1705 -0.4516  0.1219
  431loPI   PO4 6884   9.352  14.159  11.321 -0.2606 -0.1140 -0.1481
  431loPI   GL1 6885   9.531  14.243  10.965 -0.0909 -0.1274 -0.2422
  431loPI   GL2 6886   9.516  14.536  11.001 -0.1411 -0.1327  0.0322
  431loPI   C1A 6887   9.498  14.094  10.502  0.2172  0.1051 -0.0699
  431loPI   C2A 6888   9.439  14.099  10.069  0.3153  0.0444 -0.0280
  431loPI   C3A 6889   9.427  14.070   9.603  0.2254 -0.1995  0.1878
  431loPI   C4A 6890   9.412  14.182   9.188 -0.1356  0.0014 -0.1417
  431loPI   C5A 6891   9.407  14.539   8.889  0.0867  0.4264 -0.2112
  431loPI   C6A 6892   9.716  14.714   8.546 -0.0780 -0.0934 -0.0762
  431loPI   C1B 6893   9.369  14.694  10.616  0.1237 -0.1722  0.0150
  431loPI   C2B 6894   9.300  14.577  10.212 -0.1393  0.2024  0.1124
  431loPI   C3B 6895   9.247  14.599   9.748 -0.2656  0.2716 -0.2124
  431loPI   C4B 6896   9.133  14.706   9.271  0.3565 -0.1379  0.1031
  432loPI    C1 6897   5.768  15.044  11.473 -0.0009 -0.1359 -0.1280
  432loPI    C2 6898   6.126  15.054  11.652 -0.0945 -0.0268  0.0564
  432loPI    C3 6899   5.916  14.713  11.643  0.0511 -0.1135 -0.1295
  432loPI   PO4 6900   5.798  15.246  11.180  0.0439 -0.0093  0.1345
  432loPI   GL1 6901   5.513  15.325  10.838 -0.0669 -0.1237 -0.1705
  432loPI   GL2 6902   5.431  15.014  10.742 -0.1350  0.1512  0.1537
  432loPI   C1A 6903   5.445  15.449  10.543 -0.1316  0.2103 -0.1193
  432loPI   C2A 6904   5.499  15.459  10.136  0.0374 -0.0896 -0.0883
  432loPI   C3A 6905   5.610  15.415   9.710  0.3129  0.1498  0.2607
  432loPI   C4A 6906   5.586  15.635   9.317  0.1679  0.3241  0.1947
  432loPI   C5A 6907   5.478  15.425   8.844 -0.0145  0.0662 -0.0923
  432loPI   C6A 6908   5.441  15.052   8.634 -0.0613 -0.1503 -0.1383
  432loPI   C1B 6909   5.601  14.999  10.329  0.3443  0.0404  0.0818
  432loPI   C2B 6910   5.607  14.868   9.966 -0.0098 -0.0228  0.0266
  432loPI   C3B 6911   5.561  14.793   9.590  0.1849 -0.1764 -0.0282
  432loPI   C4B 6912   5.436  14.718   9.166 -0.1342  0.0171 -0.0808
  433loPI    C1 6913   8.094   2.832  11.412  0.1532  0.0833 -0.1700
  433loPI    C2 6914   8.398   2.763  11.662  0.0372  0.2308  0.0140
  433loPI    C3 6915   8.242   3.130  11.633 -0.2531  0.1145  0.0696
  433loPI   PO4 6916   8.085   2.632  11.182 -0.1213  0.1554  0.0422
  433loPI   GL1 6917   7.800   2.546  10.790 -0.1855 -0.0262 -0.1056
  433loPI   GL2 6918   7.498   2.474  10.834  0.1818 -0.2682 -0.1690
  433loPI   C1A 6919   8.000   2.676  10.402  0.1739  0.0674  0.0061
  433loPI   C2A 6920   8.022   2.706  10.002  0.3630  0.1397 -0.2658
  433loPI   C3A 6921   8.015   2.583   9.649 -0.1017 -0.0281 -0.0790
  433loPI   C4A 6922   8.207   2.680   9.275 -0.2422  0.1907  0.1469
  433loPI   C5A 6923   8.131   2.653   8.797  0.0309  0.0650 -0.0856
  433loPI   C6A 6924   8.105   2.363   8.505  0.1309  0.2433 -0.0441
  433loPI   C1B 6925   7.434   2.586  10.369  0.0942  0.1036 -0.4410
  433loPI   C2B 6926   7.486   2.649   9.978  0.5379 -0.2227  0.0093
  433loPI   C3B 6927   7.524   2.727   9.522 -0.1451 -0.1933 -0.0396
  433loPI   C4B 6928   7.667   2.703   9.109  0.0425 -0.0547  0.1197
  434loPI    C1 6929   9.955  15.297  11.462 -0.0319 -0.1439 -0.0950
  434loPI    C2 6930   9.594  15.288  11.633  0.0392  0.0080  0.0663
  434loPI    C3 6931   9.826  15.611  11.674  0.1846 -0.0800 -0.0555
  434loPI   PO4 6932   9.977  15.101  11.341  0.1433  0.0180 -0.1411
  434loPI   GL1 6933   9.933  14.999  10.998  0.1718  0.3614  0.3380
  434loPI   GL2 6934   9.669  15.029  10.842  0.1325  0.0881  0.1756
  434loPI   C1A 6935  10.125  14.923  10.629  0.2294  0.3109 -0.1018
  434loPI   C2A 6936  10.058  14.903  10.248 -0.3462  0.2849  0.0830
  434loPI   C3A 6937  10.054  14.944   9.918  0.2144  0.1084 -0.2119
  434loPI   C4A 6938   9.887  14.915   9.537  0.1929 -0.1544  0.0584
  434loPI   C5A 6939  10.019  15.026   9.123  0.1620 -0.2011  0.2466
  434loPI   C6A 6940  10.201  14.701   8.816  0.2120 -0.0241 -0.2036
  434loPI   C1B 6941   9.669  15.105  10.479 -0.3553  0.2676 -0.2555
  434loPI   C2B 6942   9.595  15.078  10.005  0.1999  0.4356 -0.0045
  434loPI   C3B 6943   9.516  15.206   9.587 -0.0340 -0.0900 -0.1078
  434loPI   C4B 6944   9.462  15.159   9.173 -0.3001  0.1545 -0.1827
  435loPI    C1 6945  10.875  10.702  11.492 -0.1329 -0.1946 -0.0049
  435loPI    C2 6946  10.683  11.029  11.617 -0.1054 -0.1753 -0.0132
  435loPI    C3 6947  10.713  10.712  11.858  0.2557 -0.0094  0.1680
  435loPI   PO4 6948  11.105  10.761  11.304  0.0360  0.3410  0.0218
  435loPI   GL1 6949  11.054  11.013  11.046  0.2066  0.0720 -0.1148
  435loPI   GL2 6950  10.706  11.028  11.137 -0.0927  0.0470 -0.0634
  435loPI   C1A 6951  11.032  10.953  10.572 -0.1040 -0.1863  0.1369
  435loPI   C2A 6952  10.991  10.938  10.189  0.0587 -0.1924  0.1526
  435loPI   C3A 6953  11.133  11.036   9.782  0.1451 -0.2033  0.0800
  435loPI   C4A 6954  11.158  10.954   9.404  0.0586 -0.2564  0.1590
  435loPI   C5A 6955  11.124  10.960   9.004  0.0357 -0.1014  0.1655
  435loPI   C6A 6956  11.258  11.095   8.680 -0.0979 -0.2192 -0.0853
  435loPI   C1B 6957  10.688  11.273  10.784  0.0764  0.0679 -0.0616
  435loPI   C2B 6958  10.676  11.288  10.383  0.4080 -0.0015  0.0053
  435loPI   C3B 6959  10.705  11.337   9.988 -0.3568 -0.1756 -0.1770
  435loPI   C4B 6960  10.793  11.329   9.533  0.3496  0.2186  0.0405
  436loPI    C1 6961   0.647  13.824  11.512  0.0804 -0.0130 -0.1406
  436loPI    C2 6962   0.626  13.763  11.906  0.1153 -0.1094 -0.1534
  436loPI    C3 6963   0.899  14.015  11.758  0.0396 -0.0000 -0.1086
  436loPI   PO4 6964   0.373  13.632  11.436 -0.0143 -0.2614  0.0339
  436loPI   GL1 6965   0.336  13.529  11.091 -0.0575 -0.2079  0.0030
  436loPI   GL2 6966   0.079  13.322  11.114  0.0892  0.2627 -0.1313
  436loPI   C1A 6967   0.603  13.667  10.809 -0.1774  0.0325  0.0199
  436loPI   C2A 6968   0.637  13.634  10.325  0.0671  0.0879  0.0510
  436loPI   C3A 6969   0.606  13.580   9.903  0.2558 -0.2330 -0.2093
  436loPI   C4A 6970   0.621  13.637   9.472 -0.1070 -0.0518 -0.1623
  436loPI   C5A 6971   0.581  13.781   9.054 -0.1311  0.0812 -0.0151
  436loPI   C6A 6972   0.923  13.720   8.801  0.1242 -0.0877  0.0209
  436loPI   C1B 6973   0.079  13.495  10.671 -0.4836  0.0072  0.1790
  436loPI   C2B 6974   0.160  13.460  10.217 -0.0621 -0.3518 -0.0871
  436loPI   C3B 6975   0.164  13.368   9.762 -0.0536 -0.0513 -0.2597
  436loPI   C4B 6976   0.164  13.423   9.330 -0.1961  0.0011 -0.2591
  437loPI    C1 6977  15.649   2.960  11.876 -0.0264 -0.0041 -0.0620
  437loPI    C2 6978  15.741   2.640  12.099 -0.0502  0.0461  0.0204
  437loPI    C3 6979  15.996   2.948  12.075  0.0283 -0.0308 -0.1582
  437loPI   PO4 6980  15.513   2.885  11.737 -0.4188 -0.2178 -0.1997
  437loPI   GL1 6981  15.692   2.851  11.325  0.0194 -0.2774 -0.0041
  437loPI   GL2 6982  15.871   2.655  11.185 -0.0644  0.1885 -0.2640
  437loPI   C1A 6983  15.406   2.912  10.987  0.1641 -0.2186  0.0520
  437loPI   C2A 6984  15.359   2.925  10.578  0.1673 -0.3032 -0.1394
  437loPI   C3A 6985  15.355   2.931  10.157  0.0633  0.0131 -0.3066
  437loPI   C4A 6986  15.332   3.020   9.768 -0.2284 -0.1054 -0.0052
  437loPI   C5A 6987  15.285   3.088   9.370 -0.0943  0.0018  0.0998
  437loPI   C6A 6988  15.295   2.888   8.970  0.0339 -0.1493 -0.0939
  437loPI   C1B 6989  15.803   2.678  10.771  0.2380  0.1509 -0.1277
  437loPI   C2B 6990  15.750   2.651  10.334 -0.0575 -0.0781 -0.2855
  437loPI   C3B 6991  15.721   2.638   9.917  0.3657 -0.1711 -0.1407
  437loPI   C4B 6992  15.748   2.790   9.517 -0.2283 -0.1323  0.2452
  438loPI    C1 6993   1.306  16.093  11.644  0.0993 -0.3353  0.0854
  438loPI    C2 6994   1.706  16.102  11.648  0.0960 -0.1852  0.1102
  438loPI    C3 6995   1.503  16.118  11.992  0.0593  0.3090  0.0725
  438loPI   PO4 6996   1.270  15.878  11.451 -0.1881  0.2591 -0.0256
  438loPI   GL1 6997   1.470  15.783  11.094  0.0423 -0.0032 -0.0658
  438loPI   GL2 6998   1.235  15.612  10.978  0.0544 -0.1589  0.0922
  438loPI   C1A 6999   1.418  15.884  10.650 -0.0127 -0.2259  0.1964
  438loPI   C2A 7000   1.438  15.839  10.278 -0.0428  0.1037 -0.1285
  438loPI   C3A 7001   1.441  15.882   9.824 -0.0472 -0.2843 -0.0092
  438loPI   C4A 7002   1.428  15.837   9.384  0.0687 -0.4173  0.0077
  438loPI   C5A 7003   1.537  15.853   8.915 -0.0401  0.2247  0.1182
  438loPI   C6A 7004   1.522  15.945   8.459  0.1502  0.0425  0.0684
  438loPI   C1B 7005   1.341  15.376  10.688  0.0874 -0.0071  0.0983
  438loPI   C2B 7006   1.369  15.332  10.229  0.4029  0.1949 -0.0176
  438loPI   C3B 7007   1.326  15.327   9.742 -0.2042 -0.0224  0.3344
  438loPI   C4B 7008   1.314  15.313   9.243  0.2417  0.2985 -0.0603
  439loPI    C1 7009   0.898   0.908  12.042  0.1872  0.0184 -0.0519
  439loPI    C2 7010   0.820   1.112  12.377  0.1018  0.0668 -0.1011
  439loPI    C3 7011   0.958   0.737  12.399 -0.1315 -0.0155 -0.0120
  439loPI   PO4 7012   0.719   1.042  11.865 -0.1235  0.1198 -0.0307
  439loPI   GL1 7013   0.831   0.984  11.429 -0.1823 -0.1268 -0.1226
  439loPI   GL2 7014   0.778   1.131  11.283 -0.0529 -0.2072  0.4953
  439loPI   C1A 7015   0.872   0.703  11.061 -0.2165 -0.0518  0.1967
  439loPI   C2A 7016   0.916   0.711  10.711  0.0906  0.2830  0.1361
  439loPI   C3A 7017   0.871   0.728  10.265 -0.2200  0.0576 -0.1144
  439loPI   C4A 7018   0.756   0.793   9.785 -0.1430 -0.1907 -0.1148
  439loPI   C5A 7019   0.650   0.853   9.364 -0.1412 -0.3540 -0.1210
  439loPI   C6A 7020   0.680   1.086   9.004  0.1077 -0.4933  0.1906
  439loPI   C1B 7021   0.563   1.123  10.925 -0.1849  0.3151  0.0862
  439loPI   C2B 7022   0.558   1.118  10.572 -0.0923 -0.1451 -0.1063
  439loPI   C3B 7023   0.395   1.116  10.117  0.1512  0.0727  0.2068
  439loPI   C4B 7024   0.343   1.126   9.661 -0.1786  0.1124 -0.0194
  440loPI    C1 7025   4.840   2.880  11.739  0.1431 -0.1313  0.0611
  440loPI    C2 7026   4.496   2.939  11.936  0.1101  0.1167 -0.0665
  440loPI    C3 7027   4.827   3.131  12.051  0.1686  0.0039 -0.0455
  440loPI   PO4 7028   4.724   2.850  11.464 -0.0992  0.1594  0.0254
  440loPI   GL1 7029   4.903   2.821  11.124  0.0328  0.0015  0.1535
  440loPI   GL2 7030   5.119   2.586  11.053  0.0909 -0.1266  0.0455
  440loPI   C1A 7031   4.603   2.919  10.721  0.0665 -0.2241 -0.0771
  440loPI   C2A 7032   4.760   2.858  10.269  0.1412 -0.0866 -0.0306
  440loPI   C3A 7033   4.897   2.790   9.892  0.0657 -0.1131  0.1335
  440loPI   C4A 7034   5.076   2.870   9.531 -0.1296 -0.0387 -0.1027
  440loPI   C5A 7035   5.141   2.835   9.073  0.2598  0.0606  0.4503
  440loPI   C6A 7036   4.921   2.640   8.671 -0.3812 -0.0040 -0.1108
  440loPI   C1B 7037   4.999   2.493  10.625 -0.0602 -0.2166 -0.0871
  440loPI   C2B 7038   5.089   2.404  10.197  0.0353 -0.2177 -0.0608
  440loPI   C3B 7039   5.126   2.403   9.761  0.0218 -0.2265  0.0726
  440loPI   C4B 7040   5.166   2.352   9.375  0.0967 -0.0927 -0.3365
  441loPI    C1 7041  15.874   7.364  11.839 -0.0371  0.0808  0.0476
  441loPI    C2 7042  15.952   7.534  12.192 -0.0417  0.0943  0.0422
  441loPI    C3 7043  16.216   7.282  12.028 -0.0128  0.1345  0.0270
  441loPI   PO4 7044  15.805   7.597  11.643 -0.0552 -0.2486  0.3195
  441loPI   GL1 7045  15.820   7.705  11.243 -0.1289  0.1248  0.0135
  441loPI   GL2 7046  15.601   7.862  11.142  0.2052  0.1606 -0.0431
  441loPI   C1A 7047  16.037   7.697  10.839 -0.1758 -0.1079  0.0507
  441loPI   C2A 7048  16.048   7.619  10.451  0.2064 -0.3725  0.2323
  441loPI   C3A 7049  15.978   7.624  10.018 -0.2085  0.0842  0.0309
  441loPI   C4A 7050  15.949   7.573   9.576  0.1886 -0.2816 -0.0412
  441loPI   C5A 7051  15.868   7.639   9.129 -0.1145 -0.0569  0.0802
  441loPI   C6A 7052  15.530   7.504   8.806  0.0345  0.3619  0.0878
  441loPI   C1B 7053  15.553   8.026  10.753 -0.0094  0.1987  0.2065
  441loPI   C2B 7054  15.567   7.958  10.354 -0.1149 -0.0449  0.0282
  441loPI   C3B 7055  15.585   8.002   9.923  0.1847  0.1826  0.2862
  441loPI   C4B 7056  15.589   7.983   9.449  0.0701 -0.0557  0.0696
  442loPI    C1 7057  14.579  14.253  11.838  0.1161 -0.1057  0.0749
  442loPI    C2 7058  14.975  14.280  11.891  0.1361 -0.1386 -0.0538
  442loPI    C3 7059  14.777  13.960  12.025  0.1507 -0.1157  0.0229
  442loPI   PO4 7060  14.546  14.318  11.566 -0.3928 -0.3968  0.1443
  442loPI   GL1 7061  14.386  14.396  11.210 -0.3366 -0.2223  0.0726
  442loPI   GL2 7062  14.339  14.119  11.096  0.1710  0.0771  0.0469
  442loPI   C1A 7063  14.366  14.573  10.743  0.0133 -0.0944  0.2505
  442loPI   C2A 7064  14.418  14.693  10.396  0.0132  0.0226  0.1141
  442loPI   C3A 7065  14.516  14.641   9.939 -0.2240 -0.1765  0.0191
  442loPI   C4A 7066  14.462  14.677   9.555  0.2936  0.0130 -0.3190
  442loPI   C5A 7067  14.388  14.659   9.146  0.0748  0.0937  0.1199
  442loPI   C6A 7068  14.077  14.396   8.934  0.2014 -0.3786  0.1184
  442loPI   C1B 7069  14.361  14.098  10.584 -0.0365 -0.1677 -0.1328
  442loPI   C2B 7070  14.342  14.144  10.188  0.0647 -0.0915 -0.0356
  442loPI   C3B 7071  14.471  14.187   9.768 -0.1917 -0.0308  0.0989
  442loPI   C4B 7072  14.520  14.202   9.323 -0.3023  0.1688  0.2213
  443loPI    C1 7073   4.791   8.783  11.541  0.1284  0.0272  0.0892
  443loPI    C2 7074   4.971   9.074  11.749  0.2693 -0.1524  0.2216
  443loPI    C3 7075   4.753   8.798  11.939 -0.0054 -0.0374  0.0794
  443loPI   PO4 7076   4.948   8.754  11.316 -0.0584  0.3398 -0.2510
  443loPI   GL1 7077   5.267   8.865  10.956  0.2619  0.1810 -0.1468
  443loPI   GL2 7078   5.472   8.720  10.676 -0.0001  0.1088 -0.1592
  443loPI   C1A 7079   5.095   8.894  10.473  0.1494  0.0478 -0.3620
  443loPI   C2A 7080   5.011   8.978   9.999  0.0698 -0.0505  0.2513
  443loPI   C3A 7081   4.871   8.897   9.566 -0.1467 -0.1714 -0.1721
  443loPI   C4A 7082   4.755   8.722   9.158 -0.0459 -0.2083 -0.0902
  443loPI   C5A 7083   4.698   8.591   8.783  0.1200 -0.1761 -0.1658
  443loPI   C6A 7084   4.677   8.294   8.485 -0.0814 -0.2500 -0.3141
  443loPI   C1B 7085   5.492   8.731  10.211  0.2646  0.0337  0.0887
  443loPI   C2B 7086   5.295   8.692   9.742  0.0415 -0.0102 -0.2097
  443loPI   C3B 7087   5.329   8.831   9.239  0.2708 -0.1849 -0.0362
  443loPI   C4B 7088   5.145   8.936   8.797 -0.1792 -0.1511 -0.2706
  444loPI    C1 7089  11.703   0.651  11.923 -0.2626  0.0018 -0.1108
  444loPI    C2 7090  11.744   0.437  12.258  0.2833 -0.0033 -0.1715
  444loPI    C3 7091  11.473   0.730  12.240  0.0409 -0.1991  0.1664
  444loPI   PO4 7092  11.811   0.470  11.732 -0.2600 -0.3300 -0.2326
  444loPI   GL1 7093  11.720   0.255  11.247 -0.2570  0.1445  0.3117
  444loPI   GL2 7094  11.594  -0.004  11.092 -0.1632  0.2362 -0.1984
  444loPI   C1A 7095  11.808   0.550  10.895  0.0247 -0.3020  0.0034
  444loPI   C2A 7096  11.776   0.574  10.502  0.2122  0.3771 -0.0310
  444loPI   C3A 7097  11.804   0.623  10.108 -0.1328 -0.2818 -0.2014
  444loPI   C4A 7098  11.807   0.682   9.664 -0.0891 -0.2989 -0.1565
  444loPI   C5A 7099  11.853   0.671   9.258 -0.3836  0.3144 -0.3129
  444loPI   C6A 7100  11.596   0.846   8.927 -0.0477 -0.0376 -0.4123
  444loPI   C1B 7101  11.685   0.042  10.702  0.1625  0.2431 -0.2735
  444loPI   C2B 7102  11.727   0.109  10.326  0.2770  0.2037  0.2449
  444loPI   C3B 7103  11.748   0.159   9.919  0.1713 -0.1721 -0.0951
  444loPI   C4B 7104  11.771   0.198   9.449  0.1682 -0.1972 -0.0917
  445loPI    C1 7105   5.423   3.433  11.474 -0.0397 -0.0285 -0.0834
  445loPI    C2 7106   5.623   3.283  11.786  0.0709  0.1857 -0.0492
  445loPI    C3 7107   5.233   3.365  11.819  0.1055  0.3067  0.0669
  445loPI   PO4 7108   5.658   3.432  11.270 -0.1777  0.2346 -0.1197
  445loPI   GL1 7109   5.794   3.678  11.002  0.1599 -0.0146  0.2432
  445loPI   GL2 7110   6.045   3.608  10.855  0.0465 -0.1914  0.0844
  445loPI   C1A 7111   5.567   3.711  10.707  0.2229  0.1957  0.1781
  445loPI   C2A 7112   5.487   3.764  10.264 -0.0363 -0.0324 -0.0388
  445loPI   C3A 7113   5.524   3.816   9.889  0.2428  0.0496  0.2344
  445loPI   C4A 7114   5.605   3.872   9.507  0.1480  0.1102 -0.1971
  445loPI   C5A 7115   5.680   3.652   9.083  0.0758  0.1286  0.3066
  445loPI   C6A 7116   5.468   3.302   8.849 -0.2095  0.1544  0.3973
  445loPI   C1B 7117   5.970   3.682  10.402 -0.2729 -0.0192  0.0321
  445loPI   C2B 7118   6.010   3.684   9.980 -0.2379  0.0301 -0.1537
  445loPI   C3B 7119   6.085   3.785   9.569  0.0919 -0.0578  0.0486
  445loPI   C4B 7120   6.136   3.761   9.158 -0.0365  0.1303  0.3126
  446loPI    C1 7121  13.116  15.291  11.641 -0.2419 -0.0649 -0.0572
  446loPI    C2 7122  12.911  14.981  11.789 -0.3463 -0.0133 -0.0931
  446loPI    C3 7123  12.837  15.351  11.921 -0.1488 -0.0150  0.0254
  446loPI   PO4 7124  13.153  15.233  11.387 -0.0512  0.2925  0.0306
  446loPI   GL1 7125  13.378  15.033  11.101  0.0771  0.2000 -0.0371
  446loPI   GL2 7126  13.615  14.827  10.975  0.1892  0.1534 -0.4111
  446loPI   C1A 7127  13.159  15.019  10.732 -0.0416 -0.1867 -0.2467
  446loPI   C2A 7128  13.109  15.087  10.273  0.1793 -0.5208 -0.0270
  446loPI   C3A 7129  13.117  15.130   9.865 -0.2132  0.2207 -0.3682
  446loPI   C4A 7130  13.179  15.202   9.407 -0.0663  0.0182  0.1037
  446loPI   C5A 7131  13.224  15.195   9.036 -0.1934 -0.0763  0.0572
  446loPI   C6A 7132  13.669  15.354   8.886 -0.1228  0.0977 -0.1477
  446loPI   C1B 7133  13.545  14.744  10.520  0.1536 -0.0591 -0.0495
  446loPI   C2B 7134  13.604  14.845  10.047  0.0415  0.1726  0.3598
  446loPI   C3B 7135  13.658  14.861   9.550 -0.1234 -0.0407 -0.2838
  446loPI   C4B 7136  13.715  14.863   9.059 -0.1257 -0.1126  0.1243
  447loPI    C1 7137   2.482  12.138  12.004  0.1190  0.2158 -0.1638
  447loPI    C2 7138   2.660  12.433  12.207 -0.0382  0.0557  0.2155
  447loPI    C3 7139   2.859  12.093  12.133 -0.0293  0.0575  0.2311
  447loPI   PO4 7140   2.325  12.271  11.855  0.0142 -0.0086  0.0975
  447loPI   GL1 7141   2.458  12.165  11.475 -0.1255  0.0432 -0.1536
  447loPI   GL2 7142   2.237  12.274  11.252  0.4410 -0.1770  0.1989
  447loPI   C1A 7143   2.576  11.882  11.132 -0.0983 -0.1643 -0.0396
  447loPI   C2A 7144   2.539  12.060  10.649  0.1707  0.1948  0.0960
  447loPI   C3A 7145   2.613  11.985  10.122  0.2605 -0.1095 -0.1327
  447loPI   C4A 7146   2.643  11.949   9.639 -0.0753 -0.1269 -0.0942
  447loPI   C5A 7147   2.719  11.900   9.243  0.1892  0.1669  0.5160
  447loPI   C6A 7148   2.678  11.709   8.856  0.1006 -0.2999  0.0382
  447loPI   C1B 7149   2.156  12.340  10.863 -0.0140 -0.0866 -0.1462
  447loPI   C2B 7150   2.218  12.376  10.465 -0.0883  0.0544  0.1897
  447loPI   C3B 7151   2.208  12.356  10.130 -0.1715 -0.2164  0.0163
  447loPI   C4B 7152   2.254  12.337   9.856  0.2716 -0.1536 -0.1098
  448loPI    C1 7153  15.035   4.649  11.461  0.0201 -0.2373  0.0642
  448loPI    C2 7154  15.329   4.648  11.732 -0.0020 -0.0446  0.0907
  448loPI    C3 7155  14.991   4.849  11.805 -0.1300 -0.2422  0.0485
  448loPI   PO4 7156  15.123   4.580  11.295 -0.0330  0.0024  0.3701
  448loPI   GL1 7157  15.376   4.551  10.926  0.1723 -0.0144 -0.3647
  448loPI   GL2 7158  15.543   4.838  10.908  0.3588  0.0361  0.0243
  448loPI   C1A 7159  15.529   4.448  10.606 -0.2933  0.0473 -0.0945
  448loPI   C2A 7160  15.603   4.516  10.108 -0.1450 -0.0354 -0.0799
  448loPI   C3A 7161  15.512   4.665   9.773 -0.0666  0.0181  0.0464
  448loPI   C4A 7162  15.565   4.694   9.340  0.0923 -0.1826 -0.2558
  448loPI   C5A 7163  15.507   4.605   9.035  0.4608  0.1568  0.3944
  448loPI   C6A 7164  15.066   4.299   8.829 -0.0168 -0.3803 -0.1701
  448loPI   C1B 7165  15.663   4.963  10.476  0.4927 -0.1403  0.0244
  448loPI   C2B 7166  15.729   5.033  10.113  0.0679  0.1869 -0.0596
  448loPI   C3B 7167  15.681   5.141   9.583  0.1630  0.2257 -0.0728
  448loPI   C4B 7168  15.590   5.177   9.133 -0.0429  0.1519 -0.0051
  449loPI    C1 7169   8.715   9.281  11.655  0.0084  0.0119 -0.2921
  449loPI    C2 7170   8.527   9.633  11.685 -0.0361 -0.0222 -0.1631
  449loPI    C3 7171   8.512   9.372  11.988  0.1032 -0.0829 -0.2075
  449loPI   PO4 7172   8.926   9.347  11.463 -0.0810 -0.0368  0.2119
  449loPI   GL1 7173   8.807   9.560  11.107  0.0192  0.1110  0.1393
  449loPI   GL2 7174   8.653   9.748  11.128 -0.0394 -0.1039 -0.1529
  449loPI   C1A 7175   8.754   9.668  10.580 -0.2025  0.1001 -0.2621
  449loPI   C2A 7176   8.976   9.662  10.234  0.3017 -0.2110 -0.0494
  449loPI   C3A 7177   9.103   9.630   9.715 -0.1581 -0.3282  0.3162
  449loPI   C4A 7178   8.937   9.678   9.261 -0.2582 -0.0369 -0.0045
  449loPI   C5A 7179   8.686   9.509   8.913  0.0645  0.2943  0.3912
  449loPI   C6A 7180   8.244   9.358   8.808  0.1207 -0.0095 -0.0742
  449loPI   C1B 7181   8.304   9.586  10.827  0.1050  0.1502  0.0106
  449loPI   C2B 7182   8.327   9.564  10.412  0.1281 -0.0818  0.1723
  449loPI   C3B 7183   8.532   9.598  10.006  0.2027 -0.0510 -0.0740
  449loPI   C4B 7184   8.570   9.479   9.639 -0.2055 -0.1872  0.0514
  450loPI    C1 7185   8.937   2.190  11.326  0.0594 -0.0414 -0.1964
  450loPI    C2 7186   9.162   2.519  11.365  0.1858 -0.1419 -0.0643
  450loPI    C3 7187   8.842   2.466  11.600  0.0849 -0.0492 -0.1796
  450loPI   PO4 7188   8.898   2.189  11.114 -0.0119  0.0316  0.1868
  450loPI   GL1 7189   8.989   1.903  10.782  0.1771 -0.0015 -0.2841
  450loPI   GL2 7190   9.334   2.099  10.806  0.1265 -0.1010  0.0488
  450loPI   C1A 7191   9.194   1.848  10.414  0.3868 -0.0402 -0.0084
  450loPI   C2A 7192   9.217   1.936   9.940  0.4404  0.0253 -0.1445
  450loPI   C3A 7193   9.318   2.150   9.640 -0.0767 -0.2964 -0.0525
  450loPI   C4A 7194   9.282   2.056   9.227  0.1255  0.0308  0.0388
  450loPI   C5A 7195   9.464   2.238   8.852 -0.0246 -0.1113  0.0897
  450loPI   C6A 7196   9.398   2.215   8.413 -0.1021 -0.3644 -0.1393
  450loPI   C1B 7197   9.275   2.352  10.406  0.1089  0.4785 -0.0481
  450loPI   C2B 7198   9.338   2.473   9.978 -0.2199  0.3356 -0.1916
  450loPI   C3B 7199   9.155   2.586   9.550  0.0150 -0.1587 -0.1548
  450loPI   C4B 7200   9.161   2.514   9.126 -0.0846  0.0294 -0.0121
  451loPI    C1 7201   0.954   4.123  11.760 -0.1852  0.0250  0.2166
  451loPI    C2 7202   0.958   4.033  12.149  0.1732  0.2055  0.2590
  451loPI    C3 7203   1.293   3.999  11.933 -0.0383  0.0450 -0.0511
  451loPI   PO4 7204   0.812   3.961  11.634 -0.1384  0.2283 -0.1980
  451loPI   GL1 7205   0.760   3.915  11.188 -0.1204  0.0749 -0.0387
  451loPI   GL2 7206   0.961   3.683  11.056  0.1709  0.0608  0.0488
  451loPI   C1A 7207   0.521   3.967  10.845 -0.2052  0.2269  0.1205
  451loPI   C2A 7208   0.369   3.933  10.471  0.1494  0.3265  0.3572
  451loPI   C3A 7209   0.347   3.980  10.080  0.0663  0.1352  0.0717
  451loPI   C4A 7210   0.318   3.957   9.573  0.2613  0.0025 -0.2176
  451loPI   C5A 7211   0.473   4.087   9.143  0.1233 -0.1938  0.2310
  451loPI   C6A 7212   0.846   4.283   9.033 -0.2072 -0.0164 -0.1703
  451loPI   C1B 7213   0.845   3.627  10.699 -0.2697  0.0492 -0.3199
  451loPI   C2B 7214   0.772   3.592  10.270 -0.1530  0.1536  0.1247
  451loPI   C3B 7215   0.793   3.697   9.871 -0.0631 -0.0325 -0.0848
  451loPI   C4B 7216   0.757   3.785   9.385 -0.0110 -0.1417 -0.0996
  452loPI    C1 7217  10.143   8.827  11.600  0.0808  0.2860 -0.3018
  452loPI    C2 7218  10.284   9.091  11.865  0.0221  0.0352 -0.0154
  452loPI    C3 7219   9.894   9.083  11.779  0.0199  0.0242 -0.0045
  452loPI   PO4 7220  10.385   8.922  11.392 -0.0287 -0.2743 -0.0329
  452loPI   GL1 7221  10.590   8.764  10.978  0.2597 -0.0583  0.1708
  452loPI   GL2 7222  10.156   8.710  11.036  0.2197  0.2088  0.0142
  452loPI   C1A 7223  10.738   8.866  10.585  0.1381 -0.0637 -0.2242
  452loPI   C2A 7224  10.777   8.854  10.236 -0.0203  0.0953 -0.3110
  452loPI   C3A 7225  10.852   8.903   9.884 -0.1935  0.0143  0.1064
  452loPI   C4A 7226  10.928   8.905   9.429  0.2086  0.3205  0.0457
  452loPI   C5A 7227  11.033   8.984   8.994 -0.1409  0.1870  0.0831
  452loPI   C6A 7228  11.179   9.005   8.618  0.0414 -0.2341  0.2494
  452loPI   C1B 7229  10.232   8.667  10.600 -0.0646  0.1244 -0.3051
  452loPI   C2B 7230  10.290   8.575  10.139 -0.1074  0.1124  0.1301
  452loPI   C3B 7231  10.318   8.684   9.797  0.1667  0.2050  0.4110
  452loPI   C4B 7232  10.383   8.895   9.355  0.0181  0.1553  0.0046
  453loPI    C1 7233   4.067   4.496  11.491 -0.0216  0.0157  0.0061
  453loPI    C2 7234   4.379   4.697  11.642 -0.0929  0.1775 -0.0588
  453loPI    C3 7235   4.048   4.645  11.862 -0.0590  0.0937 -0.0269
  453loPI   PO4 7236   4.125   4.456  11.176 -0.1914  0.1547 -0.0667
  453loPI   GL1 7237   4.295   4.091  10.870 -0.0647  0.2511  0.2525
  453loPI   GL2 7238   4.195   4.235  10.534  0.1937  0.0487  0.0096
  453loPI   C1A 7239   4.458   3.823  10.435  0.1595  0.1730  0.0097
  453loPI   C2A 7240   4.474   3.791   9.993  0.0377  0.0819  0.0666
  453loPI   C3A 7241   4.549   3.895   9.483  0.0336 -0.1083  0.3089
  453loPI   C4A 7242   4.595   3.808   9.124 -0.0251 -0.1580  0.2349
  453loPI   C5A 7243   4.545   3.772   8.700  0.3158  0.1024  0.0567
  453loPI   C6A 7244   4.613   3.401   8.442  0.2282  0.1681  0.1240
  453loPI   C1B 7245   4.269   4.277  10.088  0.0197 -0.1217  0.2273
  453loPI   C2B 7246   4.183   4.212   9.706  0.3041  0.3565  0.0418
  453loPI   C3B 7247   4.092   4.044   9.234  0.2930  0.1576 -0.0501
  453loPI   C4B 7248   3.978   3.754   9.040  0.1585  0.0754  0.3237
  454loPI    C1 7249  14.845  15.690  11.909  0.0687 -0.2037  0.0817
  454loPI    C2 7250  15.081  16.004  11.983 -0.1245 -0.0893  0.2197
  454loPI    C3 7251  15.116  15.671  12.202  0.2194 -0.2426 -0.0583
  454loPI   PO4 7252  14.809  15.708  11.614 -0.2225  0.0276  0.0931
  454loPI   GL1 7253  15.086  15.649  11.302 -0.4670  0.2474  0.1734
  454loPI   GL2 7254  15.254  15.347  11.148 -0.0657 -0.1181  0.1316
  454loPI   C1A 7255  14.935  15.842  10.915 -0.1126  0.0321  0.1428
  454loPI   C2A 7256  15.044  15.956  10.557 -0.2119 -0.1279  0.0668
  454loPI   C3A 7257  15.105  15.929  10.201 -0.0091 -0.1463 -0.0400
  454loPI   C4A 7258  15.067  15.958   9.817 -0.1253  0.0393  0.1726
  454loPI   C5A 7259  15.038  15.929   9.348  0.1582  0.0347  0.1518
  454loPI   C6A 7260  15.011  16.284   9.113 -0.0849 -0.1551  0.0416
  454loPI   C1B 7261  15.393  15.482  10.743  0.3342  0.0701  0.0599
  454loPI   C2B 7262  15.462  15.594  10.259  0.0234  0.2160 -0.0675
  454loPI   C3B 7263  15.467  15.593   9.827 -0.2471 -0.1360 -0.0164
  454loPI   C4B 7264  15.470  15.691   9.450 -0.0327 -0.2887  0.0609
  455loPI    C1 7265   0.276   8.755  11.634 -0.2190  0.2130  0.0905
  455loPI    C2 7266   0.165   8.954  11.962  0.1359 -0.0061  0.3515
  455loPI    C3 7267   0.051   8.574  11.912 -0.0769  0.0849  0.1234
  455loPI   PO4 7268   0.250   8.836  11.471 -0.3522 -0.3322  0.0369
  455loPI   GL1 7269   0.224   8.960  11.124 -0.0587  0.2843  0.1130
  455loPI   GL2 7270   0.277   9.272  11.040  0.0150 -0.3055  0.1726
  455loPI   C1A 7271   0.166   8.773  10.718  0.1375 -0.2487 -0.1431
  455loPI   C2A 7272   0.206   8.868  10.321  0.3727 -0.0406 -0.2369
  455loPI   C3A 7273   0.230   8.801   9.945 -0.1795 -0.2517 -0.1695
  455loPI   C4A 7274   0.263   8.706   9.550 -0.1386  0.1200 -0.0529
  455loPI   C5A 7275   0.107   8.727   9.188  0.0053  0.2183 -0.0902
  455loPI   C6A 7276  -0.100   8.725   8.837  0.1495 -0.2239 -0.1467
  455loPI   C1B 7277   0.295   9.294  10.577  0.0316  0.4550  0.0082
  455loPI   C2B 7278   0.281   9.332  10.172 -0.0354  0.2693  0.0239
  455loPI   C3B 7279   0.318   9.232   9.727 -0.1299  0.0437 -0.0212
  455loPI   C4B 7280   0.435   9.229   9.293 -0.1286  0.1310  0.1270
  456loPI    C1 7281   1.240  10.284  11.948 -0.1610  0.2020 -0.0251
  456loPI    C2 7282   1.076  10.252  12.312  0.1584 -0.0107  0.1043
  456loPI    C3 7283   1.437  10.418  12.269  0.1158  0.0271 -0.1185
  456loPI   PO4 7284   1.023  10.396  11.801 -0.0887 -0.1228 -0.0262
  456loPI   GL1 7285   0.916  10.373  11.375 -0.0920 -0.0761 -0.2079
  456loPI   GL2 7286   0.945  10.015  11.301 -0.2514 -0.1186  0.0669
  456loPI   C1A 7287   0.944  10.469  10.862  0.3234  0.0002 -0.1306
  456loPI   C2A 7288   0.945  10.393  10.428 -0.0474 -0.0386  0.1023
  456loPI   C3A 7289   1.040  10.422   9.973  0.1973  0.0087 -0.1272
  456loPI   C4A 7290   0.974  10.486   9.521  0.1813 -0.0551  0.2251
  456loPI   C5A 7291   1.012  10.928   9.279  0.0106  0.0621  0.0526
  456loPI   C6A 7292   1.300  11.114   9.012  0.1097  0.1719  0.0305
  456loPI   C1B 7293   0.889   9.932  10.862 -0.2462  0.1298  0.0913
  456loPI   C2B 7294   0.929   9.876  10.373  0.2316  0.1675 -0.0972
  456loPI   C3B 7295   0.933   9.888   9.868 -0.2240 -0.0077  0.0159
  456loPI   C4B 7296   0.871   9.927   9.502 -0.2110  0.1976  0.1282
  457loPI    C1 7297   5.387   6.383  11.076 -0.0288 -0.1451  0.0690
  457loPI    C2 7298   5.765   6.313  11.188  0.0655 -0.1596 -0.2487
  457loPI    C3 7299   5.462   6.197  11.422  0.2595  0.0350  0.1067
  457loPI   PO4 7300   5.434   6.588  10.925 -0.1810 -0.1710 -0.0768
  457loPI   GL1 7301   5.544   6.583  10.587  0.1182  0.2190  0.2018
  457loPI   GL2 7302   5.714   6.865  10.600  0.0771 -0.2876  0.1364
  457loPI   C1A 7303   5.491   6.498  10.028 -0.0886  0.3000  0.0028
  457loPI   C2A 7304   5.421   6.533   9.644  0.0019 -0.0851 -0.1145
  457loPI   C3A 7305   5.436   6.644   9.203 -0.2895 -0.1841 -0.0527
  457loPI   C4A 7306   5.472   6.557   8.854  0.1779 -0.2447  0.1915
  457loPI   C5A 7307   5.673   6.617   8.532 -0.1564  0.4263 -0.1020
  457loPI   C6A 7308   6.105   6.517   8.450 -0.5565 -0.0126  0.1311
  457loPI   C1B 7309   5.722   6.926  10.175  0.0663 -0.1307 -0.1592
  457loPI   C2B 7310   5.592   6.979   9.788 -0.2044  0.0012 -0.4075
  457loPI   C3B 7311   5.366   7.071   9.442  0.2011  0.2137 -0.0355
  457loPI   C4B 7312   5.163   7.060   9.023 -0.0987  0.0388 -0.0925
  458loPI    C1 7313  14.366   7.657  11.757 -0.0849  0.2209  0.1224
  458loPI    C2 7314  14.046   7.465  11.903 -0.0777  0.0712 -0.0548
  458loPI    C3 7315  14.333   7.593  12.150 -0.1413 -0.0398  0.0773
  458loPI   PO4 7316  14.371   7.475  11.507 -0.2106 -0.0209  0.0385
  458loPI   GL1 7317  14.648   7.427  11.114  0.2341  0.3315  0.4250
  458loPI   GL2 7318  14.576   7.756  11.102  0.0897 -0.0911  0.0569
  458loPI   C1A 7319  14.683   7.532  10.681 -0.4172  0.0174 -0.2713
  458loPI   C2A 7320  14.626   7.550  10.266 -0.1069 -0.3917  0.3259
  458loPI   C3A 7321  14.624   7.649   9.842  0.1415 -0.2505  0.1668
  458loPI   C4A 7322  14.576   7.613   9.430  0.1829 -0.0719 -0.1652
  458loPI   C5A 7323  14.499   7.366   9.163  0.0205  0.0406  0.0288
  458loPI   C6A 7324  14.455   6.993   8.856  0.2169  0.0707  0.0028
  458loPI   C1B 7325  14.645   8.079  10.858  0.0479  0.1846  0.1137
  458loPI   C2B 7326  14.679   8.048  10.346  0.0924 -0.1923 -0.0804
  458loPI   C3B 7327  14.770   8.128   9.939  0.0768 -0.1970  0.0656
  458loPI   C4B 7328  14.714   8.124   9.483 -0.0750  0.0051 -0.0723
  459loPI    C1 7329   0.315   1.352  11.848  0.0652 -0.0821  0.0883
  459loPI    C2 7330   0.209   0.978  11.942 -0.0638 -0.0328  0.1409
  459loPI    C3 7331  -0.017   1.286  12.060  0.0790  0.0667  0.1577
  459loPI   PO4 7332   0.377   1.339  11.533 -0.1236 -0.0830  0.1458
  459loPI   GL1 7333   0.159   1.404  11.086 -0.0871 -0.0153  0.0873
  459loPI   GL2 7334  -0.157   1.545  11.212 -0.1333  0.1487 -0.0831
  459loPI   C1A 7335   0.142   1.436  10.595  0.0341  0.0333 -0.4744
  459loPI   C2A 7336   0.008   1.396  10.199  0.2703  0.2806  0.0467
  459loPI   C3A 7337  -0.068   1.433   9.829  0.1394  0.1548 -0.1366
  459loPI   C4A 7338  -0.097   1.404   9.412 -0.1538 -0.3238 -0.0923
  459loPI   C5A 7339  -0.384   1.138   9.071 -0.0250 -0.0927  0.0477
  459loPI   C6A 7340  -0.688   0.987   9.059  0.1840  0.1529 -0.0288
  459loPI   C1B 7341  -0.360   1.238  10.889 -0.1852  0.0223 -0.0697
  459loPI   C2B 7342  -0.415   1.218  10.480  0.0056 -0.1795 -0.3660
  459loPI   C3B 7343  -0.486   1.235   9.973 -0.0924 -0.3054  0.0330
  459loPI   C4B 7344  -0.574   1.273   9.567 -0.0417 -0.3443  0.2070
  460loPI    C1 7345  16.536   9.514  11.656  0.1467  0.1280  0.0452
  460loPI    C2 7346  16.744   9.195  11.535 -0.1200 -0.0274 -0.0121
  460loPI    C3 7347  16.536   9.180  11.876 -0.0417  0.1251  0.0429
  460loPI   PO4 7348  16.469   9.589  11.454 -0.0174  0.0210 -0.1029
  460loPI   GL1 7349  16.370   9.559  11.007  0.2502  0.0590  0.0202
  460loPI   GL2 7350  16.456   9.231  11.076  0.0167 -0.0225  0.2367
  460loPI   C1A 7351  16.387   9.750  10.615 -0.2122  0.2194 -0.1224
  460loPI   C2A 7352  16.324   9.613  10.229  0.0676 -0.2763  0.0010
  460loPI   C3A 7353  16.454   9.728   9.861  0.1184 -0.0618  0.1731
  460loPI   C4A 7354  16.493   9.698   9.512  0.0144 -0.1356  0.0955
  460loPI   C5A 7355  16.143   9.680   9.191 -0.1726  0.0644  0.3405
  460loPI   C6A 7356  16.273   9.812   8.776 -0.1041 -0.1477  0.0957
  460loPI   C1B 7357  16.322   9.207  10.727 -0.0187 -0.3031  0.1481
  460loPI   C2B 7358  16.294   9.104  10.294 -0.0950  0.0997 -0.0723
  460loPI   C3B 7359  16.254   9.179   9.915  0.2738 -0.0097 -0.2066
  460loPI   C4B 7360  16.245   9.202   9.519  0.0019 -0.0080  0.1006
  461loPI    C1 7361   4.251   6.765  11.502 -0.1121 -0.0005  0.0129
  461loPI    C2 7362   4.649   6.804  11.518 -0.1278  0.1575  0.0289
  461loPI    C3 7363   4.463   6.555  11.769 -0.0189 -0.0800 -0.1221
  461loPI   PO4 7364   4.163   6.725  11.215  0.3482 -0.2317  0.0409
  461loPI   GL1 7365   4.268   6.782  10.804  0.2771  0.0431  0.1774
  461loPI   GL2 7366   3.914   6.889  10.746  0.2125 -0.1544 -0.1639
  461loPI   C1A 7367   4.207   6.711  10.414 -0.1250  0.2024  0.1148
  461loPI   C2A 7368   4.071   6.833  10.037  0.0072 -0.2094  0.0751
  461loPI   C3A 7369   4.038   6.824   9.599 -0.2445  0.1643  0.1172
  461loPI   C4A 7370   3.958   6.693   9.089  0.2021  0.3481 -0.1142
  461loPI   C5A 7371   4.212   6.889   8.673 -0.0518 -0.1773 -0.0971
  461loPI   C6A 7372   4.406   7.222   8.425 -0.0395 -0.2908 -0.1542
  461loPI   C1B 7373   3.750   7.094  10.311 -0.3914  0.0208  0.0820
  461loPI   C2B 7374   3.653   7.104   9.841  0.1217 -0.3808 -0.4887
  461loPI   C3B 7375   3.616   7.094   9.431 -0.0638 -0.0346  0.1051
  461loPI   C4B 7376   3.476   7.091   9.042 -0.3161  0.3480 -0.5096
  462loPI    C1 7377  14.183   2.545  11.654  0.0915 -0.0369  0.0238
  462loPI    C2 7378  14.028   2.616  12.016  0.0876  0.2387 -0.0297
  462loPI    C3 7379  14.335   2.363  11.976 -0.0196  0.0790  0.1433
  462loPI   PO4 7380  14.244   2.708  11.544 -0.2070 -0.1294  0.2337
  462loPI   GL1 7381  14.213   2.845  11.034 -0.1546  0.0389  0.1933
  462loPI   GL2 7382  14.096   2.550  11.094  0.0823 -0.0393 -0.0103
  462loPI   C1A 7383  14.343   2.668  10.592  0.0868 -0.1336  0.0343
  462loPI   C2A 7384  14.365   2.548  10.251  0.1123  0.0835  0.1939
  462loPI   C3A 7385  14.387   2.641   9.836 -0.1307 -0.0858  0.1180
  462loPI   C4A 7386  14.342   2.645   9.408 -0.0052  0.0522 -0.0351
  462loPI   C5A 7387  14.361   2.626   8.945 -0.0849  0.2890 -0.0420
  462loPI   C6A 7388  14.086   2.582   8.574  0.0731  0.3092 -0.0577
  462loPI   C1B 7389  13.905   2.453  10.737 -0.1964  0.1228  0.1362
  462loPI   C2B 7390  13.871   2.439  10.312 -0.4403 -0.2032  0.0850
  462loPI   C3B 7391  13.928   2.498   9.933 -0.0384 -0.2414  0.2619
  462loPI   C4B 7392  13.875   2.460   9.572 -0.1674  0.1724 -0.5506
  463loPI    C1 7393   1.740   1.534  11.703 -0.2335  0.2286  0.0130
  463loPI    C2 7394   1.664   1.569  12.095 -0.1357  0.0435  0.0497
  463loPI    C3 7395   2.011   1.411  11.971 -0.2080  0.0085 -0.1111
  463loPI   PO4 7396   1.593   1.391  11.567  0.1640 -0.1872 -0.2409
  463loPI   GL1 7397   1.385   1.644  11.239 -0.1360 -0.2084  0.0340
  463loPI   GL2 7398   1.134   1.670  11.191  0.3573  0.2498 -0.0857
  463loPI   C1A 7399   1.531   1.439  10.874  0.1413 -0.0116 -0.1317
  463loPI   C2A 7400   1.476   1.489  10.508  0.2602  0.1035  0.1454
  463loPI   C3A 7401   1.383   1.423  10.114 -0.4109 -0.0905 -0.0947
  463loPI   C4A 7402   1.337   1.406   9.640  0.0701  0.5578  0.0305
  463loPI   C5A 7403   1.154   1.361   9.190  0.1420 -0.1564  0.2182
  463loPI   C6A 7404   1.117   1.614   8.800 -0.2411 -0.2570 -0.1057
  463loPI   C1B 7405   1.088   1.691  10.805  0.2153 -0.2085 -0.2333
  463loPI   C2B 7406   1.081   1.798  10.320 -0.0447 -0.2107 -0.1679
  463loPI   C3B 7407   0.921   1.712   9.866  0.2107 -0.0947 -0.0598
  463loPI   C4B 7408   0.894   1.757   9.496 -0.1950  0.0957  0.2708
  464loPI    C1 7409  12.869   5.172  11.245  0.2857 -0.2512  0.1693
  464loPI    C2 7410  13.044   5.507  11.375 -0.0906 -0.0295  0.1187
  464loPI    C3 7411  12.804   5.300  11.619 -0.0197 -0.1525  0.0847
  464loPI   PO4 7412  12.720   5.264  11.019 -0.0020  0.0702 -0.0192
  464loPI   GL1 7413  12.714   5.189  10.596 -0.5599  0.3114 -0.3843
  464loPI   GL2 7414  12.676   4.824  10.585 -0.1755  0.0261  0.0490
  464loPI   C1A 7415  12.795   5.304  10.208  0.0180  0.1886  0.1192
  464loPI   C2A 7416  12.883   5.342   9.732  0.1564 -0.1389 -0.0767
  464loPI   C3A 7417  12.870   5.479   9.293  0.3397  0.3801  0.1249
  464loPI   C4A 7418  13.151   5.394   8.926 -0.0544  0.1615  0.1039
  464loPI   C5A 7419  13.154   5.352   8.564  0.0836  0.2824  0.2493
  464loPI   C6A 7420  12.798   5.282   8.244  0.0331  0.1123 -0.1684
  464loPI   C1B 7421  12.750   4.847  10.099 -0.2508 -0.0646  0.1745
  464loPI   C2B 7422  12.853   4.843   9.679 -0.1975  0.0494  0.0721
  464loPI   C3B 7423  12.880   4.940   9.239  0.1774 -0.0713  0.0206
  464loPI   C4B 7424  12.908   4.954   8.806 -0.0654  0.0818 -0.0068
  465loPI    C1 7425  16.940   8.794  11.716  0.2280 -0.0519 -0.0021
  465loPI    C2 7426  16.592   8.674  11.871  0.0430  0.1384 -0.2608
  465loPI    C3 7427  16.883   8.806  12.112 -0.1643  0.2393 -0.0615
  465loPI   PO4 7428  17.052   8.611  11.507  0.0173 -0.1047  0.4253
  465loPI   GL1 7429  16.853   8.450  11.128 -0.1111 -0.0187 -0.2508
  465loPI   GL2 7430  17.253   8.460  11.047 -0.2301  0.2075 -0.0686
  465loPI   C1A 7431  16.598   8.659  10.891  0.0128 -0.0465  0.0860
  465loPI   C2A 7432  16.592   8.755  10.560 -0.0556  0.0088  0.1491
  465loPI   C3A 7433  16.599   8.792  10.113  0.1274 -0.0216 -0.0490
  465loPI   C4A 7434  16.616   8.809   9.656 -0.1410 -0.2145  0.1475
  465loPI   C5A 7435  16.552   8.904   9.241 -0.0825 -0.0908  0.0165
  465loPI   C6A 7436  16.718   8.952   8.896  0.0567 -0.0747  0.3909
  465loPI   C1B 7437  17.013   8.496  10.646 -0.2597  0.2466  0.0513
  465loPI   C2B 7438  17.047   8.570  10.229  0.2611  0.0851 -0.0275
  465loPI   C3B 7439  17.069   8.562   9.771 -0.0531 -0.0177 -0.0592
  465loPI   C4B 7440  16.943   8.552   9.297  0.1297 -0.0206  0.2998
  466loPI    C1 7441   2.670   5.119  11.596  0.1156 -0.1665  0.2873
  466loPI    C2 7442   2.444   4.793  11.648  0.0498 -0.1923 -0.1243
  466loPI    C3 7443   2.829   4.756  11.543  0.0697 -0.1379 -0.0712
  466loPI   PO4 7444   2.562   5.246  11.398  0.0140  0.1238  0.1592
  466loPI   GL1 7445   2.457   5.363  11.075  0.0660 -0.2453 -0.2048
  466loPI   GL2 7446   2.181   5.547  10.890 -0.0677 -0.0898  0.0697
  466loPI   C1A 7447   2.547   5.128  10.652  0.1354 -0.0428 -0.1438
  466loPI   C2A 7448   2.521   5.218  10.175 -0.1452  0.1193 -0.0553
  466loPI   C3A 7449   2.507   5.073   9.739  0.1302 -0.0127 -0.3348
  466loPI   C4A 7450   2.384   5.124   9.381 -0.1802 -0.1231  0.0602
  466loPI   C5A 7451   2.433   5.348   8.959 -0.4951 -0.2004 -0.1722
  466loPI   C6A 7452   2.524   5.308   8.549 -0.1846  0.0964  0.0894
  466loPI   C1B 7453   2.184   5.553  10.444 -0.3445  0.3248  0.1304
  466loPI   C2B 7454   2.118   5.504  10.046 -0.1074  0.1665  0.0331
  466loPI   C3B 7455   2.120   5.473   9.629  0.0908  0.3866 -0.3264
  466loPI   C4B 7456   2.053   5.538   9.251  0.3355 -0.2705 -0.0941
  467loPI    C1 7457  16.857   1.544  11.761  0.1459 -0.1119  0.0044
  467loPI    C2 7458  16.529   1.553  11.990  0.0994  0.0204 -0.0657
  467loPI    C3 7459  16.892   1.560  12.159  0.0660  0.0131  0.0071
  467loPI   PO4 7460  16.703   1.455  11.479 -0.0782 -0.0592  0.1992
  467loPI   GL1 7461  16.563   1.481  11.120  0.2880 -0.0999 -0.0032
  467loPI   GL2 7462  16.187   1.703  11.103  0.0871  0.1914  0.0065
  467loPI   C1A 7463  16.465   1.472  10.750 -0.1458  0.3260 -0.0596
  467loPI   C2A 7464  16.461   1.553  10.355  0.0472  0.2936  0.0146
  467loPI   C3A 7465  16.401   1.519   9.847 -0.0994  0.2379 -0.0191
  467loPI   C4A 7466  16.380   1.653   9.476  0.1491 -0.1064 -0.2973
  467loPI   C5A 7467  16.634   1.549   9.063  0.2137  0.0701 -0.0564
  467loPI   C6A 7468  16.382   1.417   8.746 -0.1232 -0.1339 -0.2034
  467loPI   C1B 7469  16.143   1.868  10.693 -0.0442 -0.1940  0.3893
  467loPI   C2B 7470  16.006   1.793  10.206  0.2311  0.2581  0.1398
  467loPI   C3B 7471  16.011   1.822   9.827  0.1290 -0.0468 -0.1609
  467loPI   C4B 7472  15.943   1.893   9.444 -0.0382 -0.0039 -0.1511
  468loPI    C1 7473   6.298   2.042  11.333  0.4049  0.0535 -0.1041
  468loPI    C2 7474   6.451   1.724  11.521  0.0482 -0.2306 -0.2834
  468loPI    C3 7475   6.315   2.035  11.732  0.0718 -0.3495 -0.0910
  468loPI   PO4 7476   6.429   2.084  11.141 -0.2342  0.0744 -0.0287
  468loPI   GL1 7477   6.715   1.962  10.748  0.2515 -0.0604  0.3687
  468loPI   GL2 7478   6.404   1.940  10.641  0.0729  0.2039 -0.1770
  468loPI   C1A 7479   6.667   2.302  10.437  0.1115  0.0173 -0.0706
  468loPI   C2A 7480   6.625   2.273   9.930  0.1644  0.2267 -0.3677
  468loPI   C3A 7481   6.695   2.327   9.546 -0.1408 -0.0316  0.0149
  468loPI   C4A 7482   6.750   2.345   9.145  0.2603  0.0974  0.0001
  468loPI   C5A 7483   6.454   2.364   8.785 -0.3113 -0.0347 -0.2332
  468loPI   C6A 7484   6.138   2.111   8.548 -0.2682 -0.2091 -0.0427
  468loPI   C1B 7485   6.388   1.866  10.179  0.3406 -0.1148  0.0197
  468loPI   C2B 7486   6.355   1.890   9.727 -0.0883  0.2247  0.2810
  468loPI   C3B 7487   6.425   1.955   9.302 -0.1995  0.1483  0.0190
  468loPI   C4B 7488   6.425   1.852   8.878 -0.0683 -0.1389 -0.0561
  469loPI    C1 7489   6.158   0.153  11.554  0.0550  0.1268 -0.1384
  469loPI    C2 7490   6.436   0.140  11.841  0.1057  0.0091 -0.1922
  469loPI    C3 7491   6.156   0.426  11.846  0.2183  0.1189 -0.1296
  469loPI   PO4 7492   6.274   0.205  11.324 -0.2643  0.1170  0.0084
  469loPI   GL1 7493   6.110   0.119  10.909 -0.0939  0.0980 -0.0105
  469loPI   GL2 7494   6.106   0.503  10.864  0.0228 -0.2297 -0.3411
  469loPI   C1A 7495   6.212  -0.042  10.601  0.0187 -0.1436  0.0698
  469loPI   C2A 7496   6.292  -0.020  10.145 -0.0579  0.0229  0.0435
  469loPI   C3A 7497   6.235   0.140   9.707 -0.0806 -0.1313 -0.0319
  469loPI   C4A 7498   6.284   0.066   9.213  0.1759  0.1432  0.1864
  469loPI   C5A 7499   6.213   0.188   8.847 -0.0725 -0.2562  0.2509
  469loPI   C6A 7500   5.848   0.336   8.683  0.1703 -0.4199 -0.0519
  469loPI   C1B 7501   6.023   0.469  10.391 -0.2727 -0.0983 -0.1903
  469loPI   C2B 7502   6.010   0.481   9.994  0.0401 -0.1200  0.3000
  469loPI   C3B 7503   6.095   0.648   9.529 -0.0480  0.0387  0.2607
  469loPI   C4B 7504   6.088   0.540   9.181  0.0998  0.0969 -0.2773
  470loPI    C1 7505   7.443   1.905  11.413  0.1031 -0.0710  0.1059
  470loPI    C2 7506   7.597   1.617  11.182  0.3996  0.0911  0.0967
  470loPI    C3 7507   7.742   1.678  11.550 -0.0568 -0.1526  0.3257
  470loPI   PO4 7508   7.429   2.134  11.230  0.2540  0.1078 -0.0190
  470loPI   GL1 7509   7.210   2.038  10.839  0.1388  0.0687 -0.2077
  470loPI   GL2 7510   7.200   1.770  10.843 -0.1713 -0.2227 -0.0322
  470loPI   C1A 7511   7.162   2.211  10.426  0.1768  0.2080  0.0737
  470loPI   C2A 7512   7.080   2.260  10.086 -0.3679 -0.1720  0.2376
  470loPI   C3A 7513   7.212   2.268   9.625 -0.1409 -0.2778  0.0160
  470loPI   C4A 7514   7.227   2.333   9.213 -0.0694 -0.0981 -0.0416
  470loPI   C5A 7515   7.301   2.230   8.877  0.0369  0.1450  0.0296
  470loPI   C6A 7516   7.749   2.173   8.793  0.0193 -0.2297 -0.1073
  470loPI   C1B 7517   7.453   1.806  10.464  0.0797 -0.1594 -0.2126
  470loPI   C2B 7518   7.419   1.856  10.037  0.1941  0.0577  0.2156
  470loPI   C3B 7519   7.392   1.770   9.599  0.0716  0.0838 -0.2470
  470loPI   C4B 7520   7.467   1.856   9.156  0.0653  0.0112  0.0388
  471loPI    C1 7521  16.670   6.787  11.649  0.0975  0.0136 -0.0383
  471loPI    C2 7522  16.922   7.014  11.860  0.0656 -0.0504  0.0698
  471loPI    C3 7523  16.564   6.921  12.011 -0.0100  0.0125 -0.0691
  471loPI   PO4 7524  16.675   6.845  11.438 -0.1442  0.0881 -0.4520
  471loPI   GL1 7525  16.354   6.956  11.240 -0.2590  0.1931  0.0004
  471loPI   GL2 7526  16.387   6.793  11.046  0.0015  0.0655 -0.0560
  471loPI   C1A 7527  16.418   7.156  10.791 -0.2489 -0.2518  0.1265
  471loPI   C2A 7528  16.486   7.316  10.342  0.0220 -0.2187 -0.3000
  471loPI   C3A 7529  16.441   7.346   9.876 -0.3123  0.0358 -0.0170
  471loPI   C4A 7530  16.332   7.291   9.399  0.0392  0.1983  0.1704
  471loPI   C5A 7531  16.155   6.937   9.147  0.0615  0.1214  0.0359
  471loPI   C6A 7532  16.009   6.751   8.801  0.1339 -0.4219  0.0295
  471loPI   C1B 7533  16.536   6.665  10.711 -0.1554  0.0107  0.0509
  471loPI   C2B 7534  16.492   6.695  10.382 -0.0679 -0.2430  0.3394
  471loPI   C3B 7535  16.375   6.775   9.999 -0.0181 -0.3049  0.2018
  471loPI   C4B 7536  16.256   6.856   9.616 -0.1176 -0.1177  0.0813
  472loPI    C1 7537   0.522   6.372  11.769  0.0703  0.1222  0.0771
  472loPI    C2 7538   0.632   6.327  12.151 -0.0988  0.1122  0.1254
  472loPI    C3 7539   0.503   6.683  12.020 -0.0186  0.1216  0.0714
  472loPI   PO4 7540   0.667   6.215  11.614  0.0990 -0.0957  0.2829
  472loPI   GL1 7541   0.729   6.318  11.228 -0.0531  0.1945  0.3450
  472loPI   GL2 7542   0.610   6.132  11.014 -0.2122  0.1518 -0.0522
  472loPI   C1A 7543   0.915   6.462  10.777 -0.0642  0.2384 -0.1709
  472loPI   C2A 7544   0.885   6.574  10.320 -0.0544  0.0464  0.0316
  472loPI   C3A 7545   0.824   6.530   9.893 -0.1111 -0.0933 -0.0203
  472loPI   C4A 7546   0.845   6.502   9.421  0.1992 -0.0219  0.0707
  472loPI   C5A 7547   0.680   6.440   8.991  0.3278  0.0542  0.1594
  472loPI   C6A 7548   0.731   6.600   8.572 -0.0341 -0.2405 -0.2176
  472loPI   C1B 7549   0.511   6.127  10.553 -0.0121  0.0080  0.0561
  472loPI   C2B 7550   0.416   6.348  10.211  0.1317 -0.0308 -0.1695
  472loPI   C3B 7551   0.341   6.331   9.769 -0.3700  0.0686 -0.2215
  472loPI   C4B 7552   0.321   6.395   9.409 -0.1739  0.0946 -0.0528
  473loPI    C1 7553   7.556   8.224  11.190  0.3304  0.2210  0.1787
  473loPI    C2 7554   7.527   8.498  11.480 -0.0220  0.1074  0.2556
  473loPI    C3 7555   7.341   8.146  11.518  0.2321 -0.0526  0.0517
  473loPI   PO4 7556   7.451   8.395  10.974 -0.0873  0.0175  0.1218
  473loPI   GL1 7557   7.510   8.684  10.744 -0.2776  0.0010  0.0654
  473loPI   GL2 7558   7.819   8.902  10.675  0.1400  0.1575  0.0666
  473loPI   C1A 7559   7.555   8.582  10.317 -0.0740  0.1648  0.0225
  473loPI   C2A 7560   7.549   8.684   9.956  0.1161  0.0613 -0.0949
  473loPI   C3A 7561   7.562   8.639   9.502  0.2469  0.0848 -0.0144
  473loPI   C4A 7562   7.703   8.537   9.118  0.1066 -0.0795 -0.2032
  473loPI   C5A 7563   7.856   8.254   8.754 -0.1692 -0.0114 -0.1693
  473loPI   C6A 7564   7.920   7.770   8.719  0.0231 -0.0150 -0.2551
  473loPI   C1B 7565   8.131   9.110  10.420 -0.1112  0.1213 -0.0303
  473loPI   C2B 7566   8.222   9.197  10.022  0.1192 -0.1775 -0.1232
  473loPI   C3B 7567   8.142   9.228   9.691 -0.1321 -0.5196 -0.2419
  473loPI   C4B 7568   8.292   9.246   9.266  0.0591 -0.0553 -0.1393
  474POPI    C1 7569  11.195   3.701  11.183 -0.0132 -0.1731 -0.0762
  474POPI    C2 7570  10.857   3.822  11.007 -0.0083 -0.0114  0.0236
  474POPI    C3 7571  10.842   3.569  11.316 -0.0313 -0.0942 -0.0450
  474POPI   PO4 7572  11.397   3.599  11.010  0.1670  0.1358 -0.2667
  474POPI   GL1 7573  11.670   3.429  10.695  0.0877 -0.2170  0.1290
  474POPI   GL2 7574  11.887   3.289  10.834 -0.1696 -0.1729  0.0598
  474POPI   C1A 7575  11.722   3.461  10.250  0.4166 -0.0262  0.0501
  474POPI   D2A 7576  11.784   3.503   9.779  0.3215 -0.1003 -0.0614
  474POPI   C3A 7577  11.717   3.533   9.314 -0.3103 -0.2523 -0.2067
  474POPI   C4A 7578  11.830   3.553   8.896 -0.0309  0.2290  0.0391
  474POPI   C1B 7579  12.082   3.135  10.477  0.0127 -0.0527 -0.0701
  474POPI   C2B 7580  12.127   3.178   9.991  0.3483 -0.2278  0.0545
  474POPI   C3B 7581  12.221   3.224   9.584 -0.1576 -0.0757  0.1188
  474POPI   C4B 7582  12.122   3.159   9.152  0.0308 -0.4416  0.2275
  475POPI    C1 7583  14.664  12.168  11.967 -0.0374  0.0388  0.1004
  475POPI    C2 7584  14.803  12.187  12.342 -0.1039  0.1068  0.1220
  475POPI    C3 7585  14.570  12.479  12.200 -0.1299  0.0505  0.0480
  475POPI   PO4 7586  14.922  12.155  11.767 -0.2614  0.1500 -0.0219
  475POPI   GL1 7587  15.019  12.257  11.306 -0.0029  0.1786  0.0696
  475POPI   GL2 7588  15.078  11.893  11.303  0.0515 -0.0275  0.0469
  475POPI   C1A 7589  15.000  12.351  10.791  0.2354 -0.1382 -0.0775
  475POPI   D2A 7590  14.900  12.487  10.367 -0.0677 -0.0058  0.1927
  475POPI   C3A 7591  15.043  12.531   9.977  0.1462 -0.1114  0.0033
  475POPI   C4A 7592  15.157  12.528   9.545  0.1563  0.2539 -0.1454
  475POPI   C1B 7593  14.810  11.953  10.954  0.2755  0.0692 -0.1456
  475POPI   C2B 7594  14.822  11.983  10.440 -0.4172  0.0249 -0.2345
  475POPI   C3B 7595  14.873  11.981   9.987  0.1571 -0.0547 -0.0392
  475POPI   C4B 7596  14.943  12.031   9.534  0.0848 -0.0725 -0.0919
  476POPI    C1 7597  16.108  10.729  11.713 -0.0701  0.0968  0.0286
  476POPI    C2 7598  16.141  10.720  12.112  0.1909  0.0249  0.0070
  476POPI    C3 7599  15.917  10.447  11.923  0.1837 -0.0295  0.0936
  476POPI   PO4 7600  16.344  10.909  11.671 -0.1553 -0.0961 -0.3243
  476POPI   GL1 7601  16.545  11.050  11.352 -0.0297  0.0601 -0.0565
  476POPI   GL2 7602  16.655  11.372  11.412  0.3547  0.1466 -0.0549
  476POPI   C1A 7603  16.629  11.264  10.910  0.1217  0.0420 -0.1187
  476POPI   D2A 7604  16.572  11.304  10.448  0.2108  0.2597 -0.1127
  476POPI   C3A 7605  16.541  11.320  10.049 -0.1332  0.0284 -0.0220
  476POPI   C4A 7606  16.641  11.200   9.552  0.1031 -0.0674  0.0743
  476POPI   C1B 7607  16.620  11.719  11.095 -0.1986  0.2310 -0.1906
  476POPI   C2B 7608  16.668  11.748  10.659  0.0225 -0.2518  0.0169
  476POPI   C3B 7609  16.657  11.769  10.187 -0.1797 -0.1786  0.0459
  476POPI   C4B 7610  16.688  11.760   9.780 -0.1134 -0.2367  0.3820
  477POPI    C1 7611   1.682  11.854  12.190  0.0377  0.0855 -0.2784
  477POPI    C2 7612   1.288  11.832  12.257  0.0389  0.2004 -0.2323
  477POPI    C3 7613   1.489  12.165  12.350  0.2072  0.0217  0.0581
  477POPI   PO4 7614   1.672  11.754  11.909 -0.1529  0.1314  0.1050
  477POPI   GL1 7615   1.704  11.877  11.535  0.0835 -0.1363 -0.0418
  477POPI   GL2 7616   1.942  12.077  11.594  0.0028  0.0494 -0.1600
  477POPI   C1A 7617   1.720  11.599  11.155 -0.0393  0.3205 -0.0360
  477POPI   D2A 7618   1.757  11.592  10.648  0.3332 -0.3191 -0.1340
  477POPI   C3A 7619   1.629  11.699  10.176 -0.0948 -0.1406  0.1514
  477POPI   C4A 7620   1.600  11.619   9.808  0.1162  0.3454  0.0054
  477POPI   C1B 7621   2.119  11.814  11.221  0.1038  0.0853  0.0032
  477POPI   C2B 7622   2.167  11.786  10.819 -0.0173 -0.0444 -0.0264
  477POPI   C3B 7623   2.132  11.886  10.356  0.1095  0.0205  0.0636
  477POPI   C4B 7624   2.148  11.878   9.936  0.0346  0.0959  0.0836
  478POPI    C1 7625   6.048   9.398  11.285 -0.1887 -0.1629 -0.0242
  478POPI    C2 7626   6.180   9.040  11.165 -0.2215 -0.2429  0.1734
  478POPI    C3 7627   6.312   9.197  11.508 -0.0215  0.0461 -0.0306
  478POPI   PO4 7628   5.831   9.442  11.252 -0.0218  0.2153 -0.0263
  478POPI   GL1 7629   5.683   9.203  10.794  0.2318  0.2529  0.2770
  478POPI   GL2 7630   5.961   9.303  10.748  0.3157  0.0717 -0.4626
  478POPI   C1A 7631   5.547   9.175  10.423 -0.1254 -0.3473 -0.0415
  478POPI   D2A 7632   5.829   9.291  10.125  0.0780  0.0537 -0.1105
  478POPI   C3A 7633   5.539   9.165   9.839  0.0758 -0.0436  0.0653
  478POPI   C4A 7634   5.402   9.241   9.513 -0.0061 -0.3093  0.2881
  478POPI   C1B 7635   6.295   9.367  10.360  0.0377 -0.2311  0.0616
  478POPI   C2B 7636   6.381   9.210   9.861  0.0084  0.3174  0.0388
  478POPI   C3B 7637   6.387   9.090   9.463  0.1999 -0.1588 -0.2199
  478POPI   C4B 7638   6.232   9.000   8.979  0.0221 -0.3248 -0.1009
  479POPI    C1 7639   4.895  14.984  11.638  0.0421 -0.4884  0.0354
  479POPI    C2 7640   5.291  15.022  11.681 -0.0102 -0.0968  0.2130
  479POPI    C3 7641   5.077  14.827  11.958  0.0657 -0.3865  0.0721
  479POPI   PO4 7642   4.799  15.004  11.377 -0.2406  0.1094 -0.0187
  479POPI   GL1 7643   4.527  14.812  11.081 -0.0166 -0.1238 -0.1063
  479POPI   GL2 7644   4.536  15.061  10.895  0.1489  0.4233 -0.2601
  479POPI   C1A 7645   4.501  14.623  10.705 -0.2321  0.1166 -0.1332
  479POPI   D2A 7646   4.355  14.561  10.298 -0.1722  0.0689  0.1065
  479POPI   C3A 7647   4.391  14.578   9.874 -0.0974 -0.0158  0.0209
  479POPI   C4A 7648   4.445  14.634   9.475  0.1336  0.3693  0.1926
  479POPI   C1B 7649   4.535  15.118  10.458  0.1502  0.0777  0.1562
  479POPI   C2B 7650   4.488  15.125  10.001 -0.1841 -0.1267 -0.0561
  479POPI   C3B 7651   4.505  15.141   9.547 -0.0097  0.2020 -0.3230
  479POPI   C4B 7652   4.372  15.182   9.068 -0.1624  0.1774  0.1655
  480POPI    C1 7653  14.357  17.055  11.580 -0.0825  0.0926 -0.1220
  480POPI    C2 7654  14.054  16.939  11.345 -0.1582  0.0013  0.0195
  480POPI    C3 7655  14.026  17.277  11.558 -0.1244  0.0392 -0.0361
  480POPI   PO4 7656  14.557  17.017  11.437 -0.1485 -0.1440  0.0266
  480POPI   GL1 7657  14.825  17.219  11.202  0.0021 -0.0302 -0.1537
  480POPI   GL2 7658  15.152  17.063  11.134 -0.2017  0.2161 -0.2517
  480POPI   C1A 7659  14.779  17.272  10.809  0.0845  0.0420 -0.0458
  480POPI   D2A 7660  14.872  17.291  10.415 -0.2067 -0.0326  0.0612
  480POPI   C3A 7661  14.853  17.198  10.065  0.2061 -0.2071 -0.0067
  480POPI   C4A 7662  14.806  17.171   9.664  0.2128 -0.2960  0.1077
  480POPI   C1B 7663  15.261  17.117  10.746  0.1370  0.0534 -0.1557
  480POPI   C2B 7664  15.302  16.948  10.368  0.2412  0.1003 -0.2058
  480POPI   C3B 7665  15.254  16.920   9.966  0.0593  0.1624  0.1294
  480POPI   C4B 7666  15.257  16.930   9.546  0.1295 -0.1763  0.2422
  481POPI    C1 7667   3.224   2.874  11.637 -0.2786  0.2126 -0.0721
  481POPI    C2 7668   3.210   3.117  11.954  0.1528 -0.0036  0.1204
  481POPI    C3 7669   3.115   2.731  11.995  0.0705 -0.0018 -0.0475
  481POPI   PO4 7670   3.025   2.916  11.497  0.0814  0.1785 -0.1552
  481POPI   GL1 7671   2.924   2.893  11.130 -0.0614 -0.0369  0.0402
  481POPI   GL2 7672   2.671   2.770  11.010  0.2363  0.1112  0.2206
  481POPI   C1A 7673   3.105   2.907  10.687 -0.0932 -0.1099 -0.0690
  481POPI   D2A 7674   3.186   2.996  10.287  0.1368 -0.0402  0.1383
  481POPI   C3A 7675   2.894   2.898   9.948 -0.1234 -0.1815  0.1085
  481POPI   C4A 7676   2.951   2.873   9.403 -0.0433  0.0422  0.2221
  481POPI   C1B 7677   2.573   2.781  10.611  0.0377 -0.2710  0.1704
  481POPI   C2B 7678   2.422   2.811  10.172  0.1797  0.0244  0.0694
  481POPI   C3B 7679   2.383   2.851   9.777  0.0902  0.2571  0.1156
  481POPI   C4B 7680   2.435   3.078   9.454  0.1257  0.0783  0.3158
  482POPI    C1 7681   8.973   1.354  11.577  0.0952 -0.0132 -0.0377
  482POPI    C2 7682   8.768   1.147  11.851 -0.0566  0.2042  0.0153
  482POPI    C3 7683   8.869   1.528  11.922  0.1717  0.1676 -0.1045
  482POPI   PO4 7684   8.853   1.240  11.366  0.0817 -0.0151 -0.1001
  482POPI   GL1 7685   8.726   1.246  10.995 -0.2128 -0.2492  0.3282
  482POPI   GL2 7686   9.019   1.340  10.888 -0.3067  0.1082  0.0557
  482POPI   C1A 7687   8.620   1.169  10.581 -0.2475  0.0728 -0.1450
  482POPI   D2A 7688   8.654   1.197  10.128  0.2066 -0.1142 -0.0999
  482POPI   C3A 7689   8.639   1.303   9.727 -0.0879  0.1623  0.0850
  482POPI   C4A 7690   8.758   1.211   9.340  0.0567  0.0276 -0.1077
  482POPI   C1B 7691   9.074   1.350  10.422 -0.1634  0.1798  0.3043
  482POPI   C2B 7692   9.132   1.451  10.004 -0.1134 -0.0155 -0.1192
  482POPI   C3B 7693   9.212   1.238   9.577 -0.4274 -0.0651  0.1689
  482POPI   C4B 7694   9.244   1.384   9.108  0.2041  0.1346  0.0441
  483POPI    C1 7695  10.151   1.398  11.728 -0.0062 -0.0999 -0.1730
  483POPI    C2 7696  10.091   1.776  11.846  0.0008 -0.0819 -0.2266
  483POPI    C3 7697  10.328   1.535  12.060  0.0387 -0.0400 -0.2214
  483POPI   PO4 7698  10.135   1.412  11.439 -0.2927  0.1467  0.0580
  483POPI   GL1 7699  10.158   1.247  11.012  0.1441 -0.2629 -0.0145
  483POPI   GL2 7700   9.896   1.043  11.131 -0.3469 -0.2080  0.2568
  483POPI   C1A 7701  10.516   1.188  10.878  0.0196 -0.1846  0.2095
  483POPI   D2A 7702  10.455   1.084  10.485  0.0108 -0.0373  0.0901
  483POPI   C3A 7703  10.396   1.033  10.052  0.1390 -0.3253  0.2426
  483POPI   C4A 7704  10.593   0.993   9.638 -0.2437 -0.1128  0.0280
  483POPI   C1B 7705   9.964   1.066  10.620 -0.0039  0.0504  0.0155
  483POPI   C2B 7706   9.928   0.942  10.255 -0.0964  0.4913  0.2411
  483POPI   C3B 7707   9.991   0.894   9.809 -0.0743 -0.0933  0.0742
  483POPI   C4B 7708  10.127   0.919   9.360  0.2096  0.0150 -0.0724
  484POPI    C1 7709   8.399   8.204  11.683  0.1886 -0.0283 -0.0136
  484POPI    C2 7710   8.315   8.538  11.886  0.0830 -0.1320  0.1152
  484POPI    C3 7711   8.251   8.180  12.054 -0.0462 -0.2201 -0.1162
  484POPI   PO4 7712   8.163   8.247  11.340 -0.0685 -0.0678  0.0416
  484POPI   GL1 7713   8.074   8.072  10.897  0.0531 -0.3313  0.0819
  484POPI   GL2 7714   7.789   8.183  10.641  0.1500 -0.2085 -0.1996
  484POPI   C1A 7715   8.185   8.054  10.449 -0.1921 -0.1027  0.0676
  484POPI   D2A 7716   8.311   8.094  10.007  0.0173  0.2069 -0.0694
  484POPI   C3A 7717   8.210   8.103   9.669  0.1892  0.0060  0.0496
  484POPI   C4A 7718   8.066   8.230   9.254 -0.2648 -0.0137  0.0469
  484POPI   C1B 7719   7.719   8.113  10.092  0.0836  0.0954 -0.1056
  484POPI   C2B 7720   7.639   8.155   9.658  0.0663  0.0834 -0.1349
  484POPI   C3B 7721   7.635   8.085   9.203 -0.0476 -0.1167  0.1997
  484POPI   C4B 7722   7.405   8.083   8.866  0.0422  0.2082 -0.1780
  485POPI    C1 7723   5.610  11.568  11.710 -0.0032 -0.0668 -0.2277
  485POPI    C2 7724   5.938  11.795  11.735  0.0447 -0.1487 -0.1022
  485POPI    C3 7725   5.692  11.765  12.049 -0.2214  0.1186 -0.2801
  485POPI   PO4 7726   5.472  11.616  11.425 -0.0137  0.1466 -0.0273
  485POPI   GL1 7727   5.290  11.533  11.096 -0.3495  0.0322  0.1236
  485POPI   GL2 7728   5.203  11.241  11.064 -0.0122 -0.2195 -0.1481
  485POPI   C1A 7729   5.308  11.560  10.609 -0.2487  0.0942 -0.0923
  485POPI   D2A 7730   5.290  11.557  10.148  0.1554  0.2656  0.1025
  485POPI   C3A 7731   5.293  11.633   9.813  0.1652 -0.0378  0.0831
  485POPI   C4A 7732   5.420  11.679   9.431 -0.2337 -0.0667  0.1549
  485POPI   C1B 7733   5.293  11.073  10.664 -0.1899  0.0519 -0.1460
  485POPI   C2B 7734   5.327  11.046  10.253 -0.0175 -0.0850  0.0708
  485POPI   C3B 7735   5.197  11.136   9.745  0.0099  0.1323 -0.3298
  485POPI   C4B 7736   5.085  11.022   9.331  0.3073 -0.1153 -0.2694
  486POPI    C1 7737  14.304   8.594  11.847  0.1141  0.0576  0.0457
  486POPI    C2 7738  13.955   8.789  11.826  0.0616 -0.0133  0.2433
  486POPI    C3 7739  13.988   8.461  12.052  0.1640 -0.2053 -0.0443
  486POPI   PO4 7740  14.292   8.513  11.545  0.1045  0.0363  0.0129
  486POPI   GL1 7741  14.209   8.741  11.259  0.0636 -0.1954  0.1681
  486POPI   GL2 7742  14.458   8.984  11.123 -0.0310  0.3349  0.1690
  486POPI   C1A 7743  14.164   8.563  10.888  0.0494  0.2819  0.2463
  486POPI   D2A 7744  14.308   8.354  10.538  0.0914 -0.2382 -0.1413
  486POPI   C3A 7745  14.345   8.422  10.091  0.1957 -0.1433  0.1600
  486POPI   C4A 7746  14.331   8.422   9.535 -0.1298  0.0164 -0.1480
  486POPI   C1B 7747  14.392   8.914  10.678  0.3051 -0.1355 -0.2700
  486POPI   C2B 7748  14.391   8.961  10.305  0.0753 -0.0017  0.2915
  486POPI   C3B 7749  14.338   8.865   9.928  0.0526 -0.0577 -0.1429
  486POPI   C4B 7750  14.360   8.957   9.541  0.0557  0.0085 -0.2979
  487POPI    C1 7751  13.184   0.320  11.932  0.1110 -0.0761  0.0862
  487POPI    C2 7752  13.040   0.254  12.299  0.0960  0.0035  0.0949
  487POPI    C3 7753  13.308   0.544  12.240 -0.0112  0.0875  0.0176
  487POPI   PO4 7754  13.001   0.406  11.767  0.2123  0.1018  0.0834
  487POPI   GL1 7755  13.035   0.456  11.349  0.0704 -0.0847  0.0328
  487POPI   GL2 7756  13.073   0.750  11.220  0.1716  0.0222 -0.0200
  487POPI   C1A 7757  13.053   0.221  11.007  0.3374 -0.1593  0.1195
  487POPI   D2A 7758  13.070   0.080  10.531 -0.0906 -0.0071 -0.0640
  487POPI   C3A 7759  13.059   0.167  10.050  0.0321 -0.0722 -0.1910
  487POPI   C4A 7760  13.080   0.153   9.601  0.3175  0.0827 -0.2087
  487POPI   C1B 7761  13.092   0.643  10.804  0.0873 -0.4994 -0.0667
  487POPI   C2B 7762  13.162   0.661  10.295 -0.1840 -0.2280 -0.0100
  487POPI   C3B 7763  13.109   0.659   9.782 -0.2344  0.0293 -0.2043
  487POPI   C4B 7764  13.275   0.678   9.453 -0.0573 -0.4373 -0.0696
  488POPI    C1 7765   5.164   7.841  11.541 -0.1585 -0.0107 -0.3159
  488POPI    C2 7766   5.491   7.741  11.749 -0.1110 -0.1313 -0.4470
  488POPI    C3 7767   5.175   7.898  11.937  0.0007 -0.0665 -0.3115
  488POPI   PO4 7768   5.213   7.965  11.363 -0.3001  0.2670 -0.4520
  488POPI   GL1 7769   5.291   7.809  11.039  0.0475  0.0117  0.4492
  488POPI   GL2 7770   5.304   7.550  10.708 -0.2315 -0.0119 -0.1218
  488POPI   C1A 7771   5.268   8.038  10.670  0.0866 -0.0167 -0.0878
  488POPI   D2A 7772   5.184   8.375  10.406  0.0013  0.0169 -0.1615
  488POPI   C3A 7773   4.913   8.467  10.042  0.4211  0.0396  0.2213
  488POPI   C4A 7774   4.697   8.453   9.682  0.1144  0.1813 -0.1157
  488POPI   C1B 7775   5.263   7.638  10.332 -0.0496 -0.2346 -0.1298
  488POPI   C2B 7776   5.176   7.727   9.931  0.1304 -0.0781 -0.2596
  488POPI   C3B 7777   5.161   8.195   9.746  0.1628  0.2433  0.0723
  488POPI   C4B 7778   5.125   8.374   9.384 -0.0787 -0.3626  0.0015
  489POPI    C1 7779   2.707  13.709  11.768  0.0949  0.1012  0.3260
  489POPI    C2 7780   2.429  13.797  12.041 -0.0985  0.0207  0.1574
  489POPI    C3 7781   2.609  13.440  12.047 -0.2034 -0.0340  0.0969
  489POPI   PO4 7782   2.595  13.849  11.544  0.0181  0.4637  0.3016
  489POPI   GL1 7783   2.733  13.706  11.233  0.3693 -0.0057 -0.1199
  489POPI   GL2 7784   2.458  13.456  11.142  0.2626  0.2187  0.1042
  489POPI   C1A 7785   2.985  13.511  10.886 -0.2048  0.0086 -0.1329
  489POPI   D2A 7786   2.942  13.417  10.491  0.0761 -0.0427 -0.1623
  489POPI   C3A 7787   2.947  13.565  10.162  0.1069 -0.0524 -0.0714
  489POPI   C4A 7788   2.961  13.547   9.754  0.0751 -0.0670 -0.0475
  489POPI   C1B 7789   2.527  13.333  10.803  0.2600  0.0827 -0.0089
  489POPI   C2B 7790   2.436  13.309  10.361 -0.3971 -0.0221 -0.0939
  489POPI   C3B 7791   2.475  13.315  10.011  0.0082 -0.0287 -0.0579
  489POPI   C4B 7792   2.416  13.435   9.651  0.1727  0.3461  0.0275
  490POPI    C1 7793   0.066  16.554  11.659 -0.0733  0.0386 -0.1323
  490POPI    C2 7794  -0.046  16.215  11.840  0.1450  0.1022  0.1277
  490POPI    C3 7795  -0.048  16.560  12.043 -0.0090  0.2470 -0.1154
  490POPI   PO4 7796  -0.103  16.568  11.498 -0.1739 -0.0753  0.0004
  490POPI   GL1 7797  -0.227  16.411  11.077  0.2258 -0.2021 -0.1833
  490POPI   GL2 7798  -0.561  16.456  10.922 -0.0259  0.0021  0.1009
  490POPI   C1A 7799  -0.079  16.546  10.704 -0.1472  0.1821  0.0735
  490POPI   D2A 7800  -0.272  16.727  10.304 -0.1401  0.2601  0.3509
  490POPI   C3A 7801  -0.270  16.691   9.941  0.1398  0.0922  0.3526
  490POPI   C4A 7802  -0.354  16.692   9.502 -0.3038 -0.3863  0.4914
  490POPI   C1B 7803  -0.693  16.518  10.542  0.1148  0.0455 -0.2653
  490POPI   C2B 7804  -0.735  16.500  10.044  0.0359  0.1836  0.0245
  490POPI   C3B 7805  -0.817  16.509   9.663  0.0652  0.0697 -0.3234
  490POPI   C4B 7806  -0.805  16.564   9.219 -0.1581 -0.1272  0.1137
  491POPI    C1 7807   1.340   4.387  11.590  0.0794 -0.1929  0.4440
  491POPI    C2 7808   1.506   4.676  11.811  0.0380  0.0504  0.1633
  491POPI    C3 7809   1.145   4.532  11.908 -0.0800  0.3154  0.1268
  491POPI   PO4 7810   1.448   4.478  11.281  0.0472  0.2441 -0.1703
  491POPI   GL1 7811   1.592   4.339  10.799 -0.0589  0.0534  0.0003
  491POPI   GL2 7812   1.700   4.123  10.985 -0.0478 -0.0338 -0.2831
  491POPI   C1A 7813   1.580   4.329  10.361  0.1556  0.3967 -0.0554
  491POPI   D2A 7814   1.454   4.258   9.901  0.3357 -0.1475 -0.2397
  491POPI   C3A 7815   1.519   4.345   9.521  0.0798 -0.3225  0.0832
  491POPI   C4A 7816   1.287   4.352   9.273 -0.0889 -0.1672  0.0998
  491POPI   C1B 7817   1.904   3.998  10.542  0.0297  0.1121  0.0971
  491POPI   C2B 7818   1.861   3.975  10.163  0.3379 -0.0742  0.1604
  491POPI   C3B 7819   1.804   3.881   9.792  0.2716  0.1520 -0.0056
  491POPI   C4B 7820   1.714   3.872   9.384 -0.0974 -0.1685 -0.0804
  492POPI    C1 7821   9.163   7.976  11.250  0.0316  0.1584  0.0356
  492POPI    C2 7822   8.838   7.919  11.475  0.1404 -0.2013  0.1084
  492POPI    C3 7823   9.175   8.054  11.642  0.0721  0.0338  0.0595
  492POPI   PO4 7824   9.060   7.987  11.017  0.2178  0.0724 -0.0482
  492POPI   GL1 7825   8.858   7.956  10.598 -0.1591  0.0079  0.0912
  492POPI   GL2 7826   8.589   7.872  10.583  0.2049 -0.1155  0.0420
  492POPI   C1A 7827   8.810   8.001  10.050 -0.0946  0.0046 -0.3835
  492POPI   D2A 7828   8.751   7.973   9.780 -0.0594 -0.1408  0.0260
  492POPI   C3A 7829   9.014   7.976   9.346 -0.2472  0.0322  0.1914
  492POPI   C4A 7830   9.347   7.898   9.062  0.0098 -0.3110  0.0576
  492POPI   C1B 7831   8.378   7.571  10.211 -0.1101 -0.0432  0.1679
  492POPI   C2B 7832   8.369   7.567   9.764 -0.1777  0.0753  0.3954
  492POPI   C3B 7833   8.341   7.658   9.362 -0.1828  0.0827  0.1627
  492POPI   C4B 7834   8.532   7.958   9.302  0.0622  0.3152  0.0206
  493POPI    C1 7835   9.672   8.736  11.542 -0.2136  0.3160  0.1480
  493POPI    C2 7836   9.346   8.521  11.628  0.0390 -0.1035  0.0884
  493POPI    C3 7837   9.614   8.602  11.914  0.1366 -0.2050  0.0263
  493POPI   PO4 7838   9.729   8.615  11.332  0.1790  0.1714  0.2476
  493POPI   GL1 7839   9.693   8.776  10.859  0.3414  0.1382  0.0113
  493POPI   GL2 7840   9.426   8.779  10.795 -0.3080 -0.0932 -0.1157
  493POPI   C1A 7841   9.823   8.880  10.484  0.1983 -0.0667  0.1215
  493POPI   D2A 7842   9.911   8.900  10.059  0.0135 -0.0351 -0.0074
  493POPI   C3A 7843   9.892   9.091   9.776  0.3849 -0.1572 -0.1003
  493POPI   C4A 7844   9.938   9.179   9.383  0.1916  0.1293 -0.0058
  493POPI   C1B 7845   9.460   8.656  10.331  0.0871 -0.0301  0.1093
  493POPI   C2B 7846   9.510   8.732   9.805  0.0670  0.1555  0.0809
  493POPI   C3B 7847   9.446   8.785   9.356  0.3637 -0.1278  0.3025
  493POPI   C4B 7848   9.544   9.148   9.016  0.0023 -0.1665 -0.1021
  494POPI    C1 7849   8.338   5.483  11.364  0.0496  0.1564 -0.1925
  494POPI    C2 7850   8.098   5.324  11.088 -0.0819  0.0731 -0.0317
  494POPI    C3 7851   8.048   5.231  11.474  0.1066  0.1809  0.0197
  494POPI   PO4 7852   8.364   5.768  11.261  0.1220 -0.1906 -0.3523
  494POPI   GL1 7853   8.269   5.901  10.866 -0.0724  0.2242  0.2349
  494POPI   GL2 7854   7.956   5.799  11.015 -0.2979 -0.0931 -0.1106
  494POPI   C1A 7855   8.227   5.724  10.459 -0.0274  0.2679 -0.0284
  494POPI   D2A 7856   8.250   5.725  10.039 -0.1642 -0.0832 -0.1711
  494POPI   C3A 7857   8.328   5.805   9.584 -0.0601  0.1116 -0.1942
  494POPI   C4A 7858   8.291   5.840   9.229  0.1698 -0.4502 -0.0406
  494POPI   C1B 7859   7.767   5.840  10.693  0.1731  0.0197  0.0269
  494POPI   C2B 7860   7.745   5.819  10.307 -0.0907 -0.1718  0.0035
  494POPI   C3B 7861   7.801   5.876   9.846  0.0518  0.1073 -0.0735
  494POPI   C4B 7862   7.784   5.893   9.483 -0.2578  0.1224 -0.0686
  495POPI    C1 7863   2.402  11.206  11.990  0.2269 -0.1449  0.3791
  495POPI    C2 7864   2.594  11.513  12.160  0.2767  0.0647 -0.0426
  495POPI    C3 7865   2.795  11.182  12.059  0.2896  0.0286  0.0997
  495POPI   PO4 7866   2.362  11.288  11.762 -0.1110 -0.0080 -0.0835
  495POPI   GL1 7867   2.224  11.038  11.377 -0.2929  0.1495  0.3628
  495POPI   GL2 7868   2.270  11.328  11.253  0.0610 -0.2021  0.2195
  495POPI   C1A 7869   1.825  11.079  11.057  0.0631  0.2693  0.1221
  495POPI   D2A 7870   1.701  11.060  10.669  0.1074  0.0203  0.2587
  495POPI   C3A 7871   1.624  11.196  10.252  0.2125 -0.0022 -0.0886
  495POPI   C4A 7872   1.592  11.159   9.881  0.1957  0.4008 -0.1735
  495POPI   C1B 7873   2.165  11.242  10.751  0.0480 -0.2461 -0.1257
  495POPI   C2B 7874   2.153  11.204  10.477 -0.0951 -0.4308 -0.3219
  495POPI   C3B 7875   2.083  11.275  10.079  0.0106 -0.0514 -0.0220
  495POPI   C4B 7876   2.062  11.430   9.728  0.0683 -0.0910 -0.0657
  496POPI    C1 7877   6.064   2.535  11.621  0.0863 -0.2156 -0.0730
  496POPI    C2 7878   5.846   2.308  11.868 -0.1522 -0.0125 -0.0923
  496POPI    C3 7879   6.187   2.472  11.996 -0.1564 -0.0971  0.0289
  496POPI   PO4 7880   6.070   2.455  11.373  0.2019 -0.0974  0.1558
  496POPI   GL1 7881   6.011   2.304  10.910  0.0195  0.1392 -0.2161
  496POPI   GL2 7882   5.916   1.922  11.008 -0.1455  0.0923 -0.0603
  496POPI   C1A 7883   6.142   2.327  10.462 -0.2140  0.2555 -0.1943
  496POPI   D2A 7884   6.119   2.232   9.994  0.0747 -0.0215 -0.1572
  496POPI   C3A 7885   6.177   2.359   9.549 -0.1500 -0.1959 -0.0252
  496POPI   C4A 7886   6.049   2.231   9.049  0.0299  0.2707 -0.0730
  496POPI   C1B 7887   5.821   1.884  10.664 -0.0253 -0.0978  0.0349
  496POPI   C2B 7888   5.772   1.919  10.187 -0.0082  0.3498  0.0605
  496POPI   C3B 7889   5.841   1.875   9.830 -0.1182  0.0312  0.0576
  496POPI   C4B 7890   5.936   1.933   9.449  0.0217  0.1620 -0.1030
  497POPI    C1 7891  11.771   6.231  11.369 -0.0591 -0.1247  0.1122
  497POPI    C2 7892  11.570   5.973  11.599 -0.1539  0.0644  0.2441
  497POPI    C3 7893  11.546   6.366  11.671  0.0214  0.1084  0.0703
  497POPI   PO4 7894  11.722   6.218  11.099  0.1890  0.3880 -0.2085
  497POPI   GL1 7895  11.709   6.609  10.845 -0.2324 -0.0723 -0.2363
  497POPI   GL2 7896  11.927   6.474  10.707  0.1200 -0.0269  0.2977
  497POPI   C1A 7897  11.749   6.945  10.517  0.1503  0.1043  0.0820
  497POPI   D2A 7898  11.813   7.021  10.055 -0.0908 -0.2438  0.1719
  497POPI   C3A 7899  11.810   6.926   9.567  0.0603  0.0301  0.1072
  497POPI   C4A 7900  11.950   6.829   9.130 -0.2322  0.0472 -0.2777
  497POPI   C1B 7901  12.108   6.561  10.326  0.1145  0.4812 -0.3157
  497POPI   C2B 7902  12.220   6.692   9.942 -0.1536 -0.1271 -0.2248
  497POPI   C3B 7903  12.253   6.578   9.464  0.0261 -0.1734 -0.0974
  497POPI   C4B 7904  12.466   6.705   9.064 -0.0605  0.0940  0.1550
  498POPI    C1 7905  12.465   9.337  11.612  0.1265 -0.2501  0.0389
  498POPI    C2 7906  12.412   9.524  11.961  0.0453 -0.2832  0.0444
  498POPI    C3 7907  12.382   9.125  11.941  0.0079 -0.2779 -0.0083
  498POPI   PO4 7908  12.636   9.436  11.489 -0.0365  0.0894 -0.1367
  498POPI   GL1 7909  12.701   9.228  10.997 -0.2002  0.3131 -0.0424
  498POPI   GL2 7910  12.611   9.631  10.953  0.2063 -0.0692 -0.1268
  498POPI   C1A 7911  13.054   9.315  10.762  0.1170 -0.0979  0.3968
  498POPI   D2A 7912  13.154   9.407  10.411 -0.1660 -0.2724  0.1357
  498POPI   C3A 7913  13.057   9.493  10.004 -0.0714  0.2507  0.3205
  498POPI   C4A 7914  13.168   9.462   9.580  0.0519  0.1602 -0.2221
  498POPI   C1B 7915  12.490   9.391  10.592  0.0862 -0.3146 -0.1033
  498POPI   C2B 7916  12.653   9.208  10.320  0.1067  0.1544  0.1705
  498POPI   C3B 7917  12.651   9.167   9.938  0.2386 -0.0652 -0.0641
  498POPI   C4B 7918  12.640   9.273   9.547  0.0164 -0.2799 -0.0222
  499POPI    C1 7919  12.999   7.642  11.630  0.2455 -0.1932 -0.1273
  499POPI    C2 7920  12.921   7.921  11.906  0.5238 -0.1268 -0.1131
  499POPI    C3 7921  13.008   7.548  12.019  0.0011 -0.2627 -0.1370
  499POPI   PO4 7922  13.029   7.717  11.414  0.0109 -0.0595 -0.2900
  499POPI   GL1 7923  13.096   7.596  11.068 -0.0367 -0.0539  0.0440
  499POPI   GL2 7924  13.196   7.391  10.900  0.0346  0.1180  0.3922
  499POPI   C1A 7925  13.199   7.940  10.763  0.1836 -0.1279  0.1352
  499POPI   D2A 7926  13.355   8.090  10.436  0.2466  0.1834  0.1562
  499POPI   C3A 7927  13.368   7.933  10.044  0.4894  0.2220 -0.0641
  499POPI   C4A 7928  13.416   8.030   9.664  0.2240 -0.1077  0.3170
  499POPI   C1B 7929  13.243   7.588  10.424 -0.2700  0.3016  0.0259
  499POPI   C2B 7930  13.310   7.424   9.957  0.1209 -0.1400 -0.2447
  499POPI   C3B 7931  13.330   7.453   9.504 -0.0751  0.2890 -0.2556
  499POPI   C4B 7932  13.234   7.428   9.038  0.1850 -0.0903  0.0443
  500POPI    C1 7933  12.451  11.567  11.692  0.2091 -0.2745  0.0752
  500POPI    C2 7934  12.743  11.647  11.954  0.0437 -0.1368  0.2203
  500POPI    C3 7935  12.372  11.573  12.085 -0.0230 -0.1458  0.0285
  500POPI   PO4 7936  12.569  11.419  11.511  0.1555  0.0082 -0.0873
  500POPI   GL1 7937  12.764  11.444  11.084 -0.4021  0.0813  0.0283
  500POPI   GL2 7938  12.896  11.699  11.037 -0.1091  0.0561  0.1814
  500POPI   C1A 7939  12.934  11.231  10.693  0.1120 -0.0186 -0.0368
  500POPI   D2A 7940  13.065  11.295  10.277 -0.0772  0.1622 -0.0917
  500POPI   C3A 7941  12.934  11.204   9.880  0.0835  0.0659 -0.1089
  500POPI   C4A 7942  13.029  11.233   9.443  0.1651  0.1246 -0.1687
  500POPI   C1B 7943  13.017  11.685  10.544  0.2761 -0.1717 -0.1514
  500POPI   C2B 7944  13.143  11.735  10.071  0.3821 -0.1187 -0.0204
  500POPI   C3B 7945  13.044  11.705   9.696  0.1709  0.1184  0.1111
  500POPI   C4B 7946  13.112  11.716   9.165 -0.0892  0.0762 -0.0388
  501POPI    C1 7947  16.465  14.383  11.791 -0.0955 -0.0970  0.0795
  501POPI    C2 7948  16.724  14.542  12.051 -0.1224  0.1142 -0.0202
  501POPI    C3 7949  16.584  14.171  12.109  0.0387  0.0780  0.1474
  501POPI   PO4 7950  16.546  14.398  11.601  0.1090  0.1153  0.1831
  501POPI   GL1 7951  16.336  14.228  11.302  0.1484  0.0350  0.1298
  501POPI   GL2 7952  16.131  14.000  11.348 -0.2126 -0.3378  0.0056
  501POPI   C1A 7953  16.336  14.495  10.868  0.1769 -0.0308  0.0982
  501POPI   D2A 7954  16.297  14.450  10.466  0.0240  0.1063  0.0231
  501POPI   C3A 7955  16.186  14.555   9.989  0.0858  0.1735 -0.3847
  501POPI   C4A 7956  16.279  14.437   9.577  0.0720  0.1966  0.2097
  501POPI   C1B 7957  16.191  14.006  10.911 -0.0733  0.0565  0.0390
  501POPI   C2B 7958  16.192  13.956  10.497  0.1541  0.1067  0.1908
  501POPI   C3B 7959  16.197  13.967  10.008  0.2805 -0.1033 -0.1844
  501POPI   C4B 7960  16.301  13.901   9.511 -0.1474 -0.0754  0.0270
  502POPI    C1 7961  16.786   2.006  11.811  0.0215 -0.1202 -0.1350
  502POPI    C2 7962  16.797   2.359  11.999  0.2374 -0.0634 -0.2504
  502POPI    C3 7963  16.535   2.079  12.113  0.1975  0.0619 -0.0303
  502POPI   PO4 7964  16.913   2.050  11.590 -0.1484  0.2949 -0.0844
  502POPI   GL1 7965  16.762   1.994  11.224  0.0016 -0.1822  0.2672
  502POPI   GL2 7966  16.593   2.028  10.985 -0.0033  0.1511  0.0942
  502POPI   C1A 7967  16.980   1.754  10.746  0.0015 -0.1438  0.1756
  502POPI   D2A 7968  16.919   1.654  10.248 -0.1985 -0.2715  0.0905
  502POPI   C3A 7969  16.794   1.751   9.808 -0.1958  0.0748 -0.1420
  502POPI   C4A 7970  16.893   1.780   9.447  0.2096  0.0283 -0.1220
  502POPI   C1B 7971  16.613   1.997  10.557 -0.1465  0.1008  0.0488
  502POPI   C2B 7972  16.475   1.986  10.143 -0.0550  0.3285  0.1152
  502POPI   C3B 7973  16.427   2.103   9.682 -0.1875  0.0759 -0.0684
  502POPI   C4B 7974  16.472   2.031   9.174 -0.0383 -0.0658  0.1370
  503POPI    C1 7975   6.783  16.716  11.569  0.1431 -0.1394 -0.1719
  503POPI    C2 7976   7.007  16.495  11.817  0.1167 -0.1187 -0.1296
  503POPI    C3 7977   6.609  16.489  11.849  0.1211  0.0507 -0.0300
  503POPI   PO4 7978   6.869  16.665  11.213  0.3252  0.3807  0.0588
  503POPI   GL1 7979   7.002  16.716  10.948 -0.0230  0.0078 -0.0759
  503POPI   GL2 7980   7.291  16.767  10.919 -0.1441 -0.0016  0.1196
  503POPI   C1A 7981   6.865  16.825  10.534 -0.4319 -0.0842 -0.0117
  503POPI   D2A 7982   6.968  16.887  10.153 -0.0046 -0.1282  0.1062
  503POPI   C3A 7983   6.981  16.812   9.798  0.3114 -0.0567  0.0428
  503POPI   C4A 7984   6.962  16.938   9.389 -0.1345 -0.4098  0.2149
  503POPI   C1B 7985   7.417  16.749  10.571 -0.1768 -0.1524  0.0417
  503POPI   C2B 7986   7.494  16.851  10.088 -0.0391  0.2113  0.0865
  503POPI   C3B 7987   7.506  16.869   9.637  0.0319  0.3815  0.1716
  503POPI   C4B 7988   7.460  16.904   9.230 -0.1552 -0.0540 -0.2788
  504POPI    C1 7989  14.035   4.914  11.759 -0.1044 -0.1912  0.2541
  504POPI    C2 7990  13.638   4.959  11.780 -0.0952  0.0896 -0.0831
  504POPI    C3 7991  13.867   5.054  12.094 -0.2808  0.0772  0.0578
  504POPI   PO4 7992  14.121   5.085  11.518  0.0530  0.1560 -0.2892
  504POPI   GL1 7993  14.216   4.971  11.076 -0.1627  0.2731  0.1039
  504POPI   GL2 7994  13.926   5.185  10.890  0.2440  0.2321 -0.1490
  504POPI   C1A 7995  14.431   4.995  10.761  0.1275 -0.1537  0.1616
  504POPI   D2A 7996  14.789   5.118  10.454  0.0346  0.0576  0.0750
  504POPI   C3A 7997  14.779   5.179  10.008  0.1419  0.2939  0.4520
  504POPI   C4A 7998  14.694   5.215   9.545  0.3602  0.1425 -0.2251
  504POPI   C1B 7999  14.037   5.287  10.437 -0.2882 -0.0016 -0.1356
  504POPI   C2B 8000  14.327   5.069  10.201 -0.0991  0.1342 -0.2776
  504POPI   C3B 8001  14.257   4.929   9.856  0.2116  0.0293  0.1048
  504POPI   C4B 8002  14.272   5.006   9.355  0.2017 -0.0512 -0.1368
  505POPI    C1 8003   2.271   1.752  11.554 -0.1222  0.1664 -0.1282
  505POPI    C2 8004   2.093   1.878  11.889  0.1631 -0.0313  0.1031
  505POPI    C3 8005   2.491   1.834  11.879  0.1491 -0.1003 -0.2394
  505POPI   PO4 8006   2.176   1.484  11.489  0.0841 -0.0325  0.2298
  505POPI   GL1 8007   1.952   1.540  11.054  0.0626  0.2042  0.2298
  505POPI   GL2 8008   2.293   1.376  10.992 -0.3011  0.0674 -0.3773
  505POPI   C1A 8009   1.954   1.620  10.610 -0.4716 -0.0990  0.0823
  505POPI   D2A 8010   1.958   1.617  10.180 -0.1541 -0.0240  0.5966
  505POPI   C3A 8011   1.785   1.592   9.743 -0.1278  0.1393  0.1578
  505POPI   C4A 8012   1.676   1.580   9.336  0.0233 -0.0288  0.1202
  505POPI   C1B 8013   2.337   1.321  10.582  0.1751 -0.2715  0.1072
  505POPI   C2B 8014   2.369   1.261  10.147 -0.1353  0.1915  0.0665
  505POPI   C3B 8015   2.214   1.254   9.741  0.1506 -0.0564 -0.1805
  505POPI   C4B 8016   2.275   1.210   9.279  0.1728 -0.0867 -0.2183
  506POPI    C1 8017   1.072   6.221  11.894  0.0568 -0.0558 -0.3986
  506POPI    C2 8018   1.441   6.074  11.940  0.0312 -0.0294 -0.0862
  506POPI    C3 8019   1.156   5.985  12.206 -0.1147  0.1777 -0.1711
  506POPI   PO4 8020   1.151   6.239  11.538  0.4905  0.1287 -0.3660
  506POPI   GL1 8021   1.296   6.147  11.124  0.3125 -0.3852 -0.0605
  506POPI   GL2 8022   1.093   5.991  10.994  0.1554 -0.3253  0.1242
  506POPI   C1A 8023   1.462   6.141  10.636  0.0398 -0.2102  0.0872
  506POPI   D2A 8024   1.239   6.244  10.205  0.0534  0.0796 -0.0361
  506POPI   C3A 8025   1.283   6.225   9.763 -0.0449  0.1184  0.0162
  506POPI   C4A 8026   1.224   6.128   9.256 -0.1042  0.1217  0.1348
  506POPI   C1B 8027   0.985   6.026  10.510  0.0591  0.3241 -0.1113
  506POPI   C2B 8028   0.775   6.071  10.075  0.1998  0.3338 -0.1344
  506POPI   C3B 8029   0.755   6.100   9.655  0.0549  0.0251  0.1855
  506POPI   C4B 8030   0.686   6.048   9.230  0.2228 -0.2585 -0.1630
  507POPI    C1 8031   1.862   0.541  11.875  0.1647  0.1447 -0.0220
  507POPI    C2 8032   1.773   0.657  12.247 -0.2928  0.1077 -0.1142
  507POPI    C3 8033   1.866   0.275  12.174 -0.1575  0.1244 -0.0327
  507POPI   PO4 8034   1.602   0.585  11.610  0.0942 -0.1120  0.3564
  507POPI   GL1 8035   1.630   0.987  11.270  0.0918  0.0430  0.1119
  507POPI   GL2 8036   1.347   1.077  11.197  0.2166  0.0193  0.3849
  507POPI   C1A 8037   1.459   0.895  10.728 -0.2118 -0.1897 -0.2992
  507POPI   D2A 8038   1.364   0.970  10.354  0.1658  0.1167  0.1167
  507POPI   C3A 8039   1.307   0.846   9.900 -0.1514 -0.1433 -0.0845
  507POPI   C4A 8040   1.136   0.959   9.500 -0.1996  0.0011 -0.0456
  507POPI   C1B 8041   1.045   1.176  10.821 -0.0391  0.0194 -0.3067
  507POPI   C2B 8042   0.995   1.273  10.417 -0.2206  0.0735  0.3292
  507POPI   C3B 8043   0.951   1.184  10.043  0.0905  0.0173  0.3009
  507POPI   C4B 8044   0.785   1.298   9.628  0.0109 -0.0592 -0.0843
  508POPI    C1 8045   4.878  14.085  11.768 -0.0205 -0.0607  0.0382
  508POPI    C2 8046   4.951  13.771  12.005  0.2237  0.0181  0.0698
  508POPI    C3 8047   4.876  14.130  12.165  0.0120 -0.0083  0.0325
  508POPI   PO4 8048   5.027  14.017  11.503 -0.2154  0.0064 -0.0871
  508POPI   GL1 8049   4.797  14.052  11.243  0.1110 -0.1236 -0.2423
  508POPI   GL2 8050   4.951  13.738  11.121 -0.1270 -0.2878  0.1730
  508POPI   C1A 8051   4.811  14.240  10.838  0.1204  0.2531  0.1624
  508POPI   D2A 8052   4.810  14.246  10.405  0.0296  0.1041  0.0476
  508POPI   C3A 8053   4.813  14.298  10.071 -0.0368 -0.0076  0.1443
  508POPI   C4A 8054   4.824  14.289   9.573  0.0370 -0.1309  0.0419
  508POPI   C1B 8055   4.831  13.764  10.700  0.0252  0.3517 -0.1393
  508POPI   C2B 8056   4.720  13.769  10.252 -0.3161 -0.1298 -0.1080
  508POPI   C3B 8057   4.761  13.773   9.863 -0.2839 -0.2555  0.1364
  508POPI   C4B 8058   4.697  13.727   9.386 -0.0530  0.2006  0.2263
  509POPI    C1 8059   2.222   0.141  11.670  0.1185 -0.0827 -0.0633
  509POPI    C2 8060   2.602   0.249  11.727  0.0651  0.1420 -0.1235
  509POPI    C3 8061   2.371   0.157  12.040  0.2461 -0.2719 -0.1054
  509POPI   PO4 8062   2.251   0.018  11.403 -0.1696 -0.2161 -0.0550
  509POPI   GL1 8063   1.980   0.073  11.076  0.1032  0.0574  0.3703
  509POPI   GL2 8064   2.232   0.201  10.926  0.0382 -0.0921 -0.0968
  509POPI   C1A 8065   1.734   0.018  10.678 -0.2293  0.2641 -0.1369
  509POPI   D2A 8066   1.659   0.076  10.289  0.3103 -0.1324  0.1650
  509POPI   C3A 8067   1.727   0.037   9.816  0.0710 -0.2732 -0.2249
  509POPI   C4A 8068   1.588   0.016   9.369 -0.2737  0.1874 -0.0529
  509POPI   C1B 8069   2.216   0.235  10.484  0.3452 -0.0402 -0.2275
  509POPI   C2B 8070   2.233   0.283   9.950 -0.1104  0.4480 -0.2012
  509POPI   C3B 8071   2.270   0.219   9.518 -0.2567  0.0396 -0.2363
  509POPI   C4B 8072   2.224   0.351   9.219  0.1197  0.1169 -0.0550
  510POPI    C1 8073  13.043  16.282  11.531 -0.5719  0.0309 -0.1459
  510POPI    C2 8074  13.077  16.272  11.930 -0.0940 -0.1301 -0.1851
  510POPI    C3 8075  12.716  16.248  11.759 -0.2819 -0.3445  0.2290
  510POPI   PO4 8076  13.146  16.113  11.438 -0.0438  0.1840  0.1635
  510POPI   GL1 8077  13.069  16.045  10.977 -0.2477  0.1730  0.2752
  510POPI   GL2 8078  12.897  16.349  11.021 -0.0105 -0.2194 -0.2219
  510POPI   C1A 8079  13.346  16.219  10.561 -0.0827 -0.1296 -0.2169
  510POPI   D2A 8080  13.325  16.237  10.140  0.0155 -0.1253 -0.1844
  510POPI   C3A 8081  13.272  16.171   9.727 -0.0736 -0.0254  0.5297
  510POPI   C4A 8082  13.287  16.155   9.257 -0.1143 -0.1815  0.2122
  510POPI   C1B 8083  12.878  16.453  10.594 -0.0732 -0.0532 -0.0461
  510POPI   C2B 8084  12.827  16.425  10.174  0.2651 -0.0229 -0.1281
  510POPI   C3B 8085  12.852  16.506   9.777  0.2404  0.0152  0.0520
  510POPI   C4B 8086  12.907  16.516   9.327  0.2302  0.1349 -0.4597
  511POPI    C1 8087  13.269   8.673  11.642 -0.0741 -0.1847 -0.1424
  511POPI    C2 8088  13.343   8.991  11.872 -0.0211 -0.1619 -0.1910
  511POPI    C3 8089  13.482   8.631  11.977 -0.1631 -0.1867 -0.0856
  511POPI   PO4 8090  13.351   8.703  11.410 -0.1345 -0.0673 -0.0778
  511POPI   GL1 8091  13.427   8.420  11.011 -0.0894 -0.0355  0.1289
  511POPI   GL2 8092  13.673   8.662  10.961  0.2925 -0.2027  0.1616
  511POPI   C1A 8093  13.377   8.541  10.576 -0.0801 -0.0580 -0.1015
  511POPI   D2A 8094  13.463   8.498  10.150 -0.2380 -0.1191 -0.1542
  511POPI   C3A 8095  13.437   8.626   9.726  0.3222 -0.0950 -0.1907
  511POPI   C4A 8096  13.459   8.561   9.285 -0.0997 -0.2792 -0.1131
  511POPI   C1B 8097  13.891   8.755  10.450 -0.0519  0.0192 -0.0795
  511POPI   C2B 8098  13.892   8.687   9.979 -0.1637 -0.1203  0.0726
  511POPI   C3B 8099  13.893   8.771   9.524 -0.0487 -0.4110 -0.0215
  511POPI   C4B 8100  14.064   8.790   9.107  0.0036 -0.0749  0.0370
  512POPI    C1 8101  13.222   4.597  11.457 -0.1468  0.1279  0.1990
  512POPI    C2 8102  13.282   4.992  11.433 -0.0940  0.0907 -0.4964
  512POPI    C3 8103  12.964   4.848  11.629  0.0226  0.4591 -0.0196
  512POPI   PO4 8104  13.290   4.504  11.243  0.1928 -0.1179  0.0251
  512POPI   GL1 8105  13.171   4.383  10.806 -0.0369 -0.1231  0.2306
  512POPI   GL2 8106  13.135   4.634  10.575  0.2150 -0.1068  0.1284
  512POPI   C1A 8107  13.135   4.132  10.504  0.2316  0.1087  0.3320
  512POPI   D2A 8108  13.207   4.052  10.038 -0.3623  0.1763 -0.1188
  512POPI   C3A 8109  13.178   4.042   9.639  0.1014  0.2269  0.2644
  512POPI   C4A 8110  13.169   4.157   9.136  0.0487  0.0015 -0.0499
  512POPI   C1B 8111  13.160   4.570  10.182  0.1850  0.1316  0.1970
  512POPI   C2B 8112  13.294   4.533   9.726  0.0152  0.0826 -0.0801
  512POPI   C3B 8113  13.275   4.685   9.349 -0.1091 -0.1735  0.2102
  512POPI   C4B 8114  13.339   4.673   8.968 -0.1540 -0.2164 -0.0522
  513POPI    C1 8115  17.042   9.601  11.720  0.0584 -0.2904 -0.2559
  513POPI    C2 8116  17.357   9.506  11.947  0.0467  0.0419 -0.0945
  513POPI    C3 8117  17.040   9.262  11.932  0.1156 -0.0628  0.1163
  513POPI   PO4 8118  17.031   9.631  11.477  0.1703 -0.1726 -0.0885
  513POPI   GL1 8119  16.895   9.531  11.163  0.2514  0.1523 -0.1649
  513POPI   GL2 8120  16.726   9.903  11.179 -0.2970 -0.0031  0.0158
  513POPI   C1A 8121  16.773   9.487  10.739  0.0368  0.0083 -0.3413
  513POPI   D2A 8122  16.747   9.477  10.247 -0.3141  0.1857  0.1766
  513POPI   C3A 8123  16.753   9.334   9.822  0.1473 -0.0824 -0.0713
  513POPI   C4A 8124  16.785   9.314   9.398 -0.4142 -0.0855 -0.2062
  513POPI   C1B 8125  16.844   9.974  10.764  0.2327  0.1454  0.0585
  513POPI   C2B 8126  16.838   9.947  10.344 -0.0507 -0.3567  0.0218
  513POPI   C3B 8127  16.889   9.910   9.895 -0.1599 -0.0398 -0.2388
  513POPI   C4B 8128  16.918   9.860   9.563 -0.2171  0.4166 -0.0974
  514POPI    C1 8129  14.844  10.250  11.864 -0.1190  0.0241 -0.1961
  514POPI    C2 8130  15.098   9.941  11.871 -0.2442 -0.0774 -0.0930
  514POPI    C3 8131  15.095  10.204  12.172 -0.2147 -0.0378 -0.1270
  514POPI   PO4 8132  14.888  10.413  11.594  0.1561  0.0526 -0.2197
  514POPI   GL1 8133  14.773  10.433  11.225  0.0201 -0.0094 -0.2762
  514POPI   GL2 8134  14.516  10.535  11.294  0.0137 -0.0285  0.1389
  514POPI   C1A 8135  14.924  10.141  10.918 -0.1992 -0.2599 -0.0282
  514POPI   D2A 8136  15.020  10.124  10.472  0.0220  0.0924  0.1682
  514POPI   C3A 8137  15.010  10.109  10.097 -0.0659  0.0161 -0.0342
  514POPI   C4A 8138  15.158  10.212   9.665 -0.0376  0.1662 -0.3108
  514POPI   C1B 8139  14.512  10.485  10.825  0.1839  0.0535 -0.1762
  514POPI   C2B 8140  14.633  10.488  10.374  0.0755  0.3607  0.0540
  514POPI   C3B 8141  14.734  10.557   9.891  0.0260  0.2427 -0.2434
  514POPI   C4B 8142  14.788  10.572   9.465  0.1769  0.0046 -0.2105
  515POPI    C1 8143  13.695   3.498  11.245 -0.1246  0.1605 -0.1395
  515POPI    C2 8144  13.497   3.708  11.523 -0.0760 -0.0895  0.0886
  515POPI    C3 8145  13.336   3.374  11.372 -0.0668  0.0024 -0.1279
  515POPI   PO4 8146  13.924   3.699  11.164  0.2526 -0.1596  0.1712
  515POPI   GL1 8147  14.112   3.596  10.819  0.2758 -0.0570  0.2044
  515POPI   GL2 8148  13.913   3.308  10.822 -0.4987 -0.2072  0.0493
  515POPI   C1A 8149  14.424   3.674  10.538 -0.0318  0.3746 -0.0946
  515POPI   D2A 8150  14.456   3.558  10.032 -0.0740  0.0715 -0.0306
  515POPI   C3A 8151  14.449   3.697   9.581  0.2184 -0.1609  0.0322
  515POPI   C4A 8152  14.479   3.603   9.237 -0.1931  0.0348  0.0708
  515POPI   C1B 8153  13.989   3.509  10.333 -0.0426  0.1992 -0.0484
  515POPI   C2B 8154  14.004   3.455   9.880  0.0327  0.0103  0.0334
  515POPI   C3B 8155  14.036   3.452   9.495  0.3804  0.0597  0.1230
  515POPI   C4B 8156  14.084   3.395   8.997 -0.3610 -0.0899  0.0507
  516POPI    C1 8157   7.157  17.145  11.264  0.0208  0.0647 -0.1608
  516POPI    C2 8158   7.527  17.122  11.413  0.0443  0.1520 -0.2051
  516POPI    C3 8159   7.274  16.816  11.458  0.1150  0.1005 -0.1564
  516POPI   PO4 8160   7.043  17.172  11.113 -0.3501  0.0056  0.1455
  516POPI   GL1 8161   7.266  17.269  10.745  0.2933 -0.0495 -0.2280
  516POPI   GL2 8162   7.580  17.178  10.820 -0.0953  0.1021 -0.2066
  516POPI   C1A 8163   7.281  17.249  10.324 -0.0114 -0.0973 -0.0515
  516POPI   D2A 8164   7.229  17.286   9.855  0.2409  0.1277  0.1592
  516POPI   C3A 8165   7.343  17.341   9.370  0.1966 -0.1348  0.1022
  516POPI   C4A 8166   7.266  17.314   8.981  0.1345 -0.1678 -0.1381
  516POPI   C1B 8167   7.789  17.140  10.356 -0.1434 -0.1697  0.1379
  516POPI   C2B 8168   7.806  17.252   9.883  0.0226  0.1200 -0.1919
  516POPI   C3B 8169   7.802  17.281   9.479 -0.1647  0.2276  0.2697
  516POPI   C4B 8170   7.793  17.364   9.046  0.1423  0.2793 -0.1419
  517POPI    C1 8171  12.494   0.335  11.623 -0.1166 -0.1457  0.0063
  517POPI    C2 8172  12.301   0.675  11.708 -0.2130 -0.1795 -0.0760
  517POPI    C3 8173  12.605   0.678  11.448  0.0555 -0.0831  0.2333
  517POPI   PO4 8174  12.266   0.168  11.571  0.0577  0.0233  0.0656
  517POPI   GL1 8175  12.207   0.027  11.172  0.0979  0.0493  0.2582
  517POPI   GL2 8176  12.593  -0.042  11.225 -0.1876 -0.2667 -0.1689
  517POPI   C1A 8177  12.187   0.255  10.739 -0.0099 -0.0024  0.1256
  517POPI   D2A 8178  12.212   0.336  10.345  0.2039  0.1400 -0.2755
  517POPI   C3A 8179  12.186   0.416   9.855 -0.0832 -0.3729 -0.1621
  517POPI   C4A 8180  12.226   0.371   9.449  0.2506  0.1335 -0.0780
  517POPI   C1B 8181  12.572  -0.041  10.793  0.0630  0.0255 -0.1078
  517POPI   C2B 8182  12.587  -0.001  10.308 -0.4286 -0.1417 -0.3014
  517POPI   C3B 8183  12.584   0.106   9.765  0.0635 -0.4202  0.0664
  517POPI   C4B 8184  12.615  -0.018   9.363  0.2381 -0.2424  0.0544
  518POPI    C1 8185   1.671   7.891  11.588  0.1227 -0.2702 -0.0505
  518POPI    C2 8186   1.833   7.887  11.954  0.0276  0.0269 -0.0027
  518POPI    C3 8187   1.435   7.877  11.910  0.0359  0.0861 -0.0947
  518POPI   PO4 8188   1.933   7.724  11.487  0.1697 -0.0926 -0.1255
  518POPI   GL1 8189   2.208   7.766  11.140  0.0311  0.1010 -0.0683
  518POPI   GL2 8190   1.958   7.806  10.970  0.0667 -0.1452  0.1839
  518POPI   C1A 8191   2.341   7.522  10.741  0.0934 -0.0635 -0.3503
  518POPI   D2A 8192   2.481   7.584  10.335 -0.1082  0.0271  0.1037
  518POPI   C3A 8193   2.281   7.616   9.938 -0.0762  0.1756 -0.2522
  518POPI   C4A 8194   2.307   7.588   9.447  0.0835 -0.0775 -0.0769
  518POPI   C1B 8195   2.069   7.849  10.525 -0.0616 -0.0168  0.2170
  518POPI   C2B 8196   1.977   7.966  10.147  0.0854  0.1985 -0.1299
  518POPI   C3B 8197   1.994   7.905   9.685  0.1230  0.1195  0.1562
  518POPI   C4B 8198   1.913   7.789   9.163  0.2487 -0.1708 -0.2685
  519POPI    C1 8199   9.601  14.568  11.489  0.0370 -0.0560  0.0019
  519POPI    C2 8200   9.533  14.272  11.749  0.1085 -0.0337  0.0466
  519POPI    C3 8201   9.446  14.650  11.849 -0.2128 -0.0649 -0.1020
  519POPI   PO4 8202   9.837  14.617  11.375  0.0526 -0.0112  0.1619
  519POPI   GL1 8203  10.035  14.477  10.948  0.0491  0.2973 -0.2447
  519POPI   GL2 8204  10.269  14.380  10.851  0.0466 -0.1513 -0.3306
  519POPI   C1A 8205   9.850  14.459  10.531 -0.2128  0.5118  0.1149
  519POPI   D2A 8206   9.773  14.540  10.067 -0.2402  0.1257  0.2211
  519POPI   C3A 8207   9.876  14.409   9.633 -0.0221  0.1549 -0.4048
  519POPI   C4A 8208   9.802  14.496   9.191  0.0894  0.0917  0.1975
  519POPI   C1B 8209  10.280  14.476  10.387 -0.3141 -0.0713  0.1929
  519POPI   C2B 8210  10.266  14.432   9.950  0.0560 -0.0862 -0.2254
  519POPI   C3B 8211  10.274  14.185   9.448  0.0416  0.3055  0.2149
  519POPI   C4B 8212  10.132  13.980   9.006  0.0563  0.0556 -0.0855
  520POPI    C1 8213   9.978  16.118  11.300 -0.1244  0.0536 -0.0057
  520POPI    C2 8214  10.031  16.080  11.695 -0.0142 -0.2982 -0.0507
  520POPI    C3 8215  10.296  16.284  11.475 -0.2147  0.1264  0.0907
  520POPI   PO4 8216   9.788  15.903  11.259 -0.2811 -0.0645 -0.0511
  520POPI   GL1 8217   9.830  15.590  11.049 -0.2098  0.1167 -0.0341
  520POPI   GL2 8218   9.594  15.443  11.155  0.4496 -0.0353  0.0698
  520POPI   C1A 8219  10.006  15.413  10.712  0.2110  0.2382  0.0032
  520POPI   D2A 8220   9.911  15.453  10.268 -0.2245  0.0642 -0.0992
  520POPI   C3A 8221   9.949  15.470   9.775  0.0526  0.0559  0.1737
  520POPI   C4A 8222   9.992  15.501   9.345  0.0514  0.2904 -0.0254
  520POPI   C1B 8223   9.488  15.498  10.729  0.2501 -0.1126  0.0132
  520POPI   C2B 8224   9.430  15.611  10.219  0.0207 -0.0479 -0.1331
  520POPI   C3B 8225   9.344  15.657   9.776 -0.2337  0.3310 -0.2675
  520POPI   C4B 8226   9.262  15.702   9.314 -0.0731  0.2800 -0.2738
  521POPI    C1 8227   3.750   4.951  11.203  0.0726  0.0297  0.1359
  521POPI    C2 8228   4.053   5.007  10.947  0.1243 -0.3270  0.1151
  521POPI    C3 8229   4.123   4.998  11.341  0.0900 -0.0827  0.1279
  521POPI   PO4 8230   3.675   4.688  11.112  0.2362 -0.0888  0.1676
  521POPI   GL1 8231   3.918   4.587  10.762  0.1747 -0.0298 -0.0107
  521POPI   GL2 8232   3.747   4.274  10.794 -0.2221 -0.1982 -0.1077
  521POPI   C1A 8233   4.041   4.751  10.504 -0.0762 -0.0993 -0.0713
  521POPI   D2A 8234   4.098   4.776  10.105  0.2336 -0.2708  0.1844
  521POPI   C3A 8235   3.979   4.930   9.691  0.0828  0.0707  0.0964
  521POPI   C4A 8236   3.876   5.062   9.275 -0.0276  0.2763  0.0069
  521POPI   C1B 8237   3.761   4.311  10.328 -0.0496 -0.0725  0.2896
  521POPI   C2B 8238   3.751   4.392  10.019  0.1398 -0.1555 -0.2143
  521POPI   C3B 8239   3.746   4.475   9.592  0.2780 -0.0272 -0.0663
  521POPI   C4B 8240   3.688   4.596   9.139 -0.2189 -0.2025  0.2284
  522POPI    C1 8241   9.263   1.729  11.503 -0.2505 -0.1308  0.0402
  522POPI    C2 8242   9.653   1.747  11.591 -0.2168  0.3379 -0.1792
  522POPI    C3 8243   9.398   1.581  11.850  0.1426 -0.1051 -0.0964
  522POPI   PO4 8244   9.294   1.647  11.144  0.1293  0.1234 -0.2291
  522POPI   GL1 8245   9.481   1.578  10.762 -0.1756  0.2331  0.2048
  522POPI   GL2 8246   9.534   1.224  10.772 -0.1881  0.4266  0.1740
  522POPI   C1A 8247   9.681   1.775  10.361  0.2922 -0.3033 -0.1386
  522POPI   D2A 8248   9.663   1.771   9.898  0.2247 -0.1125  0.0179
  522POPI   C3A 8249   9.443   1.671   9.503 -0.0218  0.1177 -0.1009
  522POPI   C4A 8250   8.994   1.734   9.468  0.0312 -0.0099  0.0193
  522POPI   C1B 8251   9.588   1.288  10.331  0.0471 -0.2009  0.1204
  522POPI   C2B 8252   9.593   1.274   9.862  0.0725  0.0244  0.2174
  522POPI   C3B 8253   9.636   1.091   9.412  0.2327  0.0365  0.2712
  522POPI   C4B 8254   9.741   0.992   8.982 -0.0799 -0.0841  0.0337
  523POPI    C1 8255   4.252   4.004  11.388 -0.0721 -0.0518  0.0756
  523POPI    C2 8256   4.286   3.794  11.727  0.0026  0.0655  0.1415
  523POPI    C3 8257   4.381   4.183  11.722  0.1668  0.0246 -0.0551
  523POPI   PO4 8258   4.008   3.942  11.291 -0.1832  0.0932 -0.1077
  523POPI   GL1 8259   3.849   3.846  11.035 -0.1365  0.1919  0.1098
  523POPI   GL2 8260   3.662   3.634  11.142  0.0898  0.0023 -0.2073
  523POPI   C1A 8261   3.928   3.804  10.587 -0.2960  0.1288  0.2585
  523POPI   D2A 8262   3.994   3.903  10.084 -0.1306 -0.0410 -0.5034
  523POPI   C3A 8263   3.711   3.965   9.736  0.0775 -0.0430  0.0015
  523POPI   C4A 8264   3.545   4.025   9.201  0.0722  0.0396  0.1224
  523POPI   C1B 8265   3.529   3.606  10.775  0.3558  0.2671  0.0492
  523POPI   C2B 8266   3.490   3.502  10.255 -0.3363  0.0779 -0.0635
  523POPI   C3B 8267   3.588   3.469   9.895 -0.2215 -0.1157 -0.0536
  523POPI   C4B 8268   3.779   3.532   9.463 -0.1094 -0.2196  0.0299
  524DPPI    C1 8269   7.559   0.745  11.451 -0.0230  0.0386 -0.1777
  524DPPI    C2 8270   7.461   1.132  11.479 -0.1964 -0.0194  0.0459
  524DPPI    C3 8271   7.594   0.935  11.801  0.3844 -0.0199 -0.1821
  524DPPI   PO4 8272   7.517   0.718  11.136 -0.3171 -0.2623  0.0455
  524DPPI   GL1 8273   7.515   0.676  10.769  0.2686 -0.0928  0.0940
  524DPPI   GL2 8274   7.560   0.416  10.661  0.2959  0.2823  0.0583
  524DPPI   C1A 8275   7.417   0.739  10.332  0.1153 -0.0683 -0.1305
  524DPPI   C2A 8276   7.365   0.893   9.858  0.0740  0.0617 -0.1689
  524DPPI   C3A 8277   7.439   0.974   9.483  0.4120 -0.1247  0.1138
  524DPPI   C4A 8278   7.333   0.939   9.007  0.1526 -0.2581 -0.3161
  524DPPI   C1B 8279   7.726   0.372  10.196  0.0540 -0.4671 -0.0733
  524DPPI   C2B 8280   7.571   0.418   9.809 -0.1460 -0.2077 -0.0095
  524DPPI   C3B 8281   7.702   0.421   9.424  0.2573  0.0057  0.1218
  524DPPI   C4B 8282   7.549   0.500   8.989  0.0024  0.0571  0.1851
  525DPPI    C1 8283  16.146   4.928  11.275 -0.2205 -0.1732  0.1573
  525DPPI    C2 8284  16.218   5.044  11.651 -0.1113  0.0087  0.0815
  525DPPI    C3 8285  16.263   4.660  11.549  0.1693  0.0127  0.1804
  525DPPI   PO4 8286  15.950   5.005  11.172 -0.0072 -0.0034 -0.1662
  525DPPI   GL1 8287  15.792   5.264  10.859  0.1657 -0.2915  0.0425
  525DPPI   GL2 8288  16.144   5.129  10.740 -0.2152 -0.2442  0.0346
  525DPPI   C1A 8289  15.791   5.450  10.441 -0.1166 -0.1024 -0.2445
  525DPPI   C2A 8290  15.699   5.592   9.988  0.3277 -0.2367 -0.1792
  525DPPI   C3A 8291  15.678   5.670   9.531 -0.0865  0.0434  0.0377
  525DPPI   C4A 8292  15.638   5.721   9.088 -0.0162 -0.1509  0.1205
  525DPPI   C1B 8293  16.174   5.194  10.371 -0.2630  0.1401 -0.3566
  525DPPI   C2B 8294  16.097   5.318   9.973 -0.1635  0.1261  0.1952
  525DPPI   C3B 8295  16.095   5.361   9.474  0.0733  0.2229 -0.1856
  525DPPI   C4B 8296  16.078   5.467   9.033  0.0677 -0.0206 -0.0809
  526DPPI    C1 8297   6.778  16.020  11.606  0.1138 -0.3048 -0.0332
  526DPPI    C2 8298   6.452  15.946  11.825  0.0650  0.2317  0.0896
  526DPPI    C3 8299   6.789  16.067  12.003  0.2393 -0.0142 -0.0683
  526DPPI   PO4 8300   6.784  16.186  11.333 -0.0753 -0.0623 -0.0809
  526DPPI   GL1 8301   7.007  16.258  10.875  0.0216 -0.0608 -0.2469
  526DPPI   GL2 8302   7.266  16.103  10.835  0.1240 -0.0533  0.2785
  526DPPI   C1A 8303   7.126  16.419  10.437  0.0296  0.2574 -0.0318
  526DPPI   C2A 8304   7.106  16.356   9.996 -0.2802  0.0859  0.0659
  526DPPI   C3A 8305   7.129  16.433   9.534 -0.2533  0.1409 -0.1175
  526DPPI   C4A 8306   7.174  16.502   9.082  0.1690 -0.0663  0.0654
  526DPPI   C1B 8307   7.417  15.949  10.440  0.2692  0.0343  0.0392
  526DPPI   C2B 8308   7.372  15.833  10.085  0.1134 -0.0333  0.0622
  526DPPI   C3B 8309   7.308  15.872   9.664 -0.2303  0.1995 -0.0277
  526DPPI   C4B 8310   7.331  16.057   9.294  0.0459  0.1774  0.0534
  527DPPI    C1 8311   8.022   0.894  11.486 -0.1453  0.0193  0.2069
  527DPPI    C2 8312   8.320   1.042  11.708  0.0100 -0.0213  0.0281
  527DPPI    C3 8313   7.966   1.228  11.699  0.1220  0.1946  0.0102
  527DPPI   PO4 8314   8.171   0.850  11.271  0.1104  0.1306  0.2125
  527DPPI   GL1 8315   8.202   1.074  10.823  0.1348 -0.1931  0.3364
  527DPPI   GL2 8316   8.177   1.333  10.712 -0.1596 -0.1193  0.1098
  527DPPI   C1A 8317   7.927   0.803  10.512  0.1863  0.0007 -0.0105
  527DPPI   C2A 8318   7.846   0.943  10.088  0.0669 -0.0159 -0.1558
  527DPPI   C3A 8319   7.952   0.973   9.652  0.1455  0.0458  0.0277
  527DPPI   C4A 8320   7.830   0.841   9.166  0.1221 -0.3558  0.1914
  527DPPI   C1B 8321   8.174   1.195  10.339  0.1564  0.0736 -0.2048
  527DPPI   C2B 8322   8.189   1.337   9.902 -0.1996  0.1950 -0.2876
  527DPPI   C3B 8323   8.180   1.377   9.474 -0.0305  0.1031 -0.0905
  527DPPI   C4B 8324   8.348   1.501   8.979  0.0545  0.0336  0.0689
  528DPPI    C1 8325  13.641  15.254  11.635 -0.1421  0.0110  0.1128
  528DPPI    C2 8326  13.640  14.890  11.470  0.0618  0.0817 -0.0492
  528DPPI    C3 8327  13.433  14.958  11.806  0.0620 -0.1949  0.0095
  528DPPI   PO4 8328  13.879  15.377  11.642 -0.4893  0.0403  0.1843
  528DPPI   GL1 8329  14.126  15.459  11.248  0.1590  0.0113  0.0564
  528DPPI   GL2 8330  13.770  15.368  11.136 -0.1275  0.1278  0.3675
  528DPPI   C1A 8331  14.027  15.459  10.729 -0.2145 -0.0825  0.2720
  528DPPI   C2A 8332  14.092  15.576  10.333  0.0814 -0.1549  0.0766
  528DPPI   C3A 8333  14.115  15.599  10.021  0.1551 -0.3039 -0.2244
  528DPPI   C4A 8334  14.090  15.504   9.554  0.2011  0.3641  0.2504
  528DPPI   C1B 8335  13.591  15.207  10.648  0.0984 -0.2568 -0.2520
  528DPPI   C2B 8336  13.627  15.277  10.284  0.1723 -0.0923 -0.2508
  528DPPI   C3B 8337  13.687  15.341   9.861  0.0218  0.0706 -0.0356
  528DPPI   C4B 8338  13.653  15.330   9.382  0.1706  0.0315  0.0747
  529DPPI    C1 8339   4.983   7.338  11.330 -0.0694 -0.2538  0.0453
  529DPPI    C2 8340   5.166   7.127  11.616 -0.0700 -0.0882  0.1696
  529DPPI    C3 8341   4.892   7.401  11.715  0.3396  0.3779  0.0549
  529DPPI   PO4 8342   5.072   7.345  11.091  0.0999 -0.0617 -0.1260
  529DPPI   GL1 8343   4.828   7.390  10.658 -0.4175 -0.0877 -0.3670
  529DPPI   GL2 8344   4.831   7.756  10.794 -0.2463  0.0046 -0.2213
  529DPPI   C1A 8345   4.812   7.404  10.235 -0.0707  0.0327  0.0325
  529DPPI   C2A 8346   4.707   7.524   9.835  0.0196  0.1492 -0.2014
  529DPPI   C3A 8347   4.589   7.505   9.443 -0.0553  0.1498 -0.1629
  529DPPI   C4A 8348   4.506   7.672   9.139  0.2522 -0.1706  0.0690
  529DPPI   C1B 8349   4.879   7.965  10.298  0.0289  0.1823  0.0360
  529DPPI   C2B 8350   4.729   8.017   9.902  0.0659  0.0778  0.1903
  529DPPI   C3B 8351   4.634   7.983   9.546  0.0754 -0.0274 -0.0992
  529DPPI   C4B 8352   4.640   8.250   9.160 -0.0710  0.1729  0.1876
  530DPPI    C1 8353  14.649   4.284  11.365  0.0262  0.1206 -0.1556
  530DPPI    C2 8354  14.646   4.507  11.697 -0.0304 -0.0338 -0.0513
  530DPPI    C3 8355  14.919   4.218  11.652 -0.0299 -0.0208 -0.1345
  530DPPI   PO4 8356  14.609   4.446  11.188 -0.0336 -0.1395 -0.0983
  530DPPI   GL1 8357  14.415   4.542  10.883  0.1328 -0.0158  0.2211
  530DPPI   GL2 8358  14.026   4.573  10.874  0.4005  0.1790  0.0367
  530DPPI   C1A 8359  14.593   4.644  10.437  0.3701  0.1462 -0.0384
  530DPPI   C2A 8360  14.628   4.671  10.050 -0.2199  0.1439 -0.0377
  530DPPI   C3A 8361  14.670   4.760   9.605  0.3452  0.2012 -0.1052
  530DPPI   C4A 8362  14.744   4.959   9.146  0.1394 -0.0504 -0.0867
  530DPPI   C1B 8363  14.074   4.476  10.414  0.0407  0.0787 -0.0416
  530DPPI   C2B 8364  14.181   4.469  10.058 -0.1007 -0.1347 -0.0968
  530DPPI   C3B 8365  14.127   4.507   9.587 -0.0662  0.2515  0.0471
  530DPPI   C4B 8366  14.079   4.521   9.098 -0.1294  0.2109 -0.3224
  531DPPI    C1 8367  15.854   8.089  11.765  0.1323 -0.1387  0.0243
  531DPPI    C2 8368  15.602   7.873  11.988  0.2349 -0.0220  0.2567
  531DPPI    C3 8369  15.710   8.239  12.107  0.1000  0.1415 -0.1093
  531DPPI   PO4 8370  15.728   8.176  11.469  0.1170 -0.1281 -0.1336
  531DPPI   GL1 8371  15.782   8.393  11.125 -0.2896  0.0142 -0.3025
  531DPPI   GL2 8372  16.096   8.299  10.945 -0.3510 -0.1129 -0.3123
  531DPPI   C1A 8373  15.659   8.493  10.833 -0.2505 -0.0683  0.2894
  531DPPI   C2A 8374  15.652   8.505  10.455  0.0344 -0.0269  0.0131
  531DPPI   C3A 8375  15.767   8.444  10.133 -0.1751  0.1454  0.0276
  531DPPI   C4A 8376  15.716   8.415   9.645 -0.0546  0.1667  0.1747
  531DPPI   C1B 8377  16.028   8.159  10.565  0.0287 -0.0331  0.1605
  531DPPI   C2B 8378  16.111   8.118  10.217 -0.2681  0.0306  0.1205
  531DPPI   C3B 8379  16.097   8.018   9.749 -0.1166 -0.1226  0.0321
  531DPPI   C4B 8380  16.017   8.190   9.318  0.0687  0.1896  0.0485
  532DPPI    C1 8381   6.789  13.164  11.723 -0.1255  0.1787 -0.1420
  532DPPI    C2 8382   6.911  13.475  11.942 -0.0532  0.1285 -0.1106
  532DPPI    C3 8383   7.094  13.121  11.978 -0.1682  0.0690 -0.1089
  532DPPI   PO4 8384   6.512  13.273  11.676 -0.0025 -0.2344  0.0779
  532DPPI   GL1 8385   6.389  13.338  11.272  0.0789  0.0991  0.0532
  532DPPI   GL2 8386   6.608  13.052  11.228  0.1630 -0.2256 -0.2661
  532DPPI   C1A 8387   6.260  13.066  10.896  0.2583 -0.0600 -0.0800
  532DPPI   C2A 8388   6.152  13.012  10.489 -0.2544 -0.1132  0.2473
  532DPPI   C3A 8389   6.091  12.753  10.156 -0.0304 -0.0084  0.0448
  532DPPI   C4A 8390   6.018  12.826   9.695 -0.0329 -0.1201 -0.0725
  532DPPI   C1B 8391   6.704  12.798  10.786 -0.0805 -0.2091 -0.3548
  532DPPI   C2B 8392   6.610  12.782  10.454  0.0291  0.0707  0.0356
  532DPPI   C3B 8393   6.601  12.776   9.984 -0.0349  0.1587  0.0326
  532DPPI   C4B 8394   6.512  12.822   9.498 -0.1015  0.0728 -0.2158
  533DPPI    C1 8395  13.617  11.710  12.057 -0.0259  0.1385 -0.0526
  533DPPI    C2 8396  13.571  11.378  12.275 -0.1015  0.0189 -0.2477
  533DPPI    C3 8397  13.932  11.545  12.241 -0.1405  0.2149  0.2173
  533DPPI   PO4 8398  13.520  11.554  11.765 -0.0729 -0.1341  0.0995
  533DPPI   GL1 8399  13.517  11.417  11.263  0.0270  0.0094 -0.0548
  533DPPI   GL2 8400  13.329  11.387  11.049 -0.0700 -0.1082  0.0537
  533DPPI   C1A 8401  13.792  11.477  10.894 -0.0677  0.1451 -0.1724
  533DPPI   C2A 8402  13.862  11.563  10.490  0.1973 -0.0556  0.0791
  533DPPI   C3A 8403  13.926  11.607  10.018  0.0545  0.0742  0.0756
  533DPPI   C4A 8404  13.886  11.579   9.633  0.1848 -0.0543 -0.1387
  533DPPI   C1B 8405  13.434  11.339  10.588  0.1041  0.0118 -0.0804
  533DPPI   C2B 8406  13.510  11.426  10.224 -0.5631  0.2236 -0.0277
  533DPPI   C3B 8407  13.432  11.453   9.714 -0.0913  0.0254 -0.1559
  533DPPI   C4B 8408  13.474  11.448   9.308 -0.2713 -0.2441  0.0629
  534DPPI    C1 8409   0.885  17.139  11.988 -0.0922  0.0444 -0.0535
  534DPPI    C2 8410   0.570  17.383  12.019 -0.1342 -0.0255  0.0806
  534DPPI    C3 8411   0.703  17.186  12.341  0.0996  0.0684  0.0438
  534DPPI   PO4 8412   0.833  17.007  11.741  0.1436 -0.1675 -0.1180
  534DPPI   GL1 8413   0.910  17.033  11.366 -0.1759  0.1035 -0.2727
  534DPPI   GL2 8414   0.632  17.185  11.085  0.0591  0.2741 -0.2013
  534DPPI   C1A 8415   1.091  17.148  10.941 -0.2760  0.2798  0.1442
  534DPPI   C2A 8416   1.243  17.216  10.559 -0.1667  0.1149 -0.1631
  534DPPI   C3A 8417   1.153  17.156  10.121 -0.1373  0.0317 -0.0991
  534DPPI   C4A 8418   1.235  17.221   9.675  0.3020 -0.1678  0.0869
  534DPPI   C1B 8419   0.696  17.078  10.642  0.0748  0.0028  0.0037
  534DPPI   C2B 8420   0.675  17.030  10.211 -0.0274 -0.2858  0.0151
  534DPPI   C3B 8421   0.726  17.138   9.833 -0.1092  0.1641 -0.3757
  534DPPI   C4B 8422   0.834  17.105   9.361  0.2885  0.0628  0.0546
  535DPPI    C1 8423   9.955   2.179  11.360 -0.0141 -0.1293 -0.0165
  535DPPI    C2 8424  10.177   2.325  11.659 -0.0320 -0.0282 -0.0519
  535DPPI    C3 8425   9.793   2.233  11.722 -0.0656  0.0974 -0.0719
  535DPPI   PO4 8426  10.032   1.976  11.249 -0.4180 -0.1402  0.0985
  535DPPI   GL1 8427  10.218   1.727  11.036 -0.2229 -0.0393  0.1349
  535DPPI   GL2 8428   9.912   1.836  10.790  0.0049  0.0175 -0.2554
  535DPPI   C1A 8429  10.606   1.620  10.729  0.1221 -0.2616 -0.1268
  535DPPI   C2A 8430  10.552   1.580  10.292 -0.2277  0.1383  0.0127
  535DPPI   C3A 8431  10.473   1.552   9.913 -0.3426  0.1850  0.1749
  535DPPI   C4A 8432  10.474   1.542   9.472 -0.0314  0.0490  0.1556
  535DPPI   C1B 8433  10.070   1.496  10.572 -0.1412 -0.0126  0.0678
  535DPPI   C2B 8434  10.060   1.372  10.101  0.0730  0.1419 -0.1655
  535DPPI   C3B 8435  10.073   1.317   9.644  0.1551 -0.2516  0.0426
  535DPPI   C4B 8436   9.912   1.434   9.222 -0.1935  0.0506 -0.0823
  536DPPI    C1 8437   3.445  12.299  11.613  0.0352 -0.2626  0.0133
  536DPPI    C2 8438   3.737  12.327  11.885 -0.1174 -0.0488  0.1579
  536DPPI    C3 8439   3.809  12.155  11.532  0.2431  0.1885  0.1105
  536DPPI   PO4 8440   3.322  12.531  11.635  0.0011 -0.1874  0.4087
  536DPPI   GL1 8441   3.351  12.766  11.241  0.0640  0.0380  0.0880
  536DPPI   GL2 8442   3.494  12.450  11.132 -0.2945 -0.0540  0.0247
  536DPPI   C1A 8443   3.210  12.672  10.805  0.0452 -0.0427 -0.1967
  536DPPI   C2A 8444   3.275  12.686  10.319 -0.0110  0.1080 -0.1408
  536DPPI   C3A 8445   3.225  12.742   9.900  0.2168  0.0598 -0.3380
  536DPPI   C4A 8446   3.283  12.802   9.426  0.3427  0.0166 -0.1871
  536DPPI   C1B 8447   3.598  12.337  10.753 -0.1165 -0.2623 -0.1045
  536DPPI   C2B 8448   3.657  12.267  10.352  0.0331 -0.0146  0.0988
  536DPPI   C3B 8449   3.664  12.419   9.866  0.0675  0.3586 -0.4172
  536DPPI   C4B 8450   3.557  12.391   9.391 -0.1569 -0.2620  0.5117
  537DPPI    C1 8451  10.552   7.302  11.370  0.3615 -0.1517 -0.1608
  537DPPI    C2 8452  10.771   7.604  11.515 -0.0382  0.0988 -0.0597
  537DPPI    C3 8453  10.451   7.475  11.717 -0.1794 -0.0378 -0.3651
  537DPPI   PO4 8454  10.613   7.399  11.114 -0.1038  0.2436 -0.0308
  537DPPI   GL1 8455  10.449   7.357  10.744 -0.1496  0.0820 -0.0662
  537DPPI   GL2 8456  10.366   7.786  10.802  0.0060  0.0176 -0.2353
  537DPPI   C1A 8457  10.483   7.442  10.217  0.0567  0.1903 -0.1640
  537DPPI   C2A 8458  10.569   7.445   9.805  0.1735  0.0265  0.0329
  537DPPI   C3A 8459  10.680   7.478   9.367  0.0563 -0.1325  0.1817
  537DPPI   C4A 8460  10.795   7.336   8.988  0.2159 -0.2891 -0.0833
  537DPPI   C1B 8461  10.640   7.841  10.476  0.0290 -0.1285  0.1199
  537DPPI   C2B 8462  10.585   7.933  10.026 -0.0296  0.0856 -0.1095
  537DPPI   C3B 8463  10.699   7.959   9.625 -0.1878  0.2468  0.1793
  537DPPI   C4B 8464  10.880   7.903   9.176  0.0938  0.1304 -0.1673
  538DPPI    C1 8465   2.666  16.058  11.682  0.0489  0.1345 -0.1821
  538DPPI    C2 8466   2.992  16.245  11.819 -0.0501  0.1485  0.0379
  538DPPI    C3 8467   2.701  16.137  12.072 -0.0277 -0.2403 -0.0953
  538DPPI   PO4 8468   2.594  16.171  11.365  0.2170 -0.4453 -0.1853
  538DPPI   GL1 8469   2.457  16.538  11.026  0.0541  0.1278  0.0133
  538DPPI   GL2 8470   2.435  16.262  10.824 -0.1141  0.2707 -0.4188
  538DPPI   C1A 8471   2.480  16.755  10.683 -0.2873  0.0510 -0.3951
  538DPPI   C2A 8472   2.462  16.745  10.281  0.3529 -0.2103  0.0408
  538DPPI   C3A 8473   2.471  16.761   9.847  0.0392 -0.0981  0.3657
  538DPPI   C4A 8474   2.434  16.709   9.484  0.1395  0.0691  0.1029
  538DPPI   C1B 8475   2.368  16.260  10.358  0.1961 -0.1143 -0.2169
  538DPPI   C2B 8476   2.296  16.271   9.923 -0.0517  0.1699 -0.2069
  538DPPI   C3B 8477   2.341  16.247   9.509  0.0256 -0.0231  0.0512
  538DPPI   C4B 8478   2.382  16.315   9.072  0.0142 -0.0918 -0.1307
  539DPPI    C1 8479   8.187   7.419  11.590  0.0660  0.2661 -0.0100
  539DPPI    C2 8480   8.337   7.743  11.408 -0.2095  0.4198  0.0314
  539DPPI    C3 8481   8.189   7.772  11.779  0.0828  0.1695  0.1718
  539DPPI   PO4 8482   7.955   7.375  11.370  0.1296  0.1788  0.3477
  539DPPI   GL1 8483   7.883   7.114  10.951  0.4009 -0.0939  0.0241
  539DPPI   GL2 8484   8.103   7.116  10.666 -0.1542  0.0889  0.1205
  539DPPI   C1A 8485   7.669   7.249  10.458  0.1088 -0.1881 -0.2853
  539DPPI   C2A 8486   7.602   7.222  10.054  0.1503 -0.3636  0.3031
  539DPPI   C3A 8487   7.563   7.273   9.568 -0.1995  0.2254  0.2043
  539DPPI   C4A 8488   7.617   7.171   9.143 -0.3102 -0.4959 -0.1511
  539DPPI   C1B 8489   8.125   7.132  10.251 -0.0104 -0.0224 -0.1365
  539DPPI   C2B 8490   8.071   7.154   9.793  0.3153 -0.0984  0.1030
  539DPPI   C3B 8491   8.073   7.126   9.355  0.0778 -0.1355 -0.1929
  539DPPI   C4B 8492   8.156   7.232   8.949  0.2357 -0.2831 -0.1464
  540DPPI    C1 8493   1.956  15.094  11.691  0.1653  0.0801  0.0367
  540DPPI    C2 8494   1.887  14.935  12.052 -0.1231  0.2436  0.0565
  540DPPI    C3 8495   2.017  15.312  12.020 -0.1272  0.2393 -0.0113
  540DPPI   PO4 8496   1.712  15.013  11.553 -0.0355  0.1117 -0.1061
  540DPPI   GL1 8497   1.602  14.933  11.203  0.1071 -0.0209  0.0656
  540DPPI   GL2 8498   1.716  15.129  11.053 -0.2196  0.1181  0.1204
  540DPPI   C1A 8499   1.815  14.690  10.834  0.0279  0.0854  0.3503
  540DPPI   C2A 8500   1.613  14.471  10.547 -0.2174 -0.0744 -0.0923
  540DPPI   C3A 8501   1.611  14.553  10.124  0.1270 -0.2759  0.0403
  540DPPI   C4A 8502   1.685  14.581   9.698  0.1895  0.0242 -0.4065
  540DPPI   C1B 8503   1.737  15.073  10.540 -0.0977 -0.2895 -0.0085
  540DPPI   C2B 8504   1.741  15.092  10.064 -0.0033 -0.1407 -0.1759
  540DPPI   C3B 8505   1.713  15.052   9.699 -0.1273  0.0486  0.1967
  540DPPI   C4B 8506   1.783  15.006   9.347  0.1932  0.1380 -0.0460
  541DPPI    C1 8507   2.169  13.486  11.763 -0.0656  0.0162  0.2160
  541DPPI    C2 8508   1.794  13.373  11.843 -0.0981 -0.0252  0.0105
  541DPPI    C3 8509   2.099  13.128  11.928 -0.1382 -0.1026 -0.0671
  541DPPI   PO4 8510   2.153  13.571  11.466  0.1200 -0.1566 -0.3882
  541DPPI   GL1 8511   2.060  13.639  10.899  0.0490  0.0390  0.0359
  541DPPI   GL2 8512   1.972  13.310  10.878  0.1933 -0.0782 -0.2274
  541DPPI   C1A 8513   1.957  13.645  10.406  0.2354 -0.0103  0.0184
  541DPPI   C2A 8514   1.948  13.623   9.941  0.0594 -0.0947  0.0585
  541DPPI   C3A 8515   1.952  13.709   9.553 -0.0479 -0.2656 -0.1532
  541DPPI   C4A 8516   2.116  13.598   9.129 -0.1010  0.0645  0.0773
  541DPPI   C1B 8517   1.874  13.146  10.493  0.1995 -0.0145  0.1707
  541DPPI   C2B 8518   1.965  13.137  10.100 -0.0312 -0.1468 -0.0042
  541DPPI   C3B 8519   1.855  13.210   9.689 -0.1362 -0.1534  0.1668
  541DPPI   C4B 8520   2.107  13.173   9.377 -0.1398 -0.3177  0.1708
  542DPPI    C1 8521   9.595  16.338  11.663 -0.1184 -0.0836 -0.0366
  542DPPI    C2 8522   9.493  16.004  11.857 -0.0743 -0.1119 -0.0618
  542DPPI    C3 8523   9.721  16.278  12.038  0.0444 -0.1806 -0.1057
  542DPPI   PO4 8524   9.494  16.237  11.389  0.2926 -0.0381 -0.4860
  542DPPI   GL1 8525   9.580  16.299  10.923 -0.3465  0.0894 -0.2467
  542DPPI   GL2 8526   9.686  16.012  10.801 -0.2060  0.1545 -0.1141
  542DPPI   C1A 8527   9.502  16.400  10.466  0.1899 -0.2742 -0.1649
  542DPPI   C2A 8528   9.517  16.462  10.040 -0.0875 -0.2633  0.3520
  542DPPI   C3A 8529   9.595  16.589   9.611 -0.2216 -0.0043 -0.1110
  542DPPI   C4A 8530   9.448  16.620   9.150 -0.1412  0.4813  0.0632
  542DPPI   C1B 8531   9.770  15.956  10.389 -0.1385  0.2239 -0.3069
  542DPPI   C2B 8532   9.736  16.006  10.007  0.0044 -0.2894 -0.0284
  542DPPI   C3B 8533   9.839  15.947   9.621  0.2333 -0.1845 -0.0669
  542DPPI   C4B 8534   9.690  15.962   9.230 -0.3347 -0.2573  0.2616
  543DPPI    C1 8535  10.716  14.701  11.556 -0.0186  0.2783  0.1614
  543DPPI    C2 8536  10.957  14.916  11.320  0.0810  0.1155  0.1125
  543DPPI    C3 8537  10.916  15.014  11.705 -0.0907  0.3892  0.0285
  543DPPI   PO4 8538  10.786  14.435  11.455 -0.0532 -0.1192 -0.2590
  543DPPI   GL1 8539  11.045  14.450  11.212 -0.0831  0.2259  0.1919
  543DPPI   GL2 8540  11.348  14.689  11.200  0.0375 -0.1323  0.0495
  543DPPI   C1A 8541  11.172  14.404  10.704  0.1003  0.1382  0.2303
  543DPPI   C2A 8542  11.124  14.359  10.238 -0.1679 -0.0997 -0.2129
  543DPPI   C3A 8543  11.180  14.435   9.759  0.0272  0.0567 -0.3360
  543DPPI   C4A 8544  11.342  14.342   9.377  0.0418  0.1914  0.0673
  543DPPI   C1B 8545  11.177  14.843  10.895  0.0713 -0.3153 -0.3554
  543DPPI   C2B 8546  11.257  14.859  10.487 -0.3512 -0.0691  0.1384
  543DPPI   C3B 8547  11.201  14.857  10.023 -0.0842  0.1620 -0.0915
  543DPPI   C4B 8548  11.308  14.896   9.540 -0.2426  0.0498 -0.0765
  544DPPI    C1 8549  17.045  10.114  12.062 -0.3099 -0.0099 -0.1301
  544DPPI    C2 8550  17.049  10.472  12.240 -0.0054 -0.0536 -0.0419
  544DPPI    C3 8551  16.909  10.153  12.436 -0.0647 -0.0252 -0.0376
  544DPPI   PO4 8552  17.075  10.309  11.739 -0.1172 -0.1054  0.0072
  544DPPI   GL1 8553  17.002  10.413  11.263  0.1027 -0.2426  0.1067
  544DPPI   GL2 8554  17.171  10.141  11.265  0.5125  0.0030  0.0348
  544DPPI   C1A 8555  16.972  10.481  10.770  0.2173  0.1609  0.1424
  544DPPI   C2A 8556  16.935  10.466  10.386 -0.0997 -0.1551 -0.2012
  544DPPI   C3A 8557  16.883  10.453   9.910  0.0675  0.2719  0.0883
  544DPPI   C4A 8558  16.858  10.469   9.477 -0.3306  0.2470  0.1600
  544DPPI   C1B 8559  17.325  10.149  10.817 -0.0923 -0.0997  0.2154
  544DPPI   C2B 8560  17.332  10.185  10.425 -0.0830 -0.2646  0.1252
  544DPPI   C3B 8561  17.308  10.113  10.036 -0.0802 -0.1979  0.2133
  544DPPI   C4B 8562  17.427  10.005   9.602 -0.0178 -0.2250  0.1126
  545DPPI    C1 8563   0.601  14.334  11.570  0.0151 -0.1105  0.0653
  545DPPI    C2 8564   0.745  14.543  11.880 -0.1445 -0.2869  0.2617
  545DPPI    C3 8565   0.448  14.282  11.936 -0.1261 -0.3741 -0.0292
  545DPPI   PO4 8566   0.773  14.309  11.362 -0.0792  0.1408 -0.1373
  545DPPI   GL1 8567   0.873  14.013  11.074  0.1400 -0.0113 -0.0274
  545DPPI   GL2 8568   1.046  13.864  11.000  0.1101 -0.0202 -0.3697
  545DPPI   C1A 8569   0.696  14.091  10.713  0.1968 -0.2375 -0.0317
  545DPPI   C2A 8570   0.628  14.132  10.335 -0.1161  0.2237  0.0865
  545DPPI   C3A 8571   0.754  14.061  10.011 -0.0328  0.1934  0.1585
  545DPPI   C4A 8572   0.623  14.157   9.688 -0.0451  0.1262  0.1484
  545DPPI   C1B 8573   1.136  13.852  10.644 -0.1908  0.0698 -0.1316
  545DPPI   C2B 8574   1.126  13.800  10.239  0.3722  0.1984 -0.1319
  545DPPI   C3B 8575   1.082  13.858   9.725 -0.0519  0.0593  0.1368
  545DPPI   C4B 8576   1.127  13.766   9.302 -0.2814  0.1704 -0.0106
  546DPPI    C1 8577  17.230  12.059  12.076 -0.0298  0.0692 -0.0755
  546DPPI    C2 8578  16.850  12.092  12.195 -0.0408 -0.1098 -0.0592
  546DPPI    C3 8579  17.144  12.074  12.466 -0.0456 -0.2706 -0.0635
  546DPPI   PO4 8580  17.307  12.228  11.899  0.0873 -0.0148  0.0686
  546DPPI   GL1 8581  17.306  12.259  11.414  0.1397 -0.1768  0.0149
  546DPPI   GL2 8582  17.583  12.114  11.280 -0.2777 -0.2396  0.0171
  546DPPI   C1A 8583  17.214  12.397  10.888 -0.2059  0.0641 -0.0781
  546DPPI   C2A 8584  17.274  12.395  10.463 -0.0793 -0.1785  0.0659
  546DPPI   C3A 8585  17.268  12.406  10.044 -0.1046  0.2009 -0.2884
  546DPPI   C4A 8586  17.179  12.481   9.729  0.1083 -0.0660  0.3335
  546DPPI   C1B 8587  17.622  12.151  10.805 -0.3261  0.1681 -0.0478
  546DPPI   C2B 8588  17.675  12.070  10.375  0.0594  0.1183 -0.0730
  546DPPI   C3B 8589  17.632  12.066   9.925 -0.1659  0.0432 -0.1826
  546DPPI   C4B 8590  17.595  12.112   9.421 -0.1945  0.3576  0.0051
  547DPPI    C1 8591   6.007  13.432  11.786  0.1562  0.3252 -0.1447
  547DPPI    C2 8592   6.070  13.133  12.045 -0.0031  0.1846 -0.2659
  547DPPI    C3 8593   6.245  13.488  12.102 -0.0415  0.1574  0.0372
  547DPPI   PO4 8594   5.795  13.288  11.659  0.1174  0.0473  0.0631
  547DPPI   GL1 8595   5.759  13.074  11.253  0.0306  0.0881 -0.0882
  547DPPI   GL2 8596   5.377  13.171  11.139 -0.2078 -0.0092  0.2117
  547DPPI   C1A 8597   5.738  13.209  10.794  0.1193 -0.2683  0.0829
  547DPPI   C2A 8598   5.602  13.261  10.354  0.3069 -0.0982  0.2446
  547DPPI   C3A 8599   5.660  13.095   9.932  0.3553  0.0118 -0.2301
  547DPPI   C4A 8600   5.481  13.130   9.489 -0.0924 -0.2750 -0.2175
  547DPPI   C1B 8601   5.221  13.426  10.851  0.1492 -0.0048 -0.1388
  547DPPI   C2B 8602   5.207  13.531  10.459 -0.0677  0.0579 -0.2696
  547DPPI   C3B 8603   5.181  13.531  10.066 -0.2729  0.3183 -0.1219
  547DPPI   C4B 8604   5.128  13.463   9.609  0.0452 -0.1333  0.2202
  548DPPI    C1 8605   7.126   8.703  11.212  0.2015 -0.1734  0.0324
  548DPPI    C2 8606   7.058   8.833  11.584 -0.1817 -0.0391 -0.0794
  548DPPI    C3 8607   6.954   8.461  11.480 -0.0497 -0.0857 -0.0462
  548DPPI   PO4 8608   6.918   8.658  10.965  0.5036  0.0361 -0.1572
  548DPPI   GL1 8609   7.032   8.653  10.570  0.2572  0.2082  0.1212
  548DPPI   GL2 8610   6.971   8.334  10.583 -0.1754  0.1865  0.0320
  548DPPI   C1A 8611   7.050   8.610  10.093 -0.0443  0.2052  0.0595
  548DPPI   C2A 8612   7.032   8.608   9.561  0.1133  0.2890 -0.2593
  548DPPI   C3A 8613   7.234   8.963   9.283 -0.1144  0.1930  0.2077
  548DPPI   C4A 8614   7.396   8.897   8.788  0.2793  0.0274  0.1557
  548DPPI   C1B 8615   7.275   8.095  10.281  0.1246 -0.0448 -0.0562
  548DPPI   C2B 8616   7.168   8.185   9.851  0.0906 -0.0555  0.2258
  548DPPI   C3B 8617   7.153   8.193   9.365  0.0107  0.2718  0.1560
  548DPPI   C4B 8618   7.175   8.504   8.997  0.3558 -0.2100 -0.0137
  549DPPI    C1 8619   7.213   0.225  11.592  0.1715 -0.1540  0.0161
  549DPPI    C2 8620   6.898   0.185  11.836  0.1063 -0.0380 -0.0481
  549DPPI    C3 8621   7.177  -0.101  11.821  0.0716 -0.0809  0.1056
  549DPPI   PO4 8622   7.068   0.333  11.397  0.1292  0.2308  0.1908
  549DPPI   GL1 8623   7.050   0.371  10.960 -0.1069  0.1218 -0.3420
  549DPPI   GL2 8624   6.743   0.274  11.017  0.1925  0.2447  0.2517
  549DPPI   C1A 8625   7.100   0.373  10.533 -0.1828  0.3759 -0.1226
  549DPPI   C2A 8626   7.132   0.419  10.086  0.3676  0.1350 -0.0977
  549DPPI   C3A 8627   7.090   0.436   9.587  0.1114  0.0894 -0.0331
  549DPPI   C4A 8628   7.084   0.460   9.064 -0.0844  0.1830 -0.1507
  549DPPI   C1B 8629   6.546   0.371  10.666 -0.1346  0.1382 -0.1144
  549DPPI   C2B 8630   6.629   0.464  10.250 -0.1551  0.3453  0.0026
  549DPPI   C3B 8631   6.538   0.520   9.736  0.1806  0.4718 -0.0266
  549DPPI   C4B 8632   6.589   0.505   9.270  0.1720 -0.0372  0.1098
  550DPPI    C1 8633  15.260  13.473  11.552  0.0274 -0.0292 -0.0779
  550DPPI    C2 8634  14.863  13.429  11.541  0.0297 -0.0192 -0.2205
  550DPPI    C3 8635  15.086  13.180  11.760 -0.0806  0.1591  0.1011
  550DPPI   PO4 8636  15.339  13.619  11.431  0.0710  0.0158  0.0906
  550DPPI   GL1 8637  15.251  13.694  10.989 -0.1704  0.0823 -0.0095
  550DPPI   GL2 8638  15.075  13.380  11.032 -0.0856  0.0732  0.0977
  550DPPI   C1A 8639  15.231  13.859  10.565  0.0164 -0.2203 -0.2240
  550DPPI   C2A 8640  15.214  14.026  10.157  0.3465 -0.1023  0.1525
  550DPPI   C3A 8641  15.355  14.145   9.757  0.0838 -0.2146 -0.0227
  550DPPI   C4A 8642  15.437  14.003   9.340  0.2702 -0.1635 -0.0114
  550DPPI   C1B 8643  15.253  13.388  10.538  0.2734 -0.2390 -0.1241
  550DPPI   C2B 8644  15.159  13.533  10.124  0.1170  0.0120  0.0587
  550DPPI   C3B 8645  15.259  13.585   9.705 -0.0780  0.2879 -0.1472
  550DPPI   C4B 8646  15.265  13.505   9.251 -0.1408  0.2784  0.1381
  551DPPI    C1 8647   1.109  16.491  11.798  0.0255  0.1397 -0.0112
  551DPPI    C2 8648   0.836  16.612  12.063 -0.0183  0.2291 -0.0965
  551DPPI    C3 8649   1.205  16.765  12.073  0.0324  0.1009  0.0253
  551DPPI   PO4 8650   1.082  16.606  11.519 -0.1289  0.0226 -0.2181
  551DPPI   GL1 8651   1.190  16.592  11.145 -0.1331  0.0392 -0.3815
  551DPPI   GL2 8652   1.399  16.349  11.243  0.0737 -0.1613 -0.0611
  551DPPI   C1A 8653   1.135  16.696  10.672  0.1597 -0.6049  0.0413
  551DPPI   C2A 8654   1.173  16.687  10.214  0.1427 -0.0150 -0.1438
  551DPPI   C3A 8655   1.141  16.769   9.753 -0.0698 -0.3047  0.0384
  551DPPI   C4A 8656   1.145  16.665   9.360 -0.0637  0.0110  0.1414
  551DPPI   C1B 8657   1.481  16.347  10.784 -0.0115  0.2443 -0.1870
  551DPPI   C2B 8658   1.529  16.321  10.301  0.1675  0.1319  0.0056
  551DPPI   C3B 8659   1.529  16.397   9.853 -0.0071 -0.1405 -0.0927
  551DPPI   C4B 8660   1.511  16.371   9.499  0.0438 -0.3007 -0.1464
  552DPPI    C1 8661   0.330  14.778  11.697 -0.0489  0.0045 -0.0149
  552DPPI    C2 8662   0.011  14.891  11.911 -0.0909 -0.0795 -0.0327
  552DPPI    C3 8663   0.340  14.759  12.097  0.0123  0.2092 -0.0055
  552DPPI   PO4 8664   0.158  14.524  11.462 -0.2561 -0.3658 -0.2895
  552DPPI   GL1 8665   0.035  14.307  11.093 -0.0021  0.3141  0.1931
  552DPPI   GL2 8666   0.361  14.069  11.123 -0.1214  0.1118  0.0745
  552DPPI   C1A 8667  -0.189  14.278  10.755 -0.0282 -0.2891 -0.0132
  552DPPI   C2A 8668  -0.179  14.287  10.300 -0.0007  0.3596  0.3005
  552DPPI   C3A 8669  -0.141  14.277   9.930 -0.0018  0.3708  0.0259
  552DPPI   C4A 8670  -0.143  14.295   9.462  0.3047  0.0985 -0.0223
  552DPPI   C1B 8671   0.192  13.986  10.759  0.1475  0.1705 -0.2164
  552DPPI   C2B 8672   0.205  13.934  10.280 -0.4887  0.1397  0.2238
  552DPPI   C3B 8673   0.230  13.929   9.865  0.0444 -0.0063 -0.1189
  552DPPI   C4B 8674   0.215  13.945   9.443  0.1243  0.2627  0.5317
  553DPPI    C1 8675   4.319   6.202  10.828 -0.2288 -0.2436  0.2868
  553DPPI    C2 8676   4.312   5.810  10.906  0.1008 -0.3232 -0.0528
  553DPPI    C3 8677   4.662   6.001  10.876 -0.0460 -0.0801 -0.2594
  553DPPI   PO4 8678   4.135   6.296  10.954 -0.2108 -0.1940 -0.2277
  553DPPI   GL1 8679   3.873   6.393  10.585 -0.1754  0.1374 -0.1694
  553DPPI   GL2 8680   4.111   6.227  10.302  0.1118 -0.2092  0.2369
  553DPPI   C1A 8681   3.717   6.567  10.216 -0.0112 -0.0323 -0.0461
  553DPPI   C2A 8682   3.574   6.599   9.841 -0.3829  0.1088 -0.1389
  553DPPI   C3A 8683   3.558   6.583   9.360  0.0607  0.1410  0.0710
  553DPPI   C4A 8684   3.452   6.492   9.015 -0.0450 -0.0028  0.0840
  553DPPI   C1B 8685   4.047   6.318   9.894 -0.0878  0.1366 -0.1387
  553DPPI   C2B 8686   4.029   6.337   9.519  0.1096  0.0257 -0.0183
  553DPPI   C3B 8687   3.930   6.176   9.109  0.0428  0.1422  0.0756
  553DPPI   C4B 8688   4.018   6.395   8.678 -0.0691  0.0816 -0.0647
  554PYPI    C1 8689   0.666   8.211  11.645  0.1509 -0.0325  0.0908
  554PYPI    C2 8690   0.761   8.594  11.581 -0.1300  0.0727  0.2865
  554PYPI    C3 8691   0.571   8.488  11.917  0.0446 -0.2563  0.2857
  554PYPI   PO4 8692   0.740   8.125  11.423 -0.1628 -0.0955  0.0939
  554PYPI   GL1 8693   0.592   8.233  11.089  0.1899  0.0515 -0.1670
  554PYPI   GL2 8694   0.538   8.525  11.014 -0.1360 -0.1988 -0.1486
  554PYPI   C1A 8695   0.708   8.086  10.653 -0.0713 -0.2098 -0.2249
  554PYPI   C2A 8696   0.492   7.891  10.286  0.2708  0.0717  0.3601
  554PYPI   D3A 8697   0.525   7.925   9.862 -0.3219  0.0885  0.3958
  554PYPI   C4A 8698   0.500   7.860   9.403 -0.1906 -0.0806 -0.1493
  554PYPI   C1B 8699   0.576   8.568  10.620  0.2632  0.0339  0.1242
  554PYPI   C2B 8700   0.648   8.462  10.230  0.0250  0.1681 -0.0198
  554PYPI   C3B 8701   0.671   8.402   9.784  0.0446 -0.2023  0.2436
  554PYPI   C4B 8702   0.671   8.505   9.380  0.2266  0.0818  0.0193
  555PYPI    C1 8703  12.592  13.293  11.691 -0.0216  0.3336 -0.0682
  555PYPI    C2 8704  12.337  13.495  11.924 -0.0979 -0.0856  0.2231
  555PYPI    C3 8705  12.719  13.452  12.036  0.0177  0.2286 -0.0340
  555PYPI   PO4 8706  12.569  13.027  11.679  0.2140  0.1090  0.1412
  555PYPI   GL1 8707  12.650  12.956  11.302 -0.1129 -0.2040  0.2583
  555PYPI   GL2 8708  12.823  13.397  11.258 -0.1270  0.2140 -0.1509
  555PYPI   C1A 8709  12.730  12.978  10.955  0.3137  0.0162  0.3292
  555PYPI   C2A 8710  12.757  12.928  10.555  0.0936  0.1095  0.0317
  555PYPI   D3A 8711  12.837  13.079  10.128 -0.2141 -0.3402  0.0158
  555PYPI   C4A 8712  12.956  13.057   9.728 -0.1268  0.1664  0.3101
  555PYPI   C1B 8713  12.844  13.491  10.818  0.1123  0.3351  0.0153
  555PYPI   C2B 8714  12.961  13.605  10.391 -0.3474 -0.0070 -0.1168
  555PYPI   C3B 8715  12.906  13.634   9.948  0.0698  0.0878  0.0089
  555PYPI   C4B 8716  13.026  13.510   9.484 -0.0088 -0.3155  0.0082
  556PYPI    C1 8717   8.067   6.916  11.431  0.2025 -0.0649 -0.1905
  556PYPI    C2 8718   8.078   6.901  11.830  0.1618 -0.1313 -0.1917
  556PYPI    C3 8719   7.728   6.940  11.642  0.1762 -0.1501 -0.2224
  556PYPI   PO4 8720   8.136   6.725  11.263 -0.0529 -0.0074  0.2637
  556PYPI   GL1 8721   8.337   6.690  10.940  0.2991 -0.0446 -0.2433
  556PYPI   GL2 8722   8.572   6.914  10.731  0.0073 -0.2329  0.0794
  556PYPI   C1A 8723   8.289   6.662  10.422 -0.1108  0.1986  0.0570
  556PYPI   C2A 8724   8.325   6.620   9.988  0.1963  0.1542  0.1170
  556PYPI   D3A 8725   8.239   6.711   9.597  0.0454  0.0875  0.0060
  556PYPI   C4A 8726   8.361   6.715   9.156  0.1716  0.2786 -0.0184
  556PYPI   C1B 8727   8.609   7.050  10.301 -0.0389  0.0413 -0.3274
  556PYPI   C2B 8728   8.568   7.069   9.907 -0.2421  0.2297  0.3890
  556PYPI   C3B 8729   8.565   7.138   9.499  0.0503  0.0423 -0.1640
  556PYPI   C4B 8730   8.721   7.117   9.141 -0.0504  0.1281 -0.1094
  557PYPI    C1 8731   9.218   5.830  11.381 -0.0437  0.0385 -0.2507
  557PYPI    C2 8732   9.450   5.579  11.591  0.2015  0.2152 -0.3059
  557PYPI    C3 8733   9.261   5.880  11.776 -0.0019  0.0600 -0.2579
  557PYPI   PO4 8734   9.431   5.838  11.096 -0.0081 -0.0751 -0.4189
  557PYPI   GL1 8735   9.565   6.074  10.762  0.1453  0.0544  0.1175
  557PYPI   GL2 8736   9.770   6.388  10.553 -0.4840 -0.1271 -0.0973
  557PYPI   C1A 8737   9.526   6.050  10.292  0.1585  0.2121  0.0678
  557PYPI   C2A 8738   9.664   5.989   9.864  0.0144 -0.0008 -0.0267
  557PYPI   D3A 8739   9.680   6.117   9.445 -0.1498 -0.2192  0.3188
  557PYPI   C4A 8740  10.007   6.087   9.105 -0.2165  0.0854  0.1810
  557PYPI   C1B 8741   9.804   6.425  10.194  0.1610 -0.0201 -0.0096
  557PYPI   C2B 8742   9.898   6.496   9.689  0.0299 -0.0109 -0.0578
  557PYPI   C3B 8743  10.001   6.571   9.226 -0.1136 -0.0326  0.0976
  557PYPI   C4B 8744  10.171   6.704   8.949  0.0523 -0.2438  0.0746
  558PYPI    C1 8745  16.158   5.900  11.433 -0.0144 -0.0150 -0.1531
  558PYPI    C2 8746  16.272   5.993  11.804 -0.1276  0.2043 -0.1715
  558PYPI    C3 8747  16.021   5.689  11.743 -0.0948  0.1563 -0.0705
  558PYPI   PO4 8748  16.425   5.904  11.325 -0.0831  0.1865 -0.1835
  558PYPI   GL1 8749  16.757   5.853  11.025 -0.0739 -0.0951 -0.2994
  558PYPI   GL2 8750  16.975   5.590  11.014 -0.0655  0.0352 -0.0796
  558PYPI   C1A 8751  16.748   5.809  10.550 -0.0367  0.0248 -0.0438
  558PYPI   C2A 8752  16.809   5.929  10.122 -0.1320  0.0620  0.0370
  558PYPI   D3A 8753  16.626   5.975   9.720 -0.4494 -0.1866 -0.1672
  558PYPI   C4A 8754  16.608   6.115   9.195  0.1847 -0.0600  0.1264
  558PYPI   C1B 8755  17.154   5.497  10.651 -0.0268  0.1963  0.2538
  558PYPI   C2B 8756  17.112   5.588  10.239 -0.1227 -0.0767  0.1983
  558PYPI   C3B 8757  17.095   5.615   9.811 -0.2048 -0.3744 -0.1099
  558PYPI   C4B 8758  17.077   5.679   9.426  0.2190 -0.0142  0.1451
  559PYPI    C1 8759   7.250  14.843  11.381 -0.0866 -0.0410  0.0972
  559PYPI    C2 8760   7.211  14.469  11.517  0.0316 -0.0691  0.0552
  559PYPI    C3 8761   6.982  14.761  11.667  0.1484 -0.1018  0.3031
  559PYPI   PO4 8762   7.293  14.773  11.150  0.2628 -0.0358  0.0052
  559PYPI   GL1 8763   7.137  14.867  10.706  0.0769 -0.0899  0.0017
  559PYPI   GL2 8764   6.959  14.608  10.622  0.2708 -0.2421  0.0599
  559PYPI   C1A 8765   7.125  14.958  10.198 -0.0083 -0.1469 -0.4363
  559PYPI   C2A 8766   7.181  14.979   9.738 -0.0866  0.1151  0.0744
  559PYPI   D3A 8767   7.245  15.026   9.275  0.0648  0.0732  0.2227
  559PYPI   C4A 8768   7.239  14.863   8.866  0.1351 -0.0985  0.1422
  559PYPI   C1B 8769   6.911  14.534  10.159  0.1073  0.0092 -0.4784
  559PYPI   C2B 8770   6.885  14.550   9.731  0.2173 -0.1039  0.3037
  559PYPI   C3B 8771   6.886  14.628   9.305 -0.0713 -0.4043 -0.0997
  559PYPI   C4B 8772   6.771  14.634   8.912  0.1749  0.1551  0.0132
  560PYPI    C1 8773  11.094  13.098  11.671 -0.0458  0.2410 -0.0327
  560PYPI    C2 8774  11.298  12.788  11.820 -0.2774  0.0597 -0.0859
  560PYPI    C3 8775  11.109  13.040  12.067 -0.1835  0.0938 -0.0481
  560PYPI   PO4 8776  11.202  13.257  11.526 -0.1105  0.2962 -0.0849
  560PYPI   GL1 8777  11.207  13.240  11.122 -0.3301  0.1268  0.2360
  560PYPI   GL2 8778  11.029  13.050  11.020 -0.0118 -0.2292  0.1648
  560PYPI   C1A 8779  11.395  13.486  10.819  0.1008  0.0069  0.0478
  560PYPI   C2A 8780  11.487  13.570  10.434  0.1055 -0.0363 -0.0720
  560PYPI   D3A 8781  11.650  13.587  10.018 -0.2425 -0.2471 -0.1701
  560PYPI   C4A 8782  11.638  13.520   9.560  0.1393 -0.1618  0.0790
  560PYPI   C1B 8783  11.322  12.996  10.683 -0.4605  0.2329  0.0790
  560PYPI   C2B 8784  11.471  13.053  10.305 -0.0130  0.0422  0.0083
  560PYPI   C3B 8785  11.518  13.077   9.877  0.1549 -0.0178 -0.0326
  560PYPI   C4B 8786  11.555  13.061   9.463 -0.0014 -0.0990 -0.0086
  561PYPI    C1 8787  13.915   6.123  11.817 -0.1920  0.1679 -0.0725
  561PYPI    C2 8788  13.887   5.840  12.098  0.1066  0.0314 -0.1753
  561PYPI    C3 8789  13.556   5.986  11.928 -0.0563 -0.1737 -0.0405
  561PYPI   PO4 8790  14.012   5.989  11.571  0.0852  0.3581 -0.1028
  561PYPI   GL1 8791  13.875   6.097  11.192 -0.3411  0.0556  0.0155
  561PYPI   GL2 8792  13.860   5.805  11.018 -0.2817 -0.2970 -0.1068
  561PYPI   C1A 8793  14.018   6.233  10.742 -0.0404  0.4450  0.1265
  561PYPI   C2A 8794  14.056   6.334  10.355 -0.2771  0.3564  0.2615
  561PYPI   D3A 8795  14.055   6.256   9.938 -0.1541  0.3114  0.3438
  561PYPI   C4A 8796  13.993   6.331   9.544 -0.1951 -0.1164  0.0258
  561PYPI   C1B 8797  13.942   5.764  10.579 -0.0572 -0.0287 -0.2340
  561PYPI   C2B 8798  14.095   5.781  10.151  0.1713 -0.1277 -0.0340
  561PYPI   C3B 8799  13.914   5.778   9.703 -0.1424 -0.1705 -0.0698
  561PYPI   C4B 8800  13.883   5.868   9.317 -0.1896  0.0851 -0.0412
  562PYPI    C1 8801   2.825   1.520  11.889  0.1547 -0.3365 -0.1365
  562PYPI    C2 8802   2.491   1.312  11.961  0.0340 -0.1619 -0.1865
  562PYPI    C3 8803   2.696   1.473  12.265 -0.0929 -0.0158 -0.1767
  562PYPI   PO4 8804   2.913   1.473  11.691 -0.2841 -0.0684 -0.0886
  562PYPI   GL1 8805   2.867   1.455  11.219 -0.0060  0.0921  0.1917
  562PYPI   GL2 8806   2.720   1.582  11.198  0.1357 -0.0552  0.0688
  562PYPI   C1A 8807   2.763   1.465  10.701 -0.2677  0.2552  0.2440
  562PYPI   C2A 8808   2.817   1.446  10.321  0.2744 -0.2990  0.2430
  562PYPI   D3A 8809   2.785   1.451   9.836  0.0252  0.2700 -0.0832
  562PYPI   C4A 8810   2.816   1.461   9.426  0.0515  0.0167 -0.0724
  562PYPI   C1B 8811   2.483   1.784  10.878 -0.1849  0.3064  0.2787
  562PYPI   C2B 8812   2.379   1.832  10.469  0.0170 -0.2865  0.3257
  562PYPI   C3B 8813   2.385   1.745   9.982 -0.2479 -0.3791  0.0537
  562PYPI   C4B 8814   2.270   1.720   9.537 -0.1658  0.1490 -0.2498
  563PYPI    C1 8815  14.988  16.624  11.702  0.0501  0.1364  0.0762
  563PYPI    C2 8816  14.716  16.843  11.899  0.0392  0.1585  0.0364
  563PYPI    C3 8817  14.817  16.480  12.034 -0.0351  0.1362  0.0325
  563PYPI   PO4 8818  14.848  16.625  11.467 -0.0143 -0.0374 -0.1153
  563PYPI   GL1 8819  14.782  16.734  11.115  0.1939  0.1099  0.0329
  563PYPI   GL2 8820  14.491  16.703  11.039  0.0680  0.1809  0.0106
  563PYPI   C1A 8821  14.810  16.757  10.694 -0.0157  0.4007 -0.0419
  563PYPI   C2A 8822  14.783  16.717  10.313 -0.1188  0.0480 -0.0537
  563PYPI   D3A 8823  14.806  16.745   9.797  0.2914  0.0227  0.1160
  563PYPI   C4A 8824  15.144  16.417   9.558 -0.0958 -0.3887 -0.0642
  563PYPI   C1B 8825  14.264  16.560  10.612 -0.2834  0.1915  0.1146
  563PYPI   C2B 8826  14.236  16.543  10.185 -0.1811  0.0022 -0.0210
  563PYPI   C3B 8827  14.275  16.474   9.768  0.0077 -0.0715  0.0496
  563PYPI   C4B 8828  14.240  16.468   9.319  0.2806 -0.0341  0.1791
  564PYPI    C1 8829  10.765   4.337  11.243 -0.0158  0.5343  0.0429
  564PYPI    C2 8830  11.053   4.459  11.493  0.4798 -0.0339 -0.2245
  564PYPI    C3 8831  10.954   4.072  11.476 -0.3441  0.1527 -0.1133
  564PYPI   PO4 8832  10.805   4.383  10.941  0.0434  0.0134  0.2894
  564PYPI   GL1 8833  10.957   4.200  10.613  0.0024 -0.1421  0.1169
  564PYPI   GL2 8834  11.251   3.970  10.584  0.0808 -0.1828  0.0427
  564PYPI   C1A 8835  10.893   4.155  10.155  0.0631 -0.0110 -0.1337
  564PYPI   C2A 8836  11.038   4.113   9.679  0.1709  0.0773 -0.0617
  564PYPI   D3A 8837  11.129   4.076   9.292 -0.1702 -0.0596 -0.2413
  564PYPI   C4A 8838  11.311   3.685   9.122 -0.1315 -0.1624  0.1822
  564PYPI   C1B 8839  11.330   4.276  10.338 -0.0033  0.1197 -0.1074
  564PYPI   C2B 8840  11.400   4.365   9.909 -0.0854  0.0640  0.0566
  564PYPI   C3B 8841  11.444   4.422   9.448  0.0444  0.1499  0.0302
  564PYPI   C4B 8842  11.421   4.322   9.002 -0.2465  0.2822  0.1728
  565PYPI    C1 8843   0.339   3.662  11.731  0.1714  0.1855 -0.2079
  565PYPI    C2 8844   0.126   3.921  11.949 -0.0694 -0.0218 -0.1924
  565PYPI    C3 8845   0.500   3.828  12.057 -0.1740 -0.0973  0.1170
  565PYPI   PO4 8846   0.317   3.744  11.444 -0.0220 -0.0153 -0.1006
  565PYPI   GL1 8847   0.354   3.548  11.156  0.0056 -0.1224 -0.1075
  565PYPI   GL2 8848   0.503   3.383  10.955  0.1840  0.1977 -0.2514
  565PYPI   C1A 8849   0.063   3.747  10.868  0.1646  0.2166  0.5483
  565PYPI   C2A 8850  -0.119   3.662  10.473  0.0241 -0.1654  0.0872
  565PYPI   D3A 8851  -0.102   3.767   9.957 -0.1566 -0.0282 -0.1900
  565PYPI   C4A 8852  -0.135   3.804   9.587  0.1345 -0.0306 -0.0213
  565PYPI   C1B 8853   0.361   3.424  10.483  0.0276  0.2067  0.0294
  565PYPI   C2B 8854   0.330   3.443  10.055  0.1199  0.0026  0.1519
  565PYPI   C3B 8855   0.301   3.475   9.595 -0.0723  0.1213 -0.0838
  565PYPI   C4B 8856   0.268   3.588   9.090 -0.0725 -0.1349 -0.2193
  566PYPI    C1 8857   2.287   2.332  11.830 -0.0745 -0.4197 -0.2458
  566PYPI    C2 8858   1.957   2.349  12.055 -0.0127 -0.0577 -0.1767
  566PYPI    C3 8859   2.296   2.202  12.208  0.0255  0.1743 -0.0343
  566PYPI   PO4 8860   2.130   2.273  11.556 -0.5331 -0.0647  0.0139
  566PYPI   GL1 8861   2.193   2.533  11.212 -0.1626  0.1091  0.0399
  566PYPI   GL2 8862   2.211   2.151  10.981  0.1045  0.0022  0.0274
  566PYPI   C1A 8863   2.148   2.655  10.803  0.0629 -0.1621 -0.1754
  566PYPI   C2A 8864   1.987   2.644  10.358 -0.0732  0.1736 -0.1033
  566PYPI   D3A 8865   1.965   2.567   9.890  0.1798  0.0170 -0.2311
  566PYPI   C4A 8866   2.000   2.668   9.479  0.2261 -0.0109 -0.0621
  566PYPI   C1B 8867   1.991   2.152  10.585  0.1629 -0.2882 -0.1297
  566PYPI   C2B 8868   1.874   2.186  10.147 -0.0583  0.1092  0.0898
  566PYPI   C3B 8869   2.012   2.044   9.816  0.1516 -0.0935  0.1194
  566PYPI   C4B 8870   1.859   2.138   9.319  0.0424  0.0431  0.1576
  567PYPI    C1 8871   9.529  12.093  11.686  0.0173  0.0862 -0.1892
  567PYPI    C2 8872   9.487  11.700  11.749 -0.0335  0.1283  0.0480
  567PYPI    C3 8873   9.696  11.923  12.007 -0.1952  0.2961  0.0363
  567PYPI   PO4 8874   9.556  12.049  11.354  0.1847 -0.0164 -0.3170
  567PYPI   GL1 8875   9.754  12.089  11.063 -0.1556  0.1454 -0.0623
  567PYPI   GL2 8876   9.755  12.380  10.983 -0.0253  0.1358  0.0149
  567PYPI   C1A 8877   9.618  12.115  10.584 -0.2970 -0.1059  0.0550
  567PYPI   C2A 8878   9.648  12.097  10.120  0.0912  0.0555  0.0974
  567PYPI   D3A 8879   9.992  12.111   9.748  0.0512  0.1603  0.1498
  567PYPI   C4A 8880  10.153  12.192   9.302  0.2509  0.0426  0.0935
  567PYPI   C1B 8881   9.916  12.558  10.524 -0.0494 -0.2046  0.0097
  567PYPI   C2B 8882   9.972  12.550  10.079  0.4020 -0.2389  0.1418
  567PYPI   C3B 8883  10.061  12.612   9.610  0.1239 -0.0009  0.1218
  567PYPI   C4B 8884  10.199  13.073   9.501  0.0346 -0.0346  0.1682
  568PYPI    C1 8885  12.832  15.753  11.574  0.0792  0.2022  0.2148
  568PYPI    C2 8886  13.102  15.781  11.868  0.0403 -0.0911  0.2816
  568PYPI    C3 8887  12.712  15.801  11.953  0.0316 -0.0542  0.2340
  568PYPI   PO4 8888  12.926  15.676  11.378  0.0247 -0.1983 -0.0097
  568PYPI   GL1 8889  12.701  15.630  11.022 -0.1439 -0.1553 -0.3079
  568PYPI   GL2 8890  12.817  15.446  10.949 -0.0751 -0.0401 -0.1475
  568PYPI   C1A 8891  12.678  15.932  10.670  0.0138  0.2468  0.0014
  568PYPI   C2A 8892  12.612  15.903  10.236  0.1688 -0.0725  0.1691
  568PYPI   D3A 8893  12.810  15.957   9.883 -0.3082  0.0164 -0.2189
  568PYPI   C4A 8894  12.849  15.987   9.433 -0.2152 -0.0500  0.0706
  568PYPI   C1B 8895  12.790  15.412  10.497  0.1253 -0.1921  0.3506
  568PYPI   C2B 8896  12.666  15.412  10.092  0.2192 -0.1448  0.0336
  568PYPI   C3B 8897  12.778  15.477   9.559 -0.1014  0.0353  0.2888
  568PYPI   C4B 8898  12.697  15.282   9.195 -0.0440  0.1297  0.0528
  569PYPI    C1 8899   4.774   3.864  11.394  0.1092  0.1383  0.0569
  569PYPI    C2 8900   4.753   3.701  11.759 -0.2174 -0.0797 -0.0547
  569PYPI    C3 8901   5.108   3.801  11.604 -0.0403 -0.3655  0.1568
  569PYPI   PO4 8902   4.599   3.673  11.161  0.3616 -0.0038  0.2398
  569PYPI   GL1 8903   4.297   3.584  10.946  0.0503 -0.0602 -0.2559
  569PYPI   GL2 8904   3.957   3.344  10.881  0.1445 -0.2309 -0.0660
  569PYPI   C1A 8905   4.357   3.360  10.608  0.1149  0.2575  0.0713
  569PYPI   C2A 8906   4.590   3.299  10.246 -0.2723 -0.0796 -0.0006
  569PYPI   D3A 8907   4.670   3.236   9.843 -0.0955 -0.0518 -0.0944
  569PYPI   C4A 8908   4.815   3.464   9.485  0.2036  0.0065 -0.1335
  569PYPI   C1B 8909   3.982   3.373  10.274  0.1128 -0.2187 -0.1627
  569PYPI   C2B 8910   4.136   3.361   9.802 -0.1804  0.0318 -0.1294
  569PYPI   C3B 8911   4.324   3.415   9.489 -0.1370 -0.0481  0.2224
  569PYPI   C4B 8912   4.358   3.389   8.985 -0.0344  0.4507  0.0390
  570PYPI    C1 8913   1.896   4.301  11.450  0.0716 -0.0411 -0.1562
  570PYPI    C2 8914   1.740   4.204  11.806  0.1689  0.1191 -0.0684
  570PYPI    C3 8915   1.717   3.947  11.500 -0.0689  0.0510  0.0046
  570PYPI   PO4 8916   2.060   4.402  11.476  0.2602  0.0952  0.0682
  570PYPI   GL1 8917   2.015   4.567  11.032  0.0346  0.0231  0.1608
  570PYPI   GL2 8918   2.303   4.740  11.164 -0.3792  0.2035  0.0450
  570PYPI   C1A 8919   2.011   4.442  10.598 -0.0985  0.0483  0.2656
  570PYPI   C2A 8920   2.063   4.411  10.233  0.0969  0.2615 -0.3826
  570PYPI   D3A 8921   1.910   4.536   9.874 -0.3359  0.2432 -0.2681
  570PYPI   C4A 8922   1.969   4.392   9.494 -0.0670 -0.4035  0.0927
  570PYPI   C1B 8923   2.497   4.630  10.775  0.2480  0.3403 -0.1711
  570PYPI   C2B 8924   2.464   4.591  10.417 -0.0049 -0.3561  0.2625
  570PYPI   C3B 8925   2.435   4.688   9.987  0.2079  0.0800 -0.0249
  570PYPI   C4B 8926   2.451   4.553   9.608 -0.0803  0.1825  0.2381
  571PYPI    C1 8927  13.469  17.156  11.841  0.0555 -0.1365  0.1706
  571PYPI    C2 8928  13.764  17.340  12.037  0.0615 -0.1333  0.1585
  571PYPI    C3 8929  13.451  17.194  12.239  0.0346 -0.0690  0.1632
  571PYPI   PO4 8930  13.565  17.065  11.602 -0.3324 -0.4577  0.0587
  571PYPI   GL1 8931  13.510  17.148  11.185  0.1463  0.0898 -0.2692
  571PYPI   GL2 8932  13.766  17.334  11.156  0.2434 -0.0040 -0.0898
  571PYPI   C1A 8933  13.477  17.230  10.749  0.3715 -0.2333 -0.0732
  571PYPI   C2A 8934  13.462  17.144  10.299  0.0727 -0.3727  0.1219
  571PYPI   D3A 8935  13.492  17.206   9.820 -0.1264 -0.2412 -0.0607
  571PYPI   C4A 8936  13.450  17.166   9.392 -0.3073  0.0919  0.1732
  571PYPI   C1B 8937  13.893  17.435  10.783  0.1367 -0.0463 -0.1278
  571PYPI   C2B 8938  13.904  17.327  10.398  0.2971  0.3604 -0.2205
  571PYPI   C3B 8939  13.965  17.347   9.965 -0.1284  0.1121  0.1792
  571PYPI   C4B 8940  14.006  17.309   9.529  0.2386  0.0124  0.1281
  572PYPI    C1 8941  16.153   6.389  11.578 -0.0423 -0.1452 -0.0691
  572PYPI    C2 8942  16.376   6.474  11.898 -0.0673  0.0342 -0.0984
  572PYPI    C3 8943  15.978   6.460  11.931 -0.0663 -0.0129 -0.1073
  572PYPI   PO4 8944  16.281   6.399  11.404 -0.2494  0.0508  0.1786
  572PYPI   GL1 8945  16.530   6.339  11.097 -0.1670 -0.0605 -0.0873
  572PYPI   GL2 8946  16.283   6.147  10.956  0.2927 -0.0185 -0.0187
  572PYPI   C1A 8947  16.784   6.264  10.768  0.1534 -0.3605 -0.0997
  572PYPI   C2A 8948  16.860   6.375  10.317 -0.2453 -0.0878 -0.3527
  572PYPI   D3A 8949  16.844   6.404   9.935 -0.1768  0.1420  0.3469
  572PYPI   C4A 8950  16.689   6.516   9.548  0.1044  0.2442 -0.2732
  572PYPI   C1B 8951  16.316   6.228  10.555  0.3113 -0.1108 -0.0495
  572PYPI   C2B 8952  16.348   6.222  10.102  0.1220 -0.4362  0.1533
  572PYPI   C3B 8953  16.246   6.358   9.723  0.3923  0.0234 -0.0546
  572PYPI   C4B 8954  16.224   6.397   9.311 -0.0788 -0.4928  0.0443
  573PYPI    C1 8955   0.647   4.924  11.894  0.2807  0.1739 -0.1061
  573PYPI    C2 8956   0.870   4.877  12.222  0.2725 -0.5129 -0.1849
  573PYPI    C3 8957   0.471   4.875  12.250  0.2706 -0.2212 -0.1612
  573PYPI   PO4 8958   0.719   4.768  11.691  0.1762 -0.2241  0.0625
  573PYPI   GL1 8959   0.629   4.810  11.246  0.0033 -0.2320  0.1472
  573PYPI   GL2 8960   0.363   4.788  11.279  0.0501  0.2313 -0.0899
  573PYPI   C1A 8961   0.730   4.960  10.840  0.0365 -0.2174  0.0366
  573PYPI   C2A 8962   0.563   4.910  10.496 -0.3021 -0.1051 -0.1286
  573PYPI   D3A 8963   0.509   4.983  10.073  0.1335  0.0345 -0.0210
  573PYPI   C4A 8964   0.684   5.099   9.796  0.0781 -0.1261  0.1444
  573PYPI   C1B 8965   0.186   4.668  10.927 -0.0947 -0.5586  0.0004
  573PYPI   C2B 8966   0.089   4.732  10.530 -0.2114 -0.2945  0.1078
  573PYPI   C3B 8967   0.060   4.810  10.055 -0.0213  0.1072  0.0504
  573PYPI   C4B 8968  -0.003   4.843   9.603  0.1913 -0.1040 -0.0413
  574ERGO   ROH 8969  15.490  12.547  11.293 -0.0610 -0.1112  0.0056
  574ERGO    R1 8970  15.405  12.589  11.027 -0.0005  0.0058  0.0046
  574ERGO    R2 8971  15.426  12.834  10.901  0.0847  0.0449  0.0973
  574ERGO    R3 8972  15.560  12.690  10.713  0.0829  0.0797  0.0684
  574ERGO    R4 8973  15.416  12.894  10.560  0.0425  0.0822  0.1047
  574ERGO    R5 8974  15.410  12.679  10.528  0.0636  0.0832  0.0823
  574ERGO    C1 8975  15.536  12.793  10.186  0.0161  0.1366  0.0819
  574ERGO    C2 8976  15.533  12.702   9.871 -0.1389 -0.1286  0.0835
  575ERGO   ROH 8977   5.546  12.650  11.271  0.0131 -0.0813  0.0504
  575ERGO    R1 8978   5.537  12.737  11.001 -0.0010 -0.0280  0.0666
  575ERGO    R2 8979   5.754  12.717  10.831 -0.0018  0.0193  0.0505
  575ERGO    R3 8980   5.577  12.585  10.673 -0.0008  0.0377  0.0381
  575ERGO    R4 8981   5.729  12.755  10.489 -0.1074  0.1565  0.0735
  575ERGO    R5 8982   5.512  12.746  10.508 -0.0930  0.0833  0.1252
  575ERGO    C1 8983   5.548  12.652  10.140 -0.1679  0.2538  0.0752
  575ERGO    C2 8984   5.463  12.689   9.792  0.3253  0.1126  0.1462
  576ERGO   ROH 8985   1.144   4.225  10.957 -0.0674  0.1290  0.1208
  576ERGO    R1 8986   1.129   4.095  10.706  0.1907  0.1602  0.0867
  576ERGO    R2 8987   0.902   4.099  10.549  0.1672 -0.2619  0.0970
  576ERGO    R3 8988   1.073   4.193  10.360 -0.0220  0.1426  0.1147
  576ERGO    R4 8989   0.818   4.158  10.219  0.0400 -0.3704  0.1091
  576ERGO    R5 8990   1.011   4.075  10.160  0.2245  0.0458  0.0913
  576ERGO    C1 8991   0.930   4.280   9.849 -0.2115 -0.0539  0.1329
  576ERGO    C2 8992   0.761   4.314   9.540  0.0497  0.0699  0.1633
  577ERGO   ROH 8993   4.803   9.781  11.102 -0.0320 -0.1476  0.0859
  577ERGO    R1 8994   4.674   9.729  10.856 -0.1268 -0.0107  0.1063
  577ERGO    R2 8995   4.602   9.929  10.679  0.1802  0.0566  0.0625
  577ERGO    R3 8996   4.746   9.781  10.503 -0.0606 -0.2169  0.0861
  577ERGO    R4 8997   4.534   9.905  10.341  0.0713  0.0414  0.0843
  577ERGO    R5 8998   4.582   9.692  10.352 -0.2295 -0.0351  0.1500
  577ERGO    C1 8999   4.630   9.752   9.978 -0.2182 -0.2241  0.1190
  577ERGO    C2 9000   4.644   9.751   9.681  0.0641  0.1397  0.0571
  578ERGO   ROH 9001  10.625   5.737  10.618 -0.0374 -0.0598  0.0682
  578ERGO    R1 9002  10.535   5.839  10.370  0.0350  0.1384  0.1207
  578ERGO    R2 9003  10.653   6.057  10.246  0.3254  0.0017  0.1418
  578ERGO    R3 9004  10.673   5.885  10.037  0.0072  0.0136  0.0915
  578ERGO    R4 9005  10.707   6.149   9.918  0.1983  0.0000  0.1194
  578ERGO    R5 9006  10.565   5.997   9.856 -0.0024  0.1559  0.1844
  578ERGO    C1 9007  10.758   6.041   9.530 -0.1745  0.0103  0.0593
  578ERGO    C2 9008  10.841   6.059   9.137  0.0111 -0.0054 -0.1504
  579ERGO   ROH 9009  14.791   6.661  11.198  0.1705 -0.0080 -0.0364
  579ERGO    R1 9010  14.926   6.720  10.956  0.1500 -0.0413 -0.0554
  579ERGO    R2 9011  15.006   6.523  10.778 -0.0859 -0.0481 -0.1527
  579ERGO    R3 9012  14.864   6.672  10.601 -0.0032  0.1494 -0.0571
  579ERGO    R4 9013  15.085   6.561  10.444 -0.1947 -0.0782 -0.1827
  579ERGO    R5 9014  15.030   6.771  10.460  0.0496 -0.0124 -0.1147
  579ERGO    C1 9015  14.998   6.722  10.083 -0.1806  0.0897 -0.1103
  579ERGO    C2 9016  14.934   6.727   9.801  0.1534 -0.2111 -0.2070
  580ERGO   ROH 9017  15.933  10.651   6.885 -0.1804 -0.1864 -0.1163
  580ERGO    R1 9018  16.044  10.489   7.089 -0.0737 -0.0402 -0.0569
  580ERGO    R2 9019  16.229  10.585   7.271 -0.1937  0.1683 -0.0419
  580ERGO    R3 9020  16.050  10.489   7.452 -0.1445  0.0498 -0.0558
  580ERGO    R4 9021  16.286  10.558   7.611 -0.1912  0.1753 -0.0418
  580ERGO    R5 9022  16.183  10.367   7.609 -0.0789  0.1155 -0.0604
  580ERGO    C1 9023  16.152  10.453   7.979 -0.1431  0.0680 -0.0548
  580ERGO    C2 9024  16.338  10.491   8.265 -0.1055 -0.2170  0.2449
  581ERGO   ROH 9025   8.886   3.287  10.661 -0.0007 -0.0407 -0.1110
  581ERGO    R1 9026   8.788   3.246  10.399  0.0093 -0.1179 -0.1040
  581ERGO    R2 9027   8.611   3.421  10.276 -0.1155 -0.2349 -0.1051
  581ERGO    R3 9028   8.800   3.423  10.081 -0.1236 -0.1225 -0.1108
  581ERGO    R4 9029   8.549   3.480   9.942 -0.0981  0.1036 -0.0507
  581ERGO    R5 9030   8.692   3.324   9.892 -0.1627  0.0984 -0.2027
  581ERGO    C1 9031   8.691   3.517   9.564 -0.0956  0.4063 -0.0243
  581ERGO    C2 9032   8.774   3.574   9.238 -0.0439 -0.0445 -0.1218
  582ERGO   ROH 9033   9.119   0.338  10.881  0.1187  0.0711 -0.2574
  582ERGO    R1 9034   9.243   0.324  10.627  0.0781  0.2523 -0.2872
  582ERGO    R2 9035   9.190   0.122  10.446  0.3554  0.1540 -0.2524
  582ERGO    R3 9036   9.136   0.329  10.279 -0.0186  0.0554 -0.2641
  582ERGO    R4 9037   9.199   0.103  10.101  0.3725  0.1319 -0.2517
  582ERGO    R5 9038   9.292   0.301  10.098  0.0322  0.3068 -0.2703
  582ERGO    C1 9039   9.153   0.287   9.743  0.0313  0.0265 -0.2622
  582ERGO    C2 9040   9.169   0.248   9.475 -0.0711  0.4430  0.0104
  583ERGO   ROH 9041  10.579  10.061  10.944 -0.1877 -0.1458  0.1825
  583ERGO    R1 9042  10.461  10.067  10.687 -0.1544  0.0148  0.1699
  583ERGO    R2 9043  10.395  10.302  10.558  0.1398  0.1046  0.1804
  583ERGO    R3 9044  10.548  10.198  10.359  0.0377 -0.0622  0.1889
  583ERGO    R4 9045  10.349  10.362  10.220  0.1293  0.0363  0.1696
  583ERGO    R5 9046  10.394  10.152  10.182 -0.0220 -0.0077  0.2260
  583ERGO    C1 9047  10.466  10.298   9.837  0.0275 -0.1602  0.1714
  583ERGO    C2 9048  10.557  10.344   9.485  0.2406  0.0360  0.1586
  584ERGO   ROH 9049   5.823   3.161  10.849  0.0293 -0.0668 -0.1867
  584ERGO    R1 9050   5.738   3.113  10.583 -0.2058  0.1712 -0.1585
  584ERGO    R2 9051   5.618   3.307  10.427  0.1615  0.4802 -0.0656
  584ERGO    R3 9052   5.816   3.243  10.253 -0.0546  0.0559 -0.1702
  584ERGO    R4 9053   5.608   3.366  10.087  0.1993  0.7426 -0.0243
  584ERGO    R5 9054   5.701   3.171  10.056 -0.3284  0.4937 -0.1863
  584ERGO    C1 9055   5.787   3.340   9.725  0.0184  0.4972 -0.0984
  584ERGO    C2 9056   5.811   3.324   9.474  0.0200  0.1584 -0.0374
  585ERGO   ROH 9057  11.618   2.951  10.448 -0.0903  0.0280  0.2239
  585ERGO    R1 9058  11.551   2.904  10.177  0.0211 -0.0435  0.2087
  585ERGO    R2 9059  11.492   3.109  10.001 -0.0010 -0.0990  0.1583
  585ERGO    R3 9060  11.688   2.994   9.852  0.0943 -0.0431  0.2379
  585ERGO    R4 9061  11.503   3.109   9.655  0.1549 -0.0512  0.1622
  585ERGO    R5 9062  11.573   2.903   9.663  0.1944 -0.0437  0.1715
  585ERGO    C1 9063  11.694   3.001   9.314  0.3353  0.0290  0.2391
  585ERGO    C2 9064  11.586   3.081   9.017  0.2476  0.0020 -0.0299
  586ERGO   ROH 9065  11.583  16.060  10.815  0.0255 -0.2425  0.0405
  586ERGO    R1 9066  11.502  16.143  10.557  0.0494 -0.1192  0.0718
  586ERGO    R2 9067  11.658  16.307  10.398  0.0449 -0.0046  0.1803
  586ERGO    R3 9068  11.626  16.107  10.217  0.1087  0.0838  0.0708
  586ERGO    R4 9069  11.752  16.324  10.066 -0.1147  0.2669  0.1470
  586ERGO    R5 9070  11.568  16.219  10.014 -0.0621  0.1678  0.1654
  586ERGO    C1 9071  11.776  16.147   9.702 -0.1478  0.5079  0.0248
  586ERGO    C2 9072  11.988  16.177   9.474 -0.0823 -0.1114 -0.0603
  587ERGO   ROH 9073   7.020   0.873  10.787 -0.1302  0.4287  0.0064
  587ERGO    R1 9074   6.865   0.825  10.555 -0.1863  0.5052  0.0276
  587ERGO    R2 9075   6.794   1.026  10.379  0.1559  0.4954 -0.1296
  587ERGO    R3 9076   6.909   0.862  10.196 -0.0865  0.1684  0.0018
  587ERGO    R4 9077   6.795   1.080  10.038  0.2899  0.2494 -0.1703
  587ERGO    R5 9078   6.760   0.867  10.009 -0.0568  0.2787 -0.0196
  587ERGO    C1 9079   6.903   0.957   9.667  0.1403 -0.2009 -0.0707
  587ERGO    C2 9080   6.912   0.912   9.363 -0.0500 -0.0610 -0.1248
  588ERGO   ROH 9081  13.339  15.597  10.999 -0.3045 -0.1713 -0.0456
  588ERGO    R1 9082  13.223  15.554  10.745 -0.0522 -0.1991 -0.1570
  588ERGO    R2 9083  13.136  15.761  10.583 -0.2289 -0.2339 -0.0987
  588ERGO    R3 9084  13.300  15.643  10.401  0.0777  0.1029 -0.0544
  588ERGO    R4 9085  13.101  15.787  10.241 -0.2290 -0.3471 -0.1093
  588ERGO    R5 9086  13.153  15.576  10.224  0.2483 -0.2482 -0.0765
  588ERGO    C1 9087  13.234  15.693   9.869  0.0589 -0.0967 -0.0738
  588ERGO    C2 9088  13.255  15.706   9.476 -0.0932 -0.0822 -0.0106
  589ERGO   ROH 9089  12.630  10.205  10.852 -0.1639  0.0910 -0.0052
  589ERGO    R1 9090  12.723  10.042  10.640 -0.1835  0.0412  0.0256
  589ERGO    R2 9091  12.558   9.870  10.501 -0.2526  0.2062 -0.0913
  589ERGO    R3 9092  12.654  10.004  10.285 -0.0119  0.1522 -0.0223
  589ERGO    R4 9093  12.611   9.730  10.189 -0.4003  0.2380 -0.1321
  589ERGO    R5 9094  12.796   9.845  10.174 -0.2199 -0.0223 -0.0521
  589ERGO    C1 9095  12.732   9.775   9.805 -0.2603  0.2058 -0.0913
  589ERGO    C2 9096  12.767   9.766   9.472  0.1864  0.0918  0.1114
  590ERGO   ROH 9097  11.776  14.516  11.101  0.1798 -0.0704 -0.0498
  590ERGO    R1 9098  11.634  14.531  10.857  0.1011  0.0969  0.0066
  590ERGO    R2 9099  11.695  14.715  10.660  0.2722 -0.0053 -0.0272
  590ERGO    R3 9100  11.712  14.494  10.503 -0.0915 -0.0434 -0.0252
  590ERGO    R4 9101  11.688  14.719  10.315  0.5616  0.0508 -0.0366
  590ERGO    R5 9102  11.563  14.540  10.321  0.1451  0.3148 -0.1477
  590ERGO    C1 9103  11.700  14.513   9.966  0.3887  0.0477 -0.0401
  590ERGO    C2 9104  11.676  14.589   9.590 -0.1736 -0.0297  0.0414
  591ERGO   ROH 9105   8.487   1.665  10.821  0.2701  0.0378  0.0857
  591ERGO    R1 9106   8.546   1.798  10.579  0.1431 -0.0103  0.0286
  591ERGO    R2 9107   8.708   1.687  10.384  0.1009 -0.0142  0.0037
  591ERGO    R3 9108   8.495   1.736  10.224  0.0318 -0.1167  0.0611
  591ERGO    R4 9109   8.726   1.750  10.045 -0.0488 -0.4260 -0.0872
  591ERGO    R5 9110   8.573   1.902  10.070  0.0249 -0.3265 -0.1817
  591ERGO    C1 9111   8.536   1.832   9.697 -0.2010 -0.7621 -0.0863
  591ERGO    C2 9112   8.511   1.756   9.368 -0.2145  0.3606 -0.2345
  592ERGO   ROH 9113   3.412   1.630  11.126  0.0005  0.0732 -0.1610
  592ERGO    R1 9114   3.416   1.504  10.872 -0.2645  0.1325 -0.1960
  592ERGO    R2 9115   3.253   1.585  10.664 -0.0495  0.5892 -0.1958
  592ERGO    R3 9116   3.488   1.603  10.529  0.0256  0.0633 -0.1583
  592ERGO    R4 9117   3.283   1.599  10.320  0.0241  0.6290 -0.1887
  592ERGO    R5 9118   3.456   1.467  10.334 -0.2849  0.1948 -0.2071
  592ERGO    C1 9119   3.521   1.625   9.993  0.1375  0.1586 -0.1494
  592ERGO    C2 9120   3.357   1.661   9.593 -0.1343  0.1104 -0.2688
  593ERGO   ROH 9121   6.696  13.435  10.891 -0.1427 -0.1940 -0.1271
  593ERGO    R1 9122   6.611  13.425  10.622 -0.1101  0.0109 -0.1463
  593ERGO    R2 9123   6.560  13.653  10.473  0.2482  0.1344 -0.0898
  593ERGO    R3 9124   6.737  13.541  10.300  0.1190 -0.0749 -0.0890
  593ERGO    R4 9125   6.580  13.726  10.136  0.4197  0.2082 -0.0652
  593ERGO    R5 9126   6.612  13.514  10.097  0.1161  0.1679 -0.1217
  593ERGO    C1 9127   6.757  13.662   9.777  0.3982  0.0546 -0.0501
  593ERGO    C2 9128   6.732  13.877   9.468 -0.1818 -0.1412  0.0755
  594ERGO   ROH 9129   1.242   8.888  11.156 -0.0070 -0.0047  0.0122
  594ERGO    R1 9130   1.204   9.074  10.946 -0.0143  0.0044  0.0210
  594ERGO    R2 9131   1.386   9.104  10.739 -0.0327 -0.0051 -0.0007
  594ERGO    R3 9132   1.167   9.061  10.584 -0.0549  0.0149  0.0259
  594ERGO    R4 9133   1.385   9.104  10.394 -0.0764 -0.0339 -0.0004
  594ERGO    R5 9134   1.195   9.209  10.399 -0.0568 -0.0073  0.0113
  594ERGO    C1 9135   1.180   9.063  10.047 -0.1226 -0.0318  0.0246
  594ERGO    C2 9136   1.288   9.081   9.673 -0.1299  0.0521  0.6707
  595ERGO   ROH 9137  15.304  10.256  11.353  0.0208  0.2550 -0.0478
  595ERGO    R1 9138  15.327  10.404  11.113 -0.1328  0.1466 -0.1302
  595ERGO    R2 9139  15.554  10.397  10.955 -0.1008  0.3415 -0.0892
  595ERGO    R3 9140  15.376  10.329  10.760  0.0123  0.0048 -0.0825
  595ERGO    R4 9141  15.623  10.398  10.616 -0.0898  0.4275 -0.0873
  595ERGO    R5 9142  15.424  10.481  10.581 -0.2475  0.0788 -0.0985
  595ERGO    C1 9143  15.496  10.334  10.236  0.0228  0.1616 -0.0797
  595ERGO    C2 9144  15.570  10.425   9.857  0.1975 -0.0837 -0.1905
  596ERGO   ROH 9145  14.830   1.242  11.264  0.2323  0.0837 -0.1468
  596ERGO    R1 9146  14.642   1.283  11.056  0.0401 -0.1370 -0.0203
  596ERGO    R2 9147  14.701   1.425  10.827 -0.2973 -0.0159 -0.0355
  596ERGO    R3 9148  14.616   1.199  10.703 -0.0728 -0.1165 -0.0186
  596ERGO    R4 9149  14.670   1.387  10.485 -0.1601 -0.1026 -0.0393
  596ERGO    R5 9150  14.485   1.278  10.519 -0.0865 -0.2547 -0.0743
  596ERGO    C1 9151  14.572   1.152  10.170  0.1304 -0.2475 -0.0258
  596ERGO    C2 9152  14.599   1.268   9.762  0.0944 -0.0552 -0.2441
  597ERGO   ROH 9153   1.982   5.145  11.116  0.0757 -0.0368 -0.0761
  597ERGO    R1 9154   2.111   5.054  10.882  0.1600 -0.0028 -0.0421
  597ERGO    R2 9155   1.982   4.906  10.689  0.2777 -0.1239 -0.0229
  597ERGO    R3 9156   2.073   5.101  10.523  0.1725 -0.1034 -0.0581
  597ERGO    R4 9157   1.974   4.889  10.344  0.0500 -0.0878 -0.0213
  597ERGO    R5 9158   2.173   4.981  10.340  0.0536 -0.0878 -0.1387
  597ERGO    C1 9159   2.055   5.063   9.987 -0.1813 -0.0475 -0.0535
  597ERGO    C2 9160   2.043   4.936   9.607  0.3525  0.1507  0.3259
  598ERGO   ROH 9161   7.170   4.392  10.739  0.1642 -0.2640 -0.0048
  598ERGO    R1 9162   7.105   4.514  10.492 -0.0390 -0.1421  0.1059
  598ERGO    R2 9163   7.297   4.612  10.319 -0.1847  0.0267  0.0342
  598ERGO    R3 9164   7.172   4.449  10.140 -0.2429  0.0863  0.0236
  598ERGO    R4 9165   7.310   4.648   9.975 -0.2056  0.0668  0.0380
  598ERGO    R5 9166   7.098   4.597   9.967 -0.2170  0.1263  0.0493
  598ERGO    C1 9167   7.200   4.518   9.608 -0.2724  0.1461  0.0302
  598ERGO    C2 9168   7.266   4.643   9.244  0.0370 -0.0519  0.1186
  599ERGO   ROH 9169   6.120  14.989  10.795 -0.2481  0.2019  0.0278
  599ERGO    R1 9170   6.055  15.105  10.545  0.0473  0.1563 -0.0743
  599ERGO    R2 9171   6.247  15.173  10.359  0.2465 -0.2553 -0.0324
  599ERGO    R3 9172   6.097  15.017  10.195  0.0746 -0.1233 -0.0038
  599ERGO    R4 9173   6.200  15.229  10.021  0.0597 -0.0962  0.0178
  599ERGO    R5 9174   5.992  15.171  10.045  0.0478 -0.0144  0.1246
  599ERGO    C1 9175   6.033  15.114   9.670 -0.2106  0.1204  0.0740
  599ERGO    C2 9176   6.221  15.188   9.372  0.0333  0.0173 -0.1186
  600ERGO   ROH 9177   2.631  13.826  10.763 -0.1192 -0.2120 -0.1697
  600ERGO    R1 9178   2.584  13.748  10.495 -0.1207 -0.1158 -0.1980
  600ERGO    R2 9179   2.373  13.847  10.346 -0.0743 -0.0011 -0.1882
  600ERGO    R3 9180   2.571  13.912  10.171 -0.0368 -0.0135 -0.1505
  600ERGO    R4 9181   2.331  13.880  10.005 -0.0216  0.0577 -0.1891
  600ERGO    R5 9182   2.523  13.780   9.976 -0.0363  0.0240 -0.1767
  600ERGO    C1 9183   2.492  13.959   9.641  0.0442  0.0801 -0.1540
  600ERGO    C2 9184   2.557  13.805   9.296  0.4347  0.1956 -0.0687
  601ERGO   ROH 9185  15.463   4.045  10.935  0.0435 -0.0877 -0.0680
  601ERGO    R1 9186  15.498   3.948  10.671  0.1328  0.0296 -0.0991
  601ERGO    R2 9187  15.288   3.916  10.495  0.1671 -0.0794 -0.1147
  601ERGO    R3 9188  15.442   4.072  10.334  0.0480  0.0973 -0.0614
  601ERGO    R4 9189  15.280   3.912  10.149  0.2304 -0.0351 -0.1175
  601ERGO    R5 9190  15.498   3.931  10.149  0.2180  0.1749 -0.0751
  601ERGO    C1 9191  15.420   4.056   9.797  0.1553  0.1566 -0.0692
  601ERGO    C2 9192  15.453   4.250   9.499  0.1005 -0.0271  0.1569
  602ERGO   ROH 9193   4.115   9.169  11.146 -0.1090 -0.0529 -0.0208
  602ERGO    R1 9194   4.188   9.188  10.873 -0.0542 -0.0243 -0.0043
  602ERGO    R2 9195   4.196   8.969  10.705  0.0998 -0.0278  0.0039
  602ERGO    R3 9196   4.031   9.121  10.552  0.0555 -0.1179 -0.0387
  602ERGO    R4 9197   4.221   9.004  10.362  0.0883 -0.1106 -0.0056
  602ERGO    R5 9198   4.175   9.215  10.385  0.0259 -0.1195 -0.0635
  602ERGO    C1 9199   4.082   9.167  10.018  0.0401 -0.2434 -0.0512
  602ERGO    C2 9200   3.980   9.112   9.715  0.0254 -0.0460 -0.1070
  603ERGO   ROH 9201   0.715  16.603  11.061  0.1214  0.2427  0.0007
  603ERGO    R1 9202   0.707  16.501  10.797  0.0834  0.1113  0.0515
  603ERGO    R2 9203   0.492  16.541  10.628  0.0355 -0.0171  0.0787
  603ERGO    R3 9204   0.683  16.639  10.461 -0.0212 -0.0569 -0.0109
  603ERGO    R4 9205   0.478  16.532  10.282 -0.2743  0.2734  0.0784
  603ERGO    R5 9206   0.690  16.484  10.279 -0.3192  0.0823 -0.1460
  603ERGO    C1 9207   0.649  16.619   9.925 -0.5079  0.4049 -0.0058
  603ERGO    C2 9208   0.671  16.513   9.585 -0.1295 -0.3004  0.3038
  604ERGO   ROH 9209   2.253   9.994  11.304 -0.0009  0.3940 -0.0524
  604ERGO    R1 9210   2.267  10.087  11.036 -0.0296  0.1813 -0.1294
  604ERGO    R2 9211   2.461  10.001  10.860  0.0844  0.2042 -0.0172
  604ERGO    R3 9212   2.248   9.939  10.704  0.1699 -0.1204 -0.0110
  604ERGO    R4 9213   2.455  10.023  10.515  0.0749  0.0853 -0.0249
  604ERGO    R5 9214   2.252  10.102  10.529 -0.0289 -0.1688 -0.0631
  604ERGO    C1 9215   2.251   9.977  10.168  0.1497 -0.2886 -0.0235
  604ERGO    C2 9216   2.330   9.888   9.841  0.3310  0.1005  0.2692
  605ERGO   ROH 9217  14.941  14.066  11.071  0.1418 -0.0369 -0.0271
  605ERGO    R1 9218  14.794  14.150  10.845  0.0401 -0.1997 -0.0244
  605ERGO    R2 9219  14.855  14.381  10.705 -0.3114 -0.0422  0.0622
  605ERGO    R3 9220  14.863  14.211  10.493  0.0084  0.0342  0.0096
  605ERGO    R4 9221  14.882  14.479  10.375 -0.2257  0.0909  0.1089
  605ERGO    R5 9222  14.738  14.324  10.322 -0.0171 -0.0556 -0.0274
  605ERGO    C1 9223  14.905  14.377   9.983  0.1245  0.2400  0.0868
  605ERGO    C2 9224  14.952  14.395   9.612  0.0434 -0.3066 -0.1075
  606ERGO   ROH 9225  10.225  12.238  11.076  0.1906 -0.1119  0.0221
  606ERGO    R1 9226  10.292  12.096  10.839 -0.0421 -0.0336 -0.0933
  606ERGO    R2 9227  10.137  12.108  10.610 -0.0954  0.3058 -0.0458
  606ERGO    R3 9228  10.372  12.181  10.495 -0.0376  0.1069 -0.0584
  606ERGO    R4 9229  10.188  12.142  10.270 -0.0550  0.1724 -0.0541
  606ERGO    R5 9230  10.383  12.050  10.295 -0.1210  0.0408 -0.0200
  606ERGO    C1 9231  10.438  12.231   9.964  0.0230 -0.0921 -0.0707
  606ERGO    C2 9232  10.491  12.231   9.656 -0.0710 -0.0782 -0.2870
  607ERGO   ROH 9233   5.053   6.265  10.613  0.1543 -0.0207 -0.1401
  607ERGO    R1 9234   5.138   6.165  10.362  0.0633  0.0472 -0.1993
  607ERGO    R2 9235   4.961   6.069  10.172 -0.0065  0.0894 -0.1596
  607ERGO    R3 9236   5.086   6.250  10.013 -0.0736  0.1373 -0.1568
  607ERGO    R4 9237   4.930   6.084   9.829  0.1101 -0.0115 -0.1745
  607ERGO    R5 9238   5.143   6.127   9.816  0.0837  0.1324 -0.1067
  607ERGO    C1 9239   5.029   6.262   9.478  0.1149 -0.0252 -0.1806
  607ERGO    C2 9240   4.818   6.154   9.312 -0.1208  0.0892  0.2950
  608ERGO   ROH 9241  13.356   2.388  11.115  0.1174 -0.1734 -0.0723
  608ERGO    R1 9242  13.401   2.239  10.878 -0.0556 -0.1023 -0.1516
  608ERGO    R2 9243  13.216   2.227  10.673 -0.0931  0.1795 -0.1381
  608ERGO    R3 9244  13.427   2.309  10.523 -0.0278  0.0484 -0.1203
  608ERGO    R4 9245  13.226   2.227  10.327 -0.1134  0.2970 -0.1390
  608ERGO    R5 9246  13.432   2.158  10.337 -0.1724  0.1107 -0.1759
  608ERGO    C1 9247  13.429   2.305   9.985 -0.0640  0.2422 -0.1229
  608ERGO    C2 9248  13.355   2.297   9.668  0.3795 -0.0194 -0.3784
  609ERGO   ROH 9249   5.698  11.196  11.085 -0.1467  0.0897  0.0915
  609ERGO    R1 9250   5.814  11.277  10.840 -0.0159 -0.0771  0.0948
  609ERGO    R2 9251   5.834  11.109  10.621 -0.1303 -0.1507  0.1346
  609ERGO    R3 9252   5.704  11.312  10.494  0.0861 -0.0541  0.0660
  609ERGO    R4 9253   5.819  11.150  10.278  0.1781 -0.0626  0.1301
  609ERGO    R5 9254   5.845  11.365  10.308  0.2685 -0.0867  0.1961
  609ERGO    C1 9255   5.690  11.365   9.960  0.5608  0.0796  0.0630
  609ERGO    C2 9256   5.663  11.315   9.672 -0.1641  0.2191  0.1292
  610ERGO   ROH 9257  10.696  14.774  10.865 -0.0076 -0.2194 -0.1156
  610ERGO    R1 9258  10.622  14.717  10.597 -0.0797 -0.0199 -0.1400
  610ERGO    R2 9259  10.557  14.915  10.415  0.1906  0.1410 -0.0677
  610ERGO    R3 9260  10.750  14.796  10.266  0.0365 -0.0653 -0.1065
  610ERGO    R4 9261  10.560  14.903  10.070  0.1935  0.2904 -0.0732
  610ERGO    R5 9262  10.631  14.698  10.083 -0.0934  0.1804 -0.1585
  610ERGO    C1 9263  10.742  14.785   9.728  0.0505  0.1839 -0.1129
  610ERGO    C2 9264  10.876  14.719   9.428 -0.2812  0.0263  0.0984
  611ERGO   ROH 9265  11.131  17.181  10.990 -0.0556  0.0883 -0.1826
  611ERGO    R1 9266  11.226  17.149  10.726 -0.0546 -0.0171 -0.1704
  611ERGO    R2 9267  11.068  17.053  10.521 -0.0791 -0.0259 -0.1522
  611ERGO    R3 9268  11.145  17.282  10.397 -0.0012 -0.0826 -0.2090
  611ERGO    R4 9269  11.079  17.097  10.178  0.1574 -0.1756 -0.1657
  611ERGO    R5 9270  11.266  17.207  10.204  0.1322 -0.1618 -0.0908
  611ERGO    C1 9271  11.158  17.337   9.862  0.3683 -0.3157 -0.2270
  611ERGO    C2 9272  11.286  17.299   9.482  0.2134 -0.0321 -0.1203
  612ERGO   ROH 9273  10.194   6.884  10.740  0.0464  0.1357  0.1101
  612ERGO    R1 9274  10.093   6.883  10.475  0.0857 -0.0415  0.0969
  612ERGO    R2 9275  10.112   7.102  10.307 -0.0132 -0.1131  0.0075
  612ERGO    R3 9276  10.229   6.923  10.140  0.1074 -0.1194  0.0933
  612ERGO    R4 9277  10.174   7.155   9.971 -0.1925 -0.2724 -0.0544
  612ERGO    R5 9278  10.114   6.950   9.933 -0.0069 -0.3732  0.1112
  612ERGO    C1 9279  10.320   7.016   9.619 -0.1838 -0.3711 -0.0099
  612ERGO    C2 9280  10.512   6.880   9.360 -0.1813 -0.3028  0.0713
  613ERGO   ROH 9281   2.393   6.843  10.843  0.0669 -0.1435  0.1228
  613ERGO    R1 9282   2.275   6.964  10.617  0.0429 -0.0972  0.1605
  613ERGO    R2 9283   2.423   7.091  10.420  0.0191 -0.0305  0.1873
  613ERGO    R3 9284   2.289   6.921  10.256  0.0292 -0.0009  0.1475
  613ERGO    R4 9285   2.382   7.134  10.080  0.0361  0.0366  0.1934
  613ERGO    R5 9286   2.178   7.063  10.099  0.0348  0.0296  0.1698
  613ERGO    C1 9287   2.233   7.000   9.727  0.0554  0.1035  0.1595
  613ERGO    C2 9288   2.192   7.013   9.351  0.0357  0.3304 -0.0059
  614ERGO   ROH 9289   6.691  11.719  11.186  0.1327 -0.1627  0.1434
  614ERGO    R1 9290   6.736  11.801  10.919  0.1379 -0.0108  0.1893
  614ERGO    R2 9291   6.934  11.691  10.760  0.1077  0.0387  0.1100
  614ERGO    R3 9292   6.728  11.646  10.589  0.0868  0.1879  0.0966
  614ERGO    R4 9293   6.937  11.768  10.424  0.1829  0.0350  0.1105
  614ERGO    R5 9294   6.731  11.835  10.442  0.2320  0.1837  0.0959
  614ERGO    C1 9295   6.745  11.771  10.067  0.2071  0.1729  0.0982
  614ERGO    C2 9296   6.853  11.807   9.777  0.3682  0.2061  0.1888
  615ERGO   ROH 9297   9.185   6.989  10.615 -0.3325  0.1181  0.1116
  615ERGO    R1 9298   9.106   7.052  10.351 -0.1858  0.0702  0.0566
  615ERGO    R2 9299   9.263   7.205  10.182 -0.0126 -0.1130  0.0580
  615ERGO    R3 9300   9.233   6.992  10.015 -0.1038 -0.1550  0.1247
  615ERGO    R4 9301   9.290   7.217   9.837  0.0140 -0.2269  0.0543
  615ERGO    R5 9302   9.121   7.081   9.824 -0.0547 -0.1561  0.0894
  615ERGO    C1 9303   9.278   7.024   9.481 -0.0560 -0.3326  0.1151
  615ERGO    C2 9304   9.272   6.972   9.131  0.0104 -0.2176 -0.0230
  616ERGO   ROH 9305   3.349   4.003  10.981  0.1703  0.0733  0.0170
  616ERGO    R1 9306   3.261   4.070  10.720  0.3009  0.0752 -0.0271
  616ERGO    R2 9307   3.428   4.068  10.502  0.3409 -0.2221  0.0059
  616ERGO    R3 9308   3.239   3.903  10.398  0.1562 -0.0326  0.0363
  616ERGO    R4 9309   3.382   4.011  10.164  0.4039 -0.3650  0.0205
  616ERGO    R5 9310   3.166   4.016  10.199  0.3894 -0.0502 -0.0652
  616ERGO    C1 9311   3.176   3.823   9.870  0.2672 -0.2704  0.0576
  616ERGO    C2 9312   3.243   3.668   9.546 -0.0579  0.0384  0.0268
  617ERGO   ROH 9313   0.947   7.422  11.025 -0.0189 -0.2260 -0.0560
  617ERGO    R1 9314   0.871   7.547  10.783 -0.0579 -0.2015 -0.0317
  617ERGO    R2 9315   1.056   7.645  10.601 -0.0894 -0.0407  0.0219
  617ERGO    R3 9316   0.921   7.486  10.427  0.0294 -0.0713 -0.0428
  617ERGO    R4 9317   1.079   7.663  10.257 -0.2535  0.2594  0.0241
  617ERGO    R5 9318   0.864   7.630  10.246 -0.2227  0.0075  0.0925
  617ERGO    C1 9319   0.966   7.525   9.893 -0.2374  0.4055 -0.0354
  617ERGO    C2 9320   0.897   7.506   9.483 -0.0297 -0.0792 -0.2069
  618ERGO   ROH 9321   9.076   9.201  10.812 -0.1874 -0.1693 -0.1650
  618ERGO    R1 9322   9.222   9.296  10.588 -0.1707  0.0434 -0.0651
  618ERGO    R2 9323   9.393   9.134  10.442  0.0048  0.2396 -0.0734
  618ERGO    R3 9324   9.240   9.218  10.233  0.0262  0.2231 -0.0971
  618ERGO    R4 9325   9.494   9.139  10.111  0.0098  0.1154 -0.0751
  618ERGO    R5 9326   9.393   9.330  10.088  0.0612  0.1403 -0.1293
  618ERGO    C1 9327   9.409   9.221   9.723  0.0325  0.0276 -0.0982
  618ERGO    C2 9328   9.432   9.382   9.390 -0.0876 -0.0410 -0.1286
  619ERGO   ROH 9329   9.578  10.329  10.879  0.3638  0.1116  0.1320
  619ERGO    R1 9330   9.464  10.283  10.624  0.2563 -0.0087  0.2006
  619ERGO    R2 9331   9.363  10.487  10.467  0.0894 -0.0956  0.1932
  619ERGO    R3 9332   9.533  10.386  10.281  0.0417 -0.0731  0.1368
  619ERGO    R4 9333   9.353  10.560  10.129  0.0276 -0.0234  0.2104
  619ERGO    R5 9334   9.396  10.351  10.088 -0.0013 -0.0189  0.1573
  619ERGO    C1 9335   9.507  10.507   9.758 -0.0533  0.0398  0.1674
  619ERGO    C2 9336   9.653  10.537   9.526  0.0841  0.1095  0.2014
  620ERGO   ROH 9337  12.530   5.697  10.697  0.0934 -0.2674 -0.0631
  620ERGO    R1 9338  12.466   5.600  10.439 -0.0399 -0.1717 -0.0666
  620ERGO    R2 9339  12.324   5.749  10.255  0.0707 -0.0117 -0.0220
  620ERGO    R3 9340  12.537   5.695  10.095 -0.0048 -0.1912 -0.0649
  620ERGO    R4 9341  12.329   5.787   9.911  0.1348  0.3035  0.0104
  620ERGO    R5 9342  12.441   5.601   9.897 -0.1477  0.1383 -0.1587
  620ERGO    C1 9343  12.532   5.758   9.562  0.1012  0.3185 -0.0110
  620ERGO    C2 9344  12.508   5.831   9.218  0.0509 -0.2881 -0.0407
  621ERGO   ROH 9345  15.870   6.710  11.069  0.2170 -0.2487  0.0935
  621ERGO    R1 9346  15.975   6.684  10.808  0.1369 -0.1512  0.0520
  621ERGO    R2 9347  15.903   6.478  10.639  0.0907 -0.0883  0.0025
  621ERGO    R3 9348  15.842   6.681  10.469  0.0354 -0.0307  0.0886
  621ERGO    R4 9349  15.905   6.455  10.294 -0.0807  0.0005 -0.0068
  621ERGO    R5 9350  15.994   6.653  10.286 -0.0538 -0.0058  0.0050
  621ERGO    C1 9351  15.850   6.632   9.934 -0.2324  0.1063  0.0688
  621ERGO    C2 9352  15.809   6.657   9.565 -0.3039 -0.0250 -0.0109
  622ERGO   ROH 9353  16.989   8.944  11.131  0.2378  0.0954 -0.0423
  622ERGO    R1 9354  16.947   9.036  10.866  0.1761  0.1046 -0.0295
  622ERGO    R2 9355  17.149   9.146  10.713  0.1657  0.0115 -0.1096
  622ERGO    R3 9356  17.075   8.955  10.535  0.0146  0.0383 -0.0774
  622ERGO    R4 9357  17.150   9.185  10.370  0.1931 -0.0395 -0.1153
  622ERGO    R5 9358  16.962   9.075  10.362  0.1045  0.1025 -0.0948
  622ERGO    C1 9359  17.081   9.028  10.003  0.0676 -0.0441 -0.0885
  622ERGO    C2 9360  17.125   9.029   9.650  0.0106 -0.1351  0.2874
  623ERGO   ROH 9361  11.895  12.049  11.079  0.3046 -0.0050 -0.1275
  623ERGO    R1 9362  12.052  12.023  10.844  0.1977 -0.1976 -0.1814
  623ERGO    R2 9363  12.064  11.788  10.698 -0.2562 -0.1787 -0.2763
  623ERGO    R3 9364  11.991  11.950  10.493 -0.0357  0.0327 -0.1903
  623ERGO    R4 9365  12.173  11.755  10.372 -0.2191 -0.0803 -0.2726
  623ERGO    R5 9366  12.190  11.972  10.361  0.0149 -0.0918 -0.1301
  623ERGO    C1 9367  12.168  11.888   9.989  0.0095  0.1753 -0.1898
  623ERGO    C2 9368  12.153  11.879   9.667  0.0223  0.0150 -0.4704
  624ERGO   ROH 9369   4.439  12.052  11.164 -0.0762  0.1482 -0.0364
  624ERGO    R1 9370   4.446  12.218  10.935 -0.0211  0.1519 -0.0334
  624ERGO    R2 9371   4.652  12.209  10.750  0.0304  0.1575  0.0148
  624ERGO    R3 9372   4.449  12.170  10.574  0.0713  0.1517 -0.0310
  624ERGO    R4 9373   4.670  12.274  10.411  0.1386  0.0134 -0.0079
  624ERGO    R5 9374   4.467  12.354  10.421  0.1667  0.0788 -0.1005
  624ERGO    C1 9375   4.489  12.276  10.049  0.2399 -0.0758 -0.0643
  624ERGO    C2 9376   4.515  12.262   9.680  0.1432  0.1603 -0.1293
  625ERGO   ROH 9377  12.141   6.942  10.919 -0.0409 -0.0925  0.0199
  625ERGO    R1 9378  12.230   7.094  10.697 -0.0166 -0.0518  0.0572
  625ERGO    R2 9379  12.419   6.999  10.519 -0.0066 -0.0249  0.0531
  625ERGO    R3 9380  12.228   7.058  10.334  0.0098  0.0205  0.0501
  625ERGO    R4 9381  12.477   7.042  10.181  0.0000 -0.0694  0.0483
  625ERGO    R5 9382  12.336   7.208  10.182  0.0532 -0.0258  0.0365
  625ERGO    C1 9383  12.332   7.121   9.811  0.0192 -0.0525  0.0427
  625ERGO    C2 9384  12.302   7.086   9.416 -0.0564  0.1272 -0.3214
  626ERGO   ROH 9385   9.321   8.259  10.628 -0.0175 -0.0036  0.0602
  626ERGO    R1 9386   9.285   8.162  10.365  0.0584 -0.1106  0.0887
  626ERGO    R2 9387   9.138   8.299  10.174 -0.1528 -0.3389  0.0835
  626ERGO    R3 9388   9.366   8.275  10.028 -0.1444 -0.0808  0.0482
  626ERGO    R4 9389   9.153   8.297   9.829 -0.1868 -0.1974  0.0799
  626ERGO    R5 9390   9.303   8.140   9.841 -0.0436 -0.0692  0.0049
  626ERGO    C1 9391   9.375   8.272   9.491 -0.1987  0.1273  0.0446
  626ERGO    C2 9392   9.574   8.298   9.249  0.3590  0.2028  0.1359
  627ERGO   ROH 9393  14.910   4.382  10.817  0.0659 -0.1464  0.1130
  627ERGO    R1 9394  15.051   4.317  10.580  0.0012 -0.1811  0.0832
  627ERGO    R2 9395  14.926   4.214  10.356 -0.0700 -0.1629  0.1104
  627ERGO    R3 9396  15.046   4.424  10.232 -0.0555 -0.1881  0.0827
  627ERGO    R4 9397  14.945   4.258  10.014 -0.0655 -0.2018  0.1060
  627ERGO    R5 9398  15.150   4.329  10.039 -0.0638 -0.2151  0.0951
  627ERGO    C1 9399  15.070   4.481   9.698 -0.0493 -0.2482  0.0774
  627ERGO    C2 9400  15.080   4.544   9.293 -0.2305 -0.1560 -0.0722
  628ERGO   ROH 9401   5.878   8.715  10.946  0.0022 -0.0935 -0.0467
  628ERGO    R1 9402   6.025   8.811  10.725 -0.1375  0.1244 -0.0464
  628ERGO    R2 9403   6.111   8.647  10.520  0.3544  0.1871  0.1069
  628ERGO    R3 9404   5.981   8.828  10.364 -0.0292 -0.2290 -0.0830
  628ERGO    R4 9405   6.122   8.655  10.175  0.7542  0.1191  0.1132
  628ERGO    R5 9406   6.133   8.872  10.185  0.0801  0.1875  0.0889
  628ERGO    C1 9407   6.007   8.829   9.827  0.6270 -0.3112 -0.0614
  628ERGO    C2 9408   5.754   8.802   9.581  0.0422  0.0688 -0.1185
  629ERGO   ROH 9409  10.774   4.722  10.589  0.2416 -0.1927  0.0392
  629ERGO    R1 9410  10.870   4.612  10.347  0.1836 -0.1506 -0.0028
  629ERGO    R2 9411  10.714   4.591  10.120  0.1487 -0.0685  0.0156
  629ERGO    R3 9412  10.920   4.727  10.005  0.1511 -0.0807  0.0173
  629ERGO    R4 9413  10.788   4.589   9.783  0.1048 -0.0134  0.0052
  629ERGO    R5 9414  11.000   4.579   9.834  0.1055 -0.0566 -0.0230
  629ERGO    C1 9415  11.025   4.714   9.478  0.0815  0.0073  0.0009
  629ERGO    C2 9416  11.080   4.688   9.145  0.3278 -0.2662 -0.1902
  630ERGO   ROH 9417   4.957  14.700  10.929  0.1747 -0.0724  0.0734
  630ERGO    R1 9418   4.936  14.832  10.680 -0.0624 -0.0710  0.0911
  630ERGO    R2 9419   5.127  14.807  10.482  0.0384  0.3684  0.1189
  630ERGO    R3 9420   4.914  14.734  10.330  0.2117 -0.0691  0.0710
  630ERGO    R4 9421   5.112  14.834  10.137  0.0428  0.3810  0.1204
  630ERGO    R5 9422   4.905  14.900  10.157 -0.1099 -0.0593  0.0925
  630ERGO    C1 9423   4.902  14.782   9.795  0.2079 -0.0223  0.0764
  630ERGO    C2 9424   4.957  14.845   9.421  0.0964  0.2215 -0.0248
  631ERGO   ROH 9425   8.154   8.520  10.564  0.0661  0.2053  0.0369
  631ERGO    R1 9426   8.037   8.502  10.307 -0.0456  0.1052  0.0938
  631ERGO    R2 9427   7.980   8.725  10.154 -0.0880  0.0445  0.0219
  631ERGO    R3 9428   8.129   8.596   9.968 -0.1812 -0.0509  0.0119
  631ERGO    R4 9429   7.971   8.790   9.815  0.1795  0.2961  0.0594
  631ERGO    R5 9430   7.984   8.576   9.779 -0.1206  0.2958 -0.0804
  631ERGO    C1 9431   8.107   8.707   9.442  0.2477  0.3529  0.0719
  631ERGO    C2 9432   8.141   8.811   9.158  0.1603 -0.0733 -0.1557
  632ERGO   ROH 9433   6.600   5.697  10.847  0.0220 -0.1440 -0.0325
  632ERGO    R1 9434   6.571   5.863  10.620  0.0968 -0.0608  0.0175
  632ERGO    R2 9435   6.776   5.904  10.438  0.1459 -0.0219  0.0748
  632ERGO    R3 9436   6.589   5.822  10.259  0.1767  0.0614  0.0095
  632ERGO    R4 9437   6.775   5.987  10.103  0.2557  0.0283  0.0865
  632ERGO    R5 9438   6.559   6.011  10.115  0.2669  0.0856  0.0294
  632ERGO    C1 9439   6.599   5.959   9.739  0.3485  0.1358  0.0321
  632ERGO    C2 9440   6.625   6.002   9.437 -0.0463  0.3289  0.1601
  633ERGO   ROH 9441   6.826   5.293  10.689  0.0067 -0.0849  0.0658
  633ERGO    R1 9442   6.750   5.431  10.454 -0.1184 -0.1335  0.0754
  633ERGO    R2 9443   6.934   5.532  10.275 -0.1976  0.1782  0.1537
  633ERGO    R3 9444   6.792   5.387  10.095  0.0648  0.0082  0.0795
  633ERGO    R4 9445   6.936   5.587   9.934 -0.0947  0.1678  0.1529
  633ERGO    R5 9446   6.720   5.548   9.933 -0.0449 -0.0849  0.0417
  633ERGO    C1 9447   6.803   5.482   9.566  0.2117  0.0020  0.0827
  633ERGO    C2 9448   6.997   5.435   9.174 -0.1851 -0.0807 -0.2148
  634ERGO   ROH 9449   4.286  17.088  10.777  0.0236  0.1407  0.1076
  634ERGO    R1 9450   4.403  17.000  10.534 -0.0932 -0.0046  0.1031
  634ERGO    R2 9451   4.255  16.887  10.329 -0.2395  0.1784  0.1135
  634ERGO    R3 9452   4.373  17.083  10.181 -0.0031  0.0312  0.1010
  634ERGO    R4 9453   4.292  16.881   9.985 -0.4746  0.1987  0.0860
  634ERGO    R5 9454   4.491  16.965  10.010 -0.3037 -0.1343 -0.0101
  634ERGO    C1 9455   4.424  17.060   9.647 -0.3896  0.0725  0.0582
  634ERGO    C2 9456   4.328  17.265   9.289  0.0724  0.2467  0.1045
  635ERGO   ROH 9457   6.156   7.219  10.953 -0.1777 -0.3299  0.1732
  635ERGO    R1 9458   6.262   7.163  10.696 -0.0931  0.0199  0.1261
  635ERGO    R2 9459   6.268   6.908  10.590  0.3097  0.0965 -0.0583
  635ERGO    R3 9460   6.136   7.026  10.384  0.1125  0.0411  0.0332
  635ERGO    R4 9461   6.315   6.832  10.257  0.1313  0.1437 -0.0953
  635ERGO    R5 9462   6.301   7.044  10.211 -0.0099  0.1387 -0.0741
  635ERGO    C1 9463   6.219   6.898   9.868 -0.1577  0.1191 -0.0308
  635ERGO    C2 9464   6.249   6.910   9.518  0.2452  0.0584 -0.2290
  636ERGO   ROH 9465  10.155   5.411  10.663  0.0669  0.0071  0.0336
  636ERGO    R1 9466  10.196   5.362  10.387  0.0647 -0.0736  0.0458
  636ERGO    R2 9467  10.171   5.560  10.196 -0.0398 -0.1491 -0.0279
  636ERGO    R3 9468  10.422   5.482  10.129 -0.0103 -0.0624 -0.0130
  636ERGO    R4 9469  10.323   5.622   9.892 -0.0259 -0.0745 -0.0044
  636ERGO    R5 9470  10.407   5.422   9.898  0.0353 -0.0441 -0.0170
  636ERGO    C1 9471  10.648   5.585   9.652  0.0101  0.0502  0.0231
  636ERGO    C2 9472  10.811   5.554   9.301 -0.2984 -0.3194  0.0953
  637ERGO   ROH 9473  10.718   3.698  10.514 -0.1068 -0.2058 -0.2002
  637ERGO    R1 9474  10.727   3.595  10.250  0.0283 -0.0487 -0.2575
  637ERGO    R2 9475  10.534   3.654  10.061  0.0246 -0.0929 -0.2567
  637ERGO    R3 9476  10.748   3.732   9.913 -0.0083  0.1580 -0.1797
  637ERGO    R4 9477  10.530   3.703   9.719  0.0908 -0.1666 -0.2691
  637ERGO    R5 9478  10.727   3.609   9.709  0.2283  0.0805 -0.1681
  637ERGO    C1 9479  10.730   3.805   9.381  0.0985  0.0260 -0.2041
  637ERGO    C2 9480  10.699   3.873   9.122 -0.1033  0.3579  0.2806
  638ERGO   ROH 9481   7.663  13.470  10.820 -0.0625  0.3992 -0.0759
  638ERGO    R1 9482   7.790  13.524  10.572 -0.0199  0.2323 -0.0914
  638ERGO    R2 9483   7.809  13.336  10.370 -0.0778  0.1291 -0.0001
  638ERGO    R3 9484   7.692  13.531  10.222  0.0131  0.1067 -0.1039
  638ERGO    R4 9485   7.823  13.359  10.026  0.0468  0.0158 -0.0039
  638ERGO    R5 9486   7.848  13.574  10.046  0.0840  0.0182 -0.0645
  638ERGO    C1 9487   7.722  13.556   9.686  0.2046 -0.0713 -0.1036
  638ERGO    C2 9488   7.773  13.634   9.328  0.0653 -0.2247 -0.1153
  639ERGO   ROH 9489  10.652   3.229  10.583  0.0388  0.0156 -0.0775
  639ERGO    R1 9490  10.621   2.968  10.480  0.1925 -0.0415  0.0185
  639ERGO    R2 9491  10.481   2.916  10.248  0.0125 -0.2331  0.1684
  639ERGO    R3 9492  10.711   2.792  10.174  0.0660 -0.0263 -0.0285
  639ERGO    R4 9493  10.514   2.708   9.973 -0.0475 -0.2464  0.1700
  639ERGO    R5 9494  10.640   2.577  10.094  0.1934 -0.1091  0.0750
  639ERGO    C1 9495  10.750   2.471   9.745 -0.0324 -0.0600 -0.0139
  639ERGO    C2 9496  10.710   2.494   9.386 -0.1252 -0.1628 -0.0963
  640ERGO   ROH 9497   8.292  13.510  10.805 -0.1943 -0.0315 -0.0193
  640ERGO    R1 9498   8.377  13.481  10.537 -0.1584  0.1751 -0.0316
  640ERGO    R2 9499   8.288  13.277  10.375  0.1951  0.0432 -0.0641
  640ERGO    R3 9500   8.221  13.481  10.209 -0.1860 -0.0392 -0.0208
  640ERGO    R4 9501   8.250  13.248  10.032  0.3316  0.0548 -0.0811
  640ERGO    R5 9502   8.349  13.442  10.010 -0.0514  0.2737 -0.0042
  640ERGO    C1 9503   8.165  13.424   9.677  0.0531 -0.0158 -0.0503
  640ERGO    C2 9504   8.230  13.418   9.239  0.3087 -0.0056  0.2985
  641ERGO   ROH 9505  13.388   6.131  10.983  0.2487 -0.1388 -0.0026
  641ERGO    R1 9506  13.533   6.068  10.748  0.1163 -0.1286 -0.0879
  641ERGO    R2 9507  13.427   5.912  10.546 -0.0591  0.0153 -0.1116
  641ERGO    R3 9508  13.494   6.125  10.391  0.0027  0.0412 -0.0497
  641ERGO    R4 9509  13.465   5.901  10.203 -0.0844  0.1109 -0.1173
  641ERGO    R5 9510  13.638   6.033  10.223 -0.0394  0.0459 -0.0874
  641ERGO    C1 9511  13.549   6.095   9.857 -0.0411  0.1909 -0.0626
  641ERGO    C2 9512  13.498   6.108   9.515 -0.2108 -0.0028 -0.1024
  642ERGO   ROH 9513   3.473   2.587  10.761  0.2798  0.0712  0.0940
  642ERGO    R1 9514   3.504   2.682  10.496  0.2315  0.0057  0.0645
  642ERGO    R2 9515   3.623   2.532  10.297  0.1913 -0.0461  0.0779
  642ERGO    R3 9516   3.392   2.583  10.165  0.1662 -0.0744  0.1106
  642ERGO    R4 9517   3.578   2.490   9.957  0.1251 -0.1108  0.0942
  642ERGO    R5 9518   3.463   2.676   9.955  0.1237 -0.1141  0.0799
  642ERGO    C1 9519   3.334   2.514   9.635  0.0629 -0.1750  0.1346
  642ERGO    C2 9520   3.273   2.519   9.340  0.1938  0.1666 -0.0262
  643ERGO   ROH 9521  10.148   9.142  10.779  0.1721  0.1803 -0.0518
  643ERGO    R1 9522  10.304   9.208  10.552  0.0463  0.1241 -0.1572
  643ERGO    R2 9523  10.328   9.040  10.333 -0.0671  0.0627 -0.1291
  643ERGO    R3 9524  10.245   9.260  10.196 -0.1537  0.0228 -0.1386
  643ERGO    R4 9525  10.368   9.089   9.993  0.0367  0.1311 -0.1066
  643ERGO    R5 9526  10.416   9.298  10.034 -0.1157  0.1544 -0.0648
  643ERGO    C1 9527  10.313   9.323   9.667  0.0159  0.1335 -0.1026
  643ERGO    C2 9528  10.386   9.445   9.273 -0.3036  0.0308  0.2532
  644ERGO   ROH 9529  13.550   4.739  10.889 -0.0042 -0.0042 -0.0071
  644ERGO    R1 9530  13.575   4.886  10.648  0.3659  0.0345  0.0501
  644ERGO    R2 9531  13.805   4.881  10.494  0.3126 -0.6171 -0.0320
  644ERGO    R3 9532  13.631   4.811  10.297  0.0006  0.0031 -0.0063
  644ERGO    R4 9533  13.885   4.859  10.159  0.0915 -0.6020 -0.0879
  644ERGO    R5 9534  13.692   4.949  10.111  0.3005 -0.0200  0.0672
  644ERGO    C1 9535  13.769   4.780   9.778 -0.3302 -0.0109 -0.0963
  644ERGO    C2 9536  13.743   4.767   9.366 -0.0549  0.0185 -0.0772
  645ERGO   ROH 9537   0.836  14.752  10.802  0.1620  0.1517 -0.0537
  645ERGO    R1 9538   0.742  14.626  10.567  0.1594  0.0206  0.0174
  645ERGO    R2 9539   0.629  14.767  10.357  0.0494 -0.1096 -0.0082
  645ERGO    R3 9540   0.819  14.639  10.212  0.0673 -0.0844 -0.0079
  645ERGO    R4 9541   0.647  14.765  10.012 -0.0432 -0.2276 -0.0133
  645ERGO    R5 9542   0.702  14.555  10.021  0.0486 -0.2052  0.0523
  645ERGO    C1 9543   0.836  14.643   9.674 -0.0803 -0.2727 -0.0160
  645ERGO    C2 9544   0.824  14.642   9.414  0.2359 -0.1311  0.1481
  646ERGO   ROH 9545   8.119  16.297  10.797  0.1329  0.0437 -0.0232
  646ERGO    R1 9546   8.213  16.212  10.544  0.1740  0.1473 -0.0415
  646ERGO    R2 9547   8.044  16.120  10.346  0.2427 -0.1031  0.0258
  646ERGO    R3 9548   8.165  16.312  10.198 -0.0652  0.0465 -0.0428
  646ERGO    R4 9549   8.028  16.142  10.002  0.0780 -0.1833  0.0262
  646ERGO    R5 9550   8.239  16.197  10.001  0.0183  0.1039 -0.0551
  646ERGO    C1 9551   8.133  16.336   9.662 -0.3071 -0.0895 -0.0380
  646ERGO    C2 9552   8.165  16.383   9.277 -0.0304 -0.2090 -0.0925
  647ERGO   ROH 9553   1.032   8.487  11.078 -0.1941  0.2595 -0.0756
  647ERGO    R1 9554   1.039   8.642  10.841  0.1064  0.1744 -0.1272
  647ERGO    R2 9555   1.239   8.616  10.652  0.0704 -0.2672 -0.1207
  647ERGO    R3 9556   1.029   8.579  10.483 -0.0056  0.0716 -0.1050
  647ERGO    R4 9557   1.252   8.654  10.309  0.0336 -0.0630 -0.0997
  647ERGO    R5 9558   1.056   8.749  10.317  0.1417  0.1462 -0.0016
  647ERGO    C1 9559   1.062   8.642   9.951 -0.0591  0.3740 -0.0727
  647ERGO    C2 9560   1.169   8.480   9.676  0.1111 -0.0305 -0.0785
  648ERGO   ROH 9561  11.308   6.332  10.746 -0.0066 -0.2077  0.1725
  648ERGO    R1 9562  11.320   6.432  10.482 -0.0973 -0.2178  0.1638
  648ERGO    R2 9563  11.551   6.538  10.373 -0.2083  0.0531  0.1790
  648ERGO    R3 9564  11.505   6.354  10.178  0.0343 -0.0262  0.1938
  648ERGO    R4 9565  11.636   6.578  10.040 -0.2601  0.1352  0.1758
  648ERGO    R5 9566  11.446   6.485   9.986 -0.1383 -0.1204  0.1826
  648ERGO    C1 9567  11.642   6.429   9.664 -0.0625  0.1086  0.1878
  648ERGO    C2 9568  11.821   6.417   9.430 -0.0397  0.0750  0.0518
  649ERGO   ROH 9569   9.917  13.842  10.962 -0.1543  0.0270  0.0572
  649ERGO    R1 9570   9.917  14.001  10.728 -0.3471  0.0044  0.0421
  649ERGO    R2 9571  10.127  14.002  10.548 -0.2685  0.3653  0.1349
  649ERGO    R3 9572   9.932  13.944  10.369 -0.0931 -0.0110  0.0523
  649ERGO    R4 9573  10.163  14.019  10.205 -0.0756  0.1227  0.1378
  649ERGO    R5 9574   9.962  14.104  10.193 -0.1716 -0.1163 -0.0607
  649ERGO    C1 9575  10.000  13.975   9.836  0.2014 -0.3719  0.0619
  649ERGO    C2 9576   9.855  13.953   9.402  0.2930  0.2762  0.0148
  650ERGO   ROH 9577   4.591   6.401  10.442 -0.2508  0.0131 -0.0350
  650ERGO    R1 9578   4.671   6.409  10.171 -0.0684  0.1211  0.0205
  650ERGO    R2 9579   4.571   6.236   9.980  0.2538  0.0190 -0.0672
  650ERGO    R3 9580   4.511   6.467   9.849  0.0894 -0.0333 -0.0859
  650ERGO    R4 9581   4.503   6.260   9.642  0.2338 -0.0481 -0.0679
  650ERGO    R5 9582   4.619   6.444   9.636  0.1014  0.0307 -0.0835
  650ERGO    C1 9583   4.408   6.490   9.322  0.0679 -0.1363 -0.0859
  650ERGO    C2 9584   4.379   6.411   8.994 -0.1901  0.2000  0.1885
  651ERGO   ROH 9585   0.956  10.845  11.212  0.0645 -0.0350 -0.1966
  651ERGO    R1 9586   0.970  11.005  10.979 -0.2077 -0.0458 -0.2229
  651ERGO    R2 9587   1.182  10.990  10.801 -0.1366  0.3407 -0.1717
  651ERGO    R3 9588   0.983  10.948  10.620 -0.0204 -0.0893 -0.2120
  651ERGO    R4 9589   1.223  10.994  10.458 -0.0420  0.2820 -0.1624
  651ERGO    R5 9590   1.033  11.099  10.441 -0.2380 -0.0603 -0.2561
  651ERGO    C1 9591   1.060  10.957  10.088  0.1222 -0.1559 -0.1948
  651ERGO    C2 9592   1.119  10.947   9.785 -0.0493  0.3265  0.0054
  652ERGO   ROH 9593  14.554   3.367  10.931 -0.2492  0.0145 -0.0259
  652ERGO    R1 9594  14.565   3.190  10.710  0.1091  0.1604 -0.1321
  652ERGO    R2 9595  14.344   3.136  10.553  0.1636 -0.3218 -0.0510
  652ERGO    R3 9596  14.510   3.212  10.351 -0.1193  0.2312 -0.0957
  652ERGO    R4 9597  14.277   3.094  10.216  0.1371 -0.3909 -0.0382
  652ERGO    R5 9598  14.486   3.039  10.187  0.3020  0.2084 -0.1469
  652ERGO    C1 9599  14.394   3.141   9.831 -0.1438  0.0880 -0.0729
  652ERGO    C2 9600  14.404   3.148   9.503  0.1769 -0.1609 -0.0465
  653ERGO   ROH 9601  12.818  14.965  11.109  0.1853  0.2634  0.0100
  653ERGO    R1 9602  12.717  14.852  10.870  0.2884  0.0732  0.0532
  653ERGO    R2 9603  12.539  14.986  10.706 -0.0381 -0.2515  0.1254
  653ERGO    R3 9604  12.725  14.934  10.516 -0.0136  0.0954  0.0501
  653ERGO    R4 9605  12.480  14.989  10.366 -0.1711 -0.3382  0.1470
  653ERGO    R5 9606  12.607  14.813  10.347  0.1409 -0.1109  0.0897
  653ERGO    C1 9607  12.622  14.943   9.988 -0.2254 -0.0628  0.0888
  653ERGO    C2 9608  12.715  14.977   9.637  0.1135 -0.1458 -0.2154
  654ERGO   ROH 9609   7.309   2.999  10.704  0.1035 -0.1374 -0.0340
  654ERGO    R1 9610   7.200   3.081  10.456  0.0804 -0.0929 -0.0112
  654ERGO    R2 9611   7.317   3.277  10.299  0.0414 -0.0251  0.0306
  654ERGO    R3 9612   7.306   3.084  10.108  0.0742  0.0170 -0.0107
  654ERGO    R4 9613   7.332   3.336   9.959 -0.1558  0.0638  0.0378
  654ERGO    R5 9614   7.178   3.184   9.931 -0.0691 -0.0238  0.0735
  654ERGO    C1 9615   7.330   3.189   9.581 -0.2397  0.1550  0.0031
  654ERGO    C2 9616   7.429   3.216   9.172 -0.1616 -0.0369  0.2875
  655ERGO   ROH 9617   0.725   5.649  11.011 -0.3177 -0.0511  0.0788
  655ERGO    R1 9618   0.848   5.589  10.763 -0.2584 -0.2048  0.1438
  655ERGO    R2 9619   0.738   5.413  10.582 -0.4122 -0.0321  0.0634
  655ERGO    R3 9620   0.762   5.623  10.411 -0.0098 -0.0452  0.0967
  655ERGO    R4 9621   0.697   5.395  10.239 -0.2083  0.0587  0.0339
  655ERGO    R5 9622   0.867   5.531  10.217 -0.0055 -0.1695  0.1582
  655ERGO    C1 9623   0.697   5.583   9.879  0.2882  0.0991  0.0479
  655ERGO    C2 9624   0.687   5.648   9.535 -0.1361  0.1157 -0.2597
  656ERGO   ROH 9625   3.804  15.407  11.068  0.0850  0.0563  0.1466
  656ERGO    R1 9626   3.752  15.250  10.838 -0.2408  0.0934  0.1898
  656ERGO    R2 9627   3.535  15.295  10.673 -0.0783  0.5978  0.0937
  656ERGO    R3 9628   3.726  15.307  10.480  0.0380  0.0309  0.1577
  656ERGO    R4 9629   3.475  15.270  10.334  0.0403  0.2703  0.0945
  656ERGO    R5 9630   3.654  15.148  10.316 -0.1520 -0.0608  0.3278
  656ERGO    C1 9631   3.618  15.265   9.955  0.2186 -0.4526  0.1551
  656ERGO    C2 9632   3.568  15.272   9.647  0.2747 -0.3923  0.0181
  657ERGO   ROH 9633   3.624   5.988  10.403 -0.3017  0.1548  0.0479
  657ERGO    R1 9634   3.641   6.085  10.138 -0.2496  0.1836  0.0612
  657ERGO    R2 9635   3.744   5.934   9.931  0.0064  0.2877  0.1066
  657ERGO    R3 9636   3.506   5.992   9.813  0.0122  0.0685 -0.0168
  657ERGO    R4 9637   3.697   5.974   9.591  0.1801  0.4001  0.0948
  657ERGO    R5 9638   3.564   6.141   9.634 -0.0435  0.2248  0.0939
  657ERGO    C1 9639   3.446   6.051   9.282  0.2866  0.2598 -0.0280
  657ERGO    C2 9640   3.495   5.985   8.924  0.1387 -0.0143  0.1057
  658ERGO   ROH 9641   5.620  15.828  10.712  0.0185 -0.2271 -0.0185
  658ERGO    R1 9642   5.588  15.989  10.481  0.2481  0.0465  0.1328
  658ERGO    R2 9643   5.797  16.052  10.313  0.2890 -0.3945  0.0072
  658ERGO    R3 9644   5.634  15.949  10.122 -0.1714  0.1856  0.0571
  658ERGO    R4 9645   5.802  16.142   9.980  0.3395 -0.2372  0.0492
  658ERGO    R5 9646   5.584  16.135   9.980  0.2934  0.4262  0.1866
  658ERGO    C1 9647   5.652  16.098   9.606 -0.0633  0.3991  0.1207
  658ERGO    C2 9648   5.874  16.082   9.359  0.2496  0.0544 -0.0964
  659ERGO   ROH 9649   9.900  13.020  10.783  0.0476  0.3542  0.0247
  659ERGO    R1 9650   9.875  13.131  10.524  0.2679  0.1931 -0.0702
  659ERGO    R2 9651  10.034  13.054  10.312  0.2169 -0.1981  0.0223
  659ERGO    R3 9652   9.795  13.009  10.190  0.1788  0.0418  0.0068
  659ERGO    R4 9653   9.988  13.028   9.970  0.1913 -0.0802  0.0169
  659ERGO    R5 9654   9.804  13.143   9.992  0.2953  0.0766  0.0387
  659ERGO    C1 9655   9.736  12.971   9.658  0.1404  0.2135 -0.0008
  659ERGO    C2 9656   9.616  12.787   9.462 -0.2417  0.0046 -0.3426
  660ERGO   ROH 9657   8.100  17.230   8.689 -0.0331  0.0690  0.1682
  660ERGO    R1 9658   7.868  17.103   8.588  0.0061  0.1026  0.0358
  660ERGO    R2 9659   7.737  16.902   8.724 -0.0291  0.0387 -0.0965
  660ERGO    R3 9660   7.522  17.064   8.693 -0.0285  0.0404 -0.0975
  660ERGO    R4 9661   7.408  16.798   8.738 -0.0290  0.0360 -0.1013
  660ERGO    R5 9662   7.364  16.931   8.571 -0.0269  0.0397 -0.1022
  660ERGO    C1 9663   7.014  16.890   8.716 -0.0284  0.0363 -0.1049
  660ERGO    C2 9664   6.739  16.882   8.977 -0.3312 -0.0926 -0.3124
  661ERGO   ROH 9665   2.475   7.956  10.777 -0.0229 -0.1839  0.0059
  661ERGO    R1 9666   2.497   8.114  10.543  0.1842 -0.2217 -0.0029
  661ERGO    R2 9667   2.669   8.050  10.336  0.0567 -0.4977 -0.0324
  661ERGO    R3 9668   2.443   8.067  10.186  0.0502 -0.1523  0.0085
  661ERGO    R4 9669   2.660   8.043   9.991 -0.0283 -0.6325 -0.0275
  661ERGO    R5 9670   2.507   8.198   9.997  0.2507 -0.3483 -0.0614
  661ERGO    C1 9671   2.443   8.054   9.649 -0.0839 -0.3867  0.0137
  661ERGO    C2 9672   2.353   8.042   9.317 -0.0859 -0.2115 -0.2414
  662ERGO   ROH 9673   2.816   0.569  10.860 -0.0694  0.1429 -0.0169
  662ERGO    R1 9674   2.765   0.426  10.621 -0.0779  0.1502 -0.0194
  662ERGO    R2 9675   2.612   0.529  10.414 -0.0589  0.1699 -0.0247
  662ERGO    R3 9676   2.833   0.470  10.267 -0.0596  0.1448 -0.0160
  662ERGO    R4 9677   2.618   0.502  10.070 -0.0368  0.1942 -0.0266
  662ERGO    R5 9678   2.751   0.331  10.090 -0.0679  0.1726 -0.0319
  662ERGO    C1 9679   2.829   0.431   9.731 -0.0245  0.1848 -0.0195
  662ERGO    C2 9680   2.722   0.438   9.468  0.0307  0.0406 -0.3361
  663ERGO   ROH 9681  10.797  13.467  10.776  0.0541 -0.2415  0.1387
  663ERGO    R1 9682  10.997  13.421  10.580 -0.0631 -0.2238  0.0117
  663ERGO    R2 9683  10.970  13.229  10.381 -0.2533 -0.1117 -0.0755
  663ERGO    R3 9684  11.020  13.440  10.217 -0.2459 -0.0381  0.0041
  663ERGO    R4 9685  11.029  13.206  10.042 -0.0106 -0.0195 -0.0404
  663ERGO    R5 9686  11.184  13.358  10.063 -0.0890  0.0666  0.0991
  663ERGO    C1 9687  11.111  13.390   9.690  0.1377  0.1034  0.0546
  663ERGO    C2 9688  11.152  13.453   9.307 -0.0353 -0.0078 -0.2656
  664ERGO   ROH 9689  15.441  16.795  11.434 -0.2176  0.1127  0.1345
  664ERGO    R1 9690  15.432  16.646  11.194 -0.0243  0.0909  0.1382
  664ERGO    R2 9691  15.219  16.484  11.127  0.1200 -0.0858  0.0773
  664ERGO    R3 9692  15.219  16.632  10.899  0.0762 -0.0920  0.0744
  664ERGO    R4 9693  15.204  16.355  10.807  0.3720 -0.1021  0.0710
  664ERGO    R5 9694  15.350  16.504  10.745  0.2568  0.0293  0.1291
  664ERGO    C1 9695  15.196  16.418  10.406  0.4777 -0.1174  0.0647
  664ERGO    C2 9696  15.238  16.427  10.082  0.1353 -0.1994 -0.2823
  665ERGO   ROH 9697  14.107   7.589  11.032 -0.1700 -0.1138  0.0390
  665ERGO    R1 9698  14.158   7.417  10.812 -0.0491 -0.0748  0.0346
  665ERGO    R2 9699  13.980   7.386  10.603 -0.0107 -0.1639  0.0089
  665ERGO    R3 9700  14.196   7.453  10.452 -0.0293 -0.0318  0.0419
  665ERGO    R4 9701  14.003   7.345  10.261  0.0455 -0.0879  0.0042
  665ERGO    R5 9702  14.209   7.281  10.287  0.0715  0.0081  0.0112
  665ERGO    C1 9703  14.219   7.384   9.920  0.0607  0.0803  0.0326
  665ERGO    C2 9704  14.183   7.351   9.577 -0.2063 -0.2696  0.4380
  666ERGO   ROH 9705  12.240  10.406  10.863 -0.2040  0.1876 -0.1620
  666ERGO    R1 9706  12.328  10.526  10.622  0.0074  0.0404 -0.1599
  666ERGO    R2 9707  12.490  10.393  10.441 -0.1661 -0.2166 -0.1297
  666ERGO    R3 9708  12.293  10.460  10.266 -0.0465  0.0690 -0.1604
  666ERGO    R4 9709  12.524  10.399  10.097 -0.0890 -0.2305 -0.1223
  666ERGO    R5 9710  12.405  10.582  10.093  0.1557 -0.0638 -0.1276
  666ERGO    C1 9711  12.359  10.465   9.733  0.0683  0.0296 -0.1470
  666ERGO    C2 9712  12.462  10.545   9.394 -0.1163  0.1868 -0.0522
  667ERGO   ROH 9713   3.907  16.753  10.895 -0.0776  0.2763  0.0570
  667ERGO    R1 9714   3.783  16.766  10.641 -0.1051 -0.0600  0.0498
  667ERGO    R2 9715   3.861  16.946  10.446 -0.4883  0.0641  0.0038
  667ERGO    R3 9716   3.886  16.722  10.294  0.0018  0.0671  0.0650
  667ERGO    R4 9717   3.885  16.941  10.101 -0.5189  0.0171  0.0018
  667ERGO    R5 9718   3.756  16.766  10.099 -0.1290 -0.2837  0.0661
  667ERGO    C1 9719   3.923  16.728   9.758 -0.0766 -0.0073  0.0581
  667ERGO    C2 9720   3.920  16.982   9.581 -0.1593  0.2079 -0.0055
  668ERGO   ROH 9721   7.885  11.247  10.993  0.3608 -0.1202  0.1909
  668ERGO    R1 9722   8.058  11.151  10.791  0.2263 -0.1370  0.0828
  668ERGO    R2 9723   7.973  10.979  10.592  0.0625 -0.0508  0.0779
  668ERGO    R3 9724   8.076  11.170  10.428  0.0612 -0.0500  0.0778
  668ERGO    R4 9725   8.021  10.942  10.252  0.0664 -0.0553  0.0788
  668ERGO    R5 9726   8.210  11.049  10.272  0.0657 -0.0510  0.0806
  668ERGO    C1 9727   8.145  11.100   9.899  0.0675 -0.0572  0.0791
  668ERGO    C2 9728   8.112  11.198   9.579 -0.1745  0.0648  0.3784
  669ERGO   ROH 9729   5.261   5.801  10.619 -0.1418  0.3356  0.1434
  669ERGO    R1 9730   5.308   5.675  10.370  0.0140  0.2752  0.2022
  669ERGO    R2 9731   5.110   5.641  10.180  0.0946  0.0893  0.1489
  669ERGO    R3 9732   5.288   5.768  10.018  0.0708  0.1391  0.1623
  669ERGO    R4 9733   5.100   5.640   9.834  0.1630  0.0217  0.1472
  669ERGO    R5 9734   5.317   5.620   9.833  0.1730  0.1173  0.1946
  669ERGO    C1 9735   5.261   5.759   9.482  0.1804  0.0291  0.1588
  669ERGO    C2 9736   5.354   5.596   9.151  0.0291 -0.2099  0.0682
  670ERGO   ROH 9737  10.170  11.108  10.975  0.0355  0.2426  0.1461
  670ERGO    R1 9738  10.116  11.033  10.708  0.1503  0.1859  0.1389
  670ERGO    R2 9739   9.999  11.205  10.525  0.0876  0.0957  0.0983
  670ERGO    R3 9740  10.218  11.143  10.376  0.1633  0.2218  0.1538
  670ERGO    R4 9741  10.020  11.239  10.182  0.1137  0.0084  0.0904
  670ERGO    R5 9742  10.128  11.049  10.175  0.2664  0.0875  0.1660
  670ERGO    C1 9743  10.237  11.200   9.842  0.1999  0.0759  0.1379
  670ERGO    C2 9744  10.259  11.263   9.573  0.1536 -0.0297 -0.1168
  671ERGO   ROH 9745   8.591  10.328  11.031  0.2427 -0.0191  0.0645
  671ERGO    R1 9746   8.617  10.175  10.794  0.2479  0.0196  0.0405
  671ERGO    R2 9747   8.399  10.076  10.655  0.2565 -0.2128  0.1876
  671ERGO    R3 9748   8.515  10.206  10.446 -0.0269 -0.0746  0.1104
  671ERGO    R4 9749   8.333  10.014  10.321  0.1355 -0.3039  0.2272
  671ERGO    R5 9750   8.545  10.037  10.280  0.0844 -0.0428  0.0991
  671ERGO    C1 9751   8.403  10.100   9.931 -0.2010 -0.2272  0.1777
  671ERGO    C2 9752   8.489  10.001   9.631 -0.0147 -0.1705 -0.2989
  672ERGO   ROH 9753   3.606   5.064  10.735  0.1055 -0.2229  0.0302
  672ERGO    R1 9754   3.538   4.936  10.492 -0.0992 -0.0990  0.0185
  672ERGO    R2 9755   3.345   5.034  10.320 -0.0259  0.1640  0.0764
  672ERGO    R3 9756   3.545   5.020  10.138 -0.0765 -0.0365  0.0346
  672ERGO    R4 9757   3.304   4.947   9.988 -0.1408 -0.0096  0.1345
  672ERGO    R5 9758   3.489   4.832  10.001 -0.1947 -0.0876  0.1557
  672ERGO    C1 9759   3.470   4.884   9.623 -0.2552 -0.2989  0.1292
  672ERGO    C2 9760   3.349   5.062   9.342  0.2344  0.0134  0.2896
  673ERGO   ROH 9761   8.948   2.553  10.719 -0.0370 -0.0390  0.0775
  673ERGO    R1 9762   8.872   2.719  10.503 -0.1346 -0.1136  0.0512
  673ERGO    R2 9763   9.054   2.873  10.364 -0.2581  0.2100  0.2178
  673ERGO    R3 9764   8.951   2.744  10.148  0.1110  0.0705  0.1183
  673ERGO    R4 9765   8.994   3.019  10.056 -0.5129  0.2163  0.2699
  673ERGO    R5 9766   8.808   2.906  10.045 -0.2437 -0.2176  0.1546
  673ERGO    C1 9767   8.862   2.983   9.675 -0.3148  0.0890  0.2068
  673ERGO    C2 9768   8.959   3.110   9.456 -0.2098 -0.1988 -0.2014
  674ERGO   ROH 9769  10.943   7.599  10.756  0.1262 -0.4389 -0.0296
  674ERGO    R1 9770  11.076   7.560  10.509 -0.0781 -0.4132 -0.1455
  674ERGO    R2 9771  10.975   7.398  10.309 -0.4473 -0.0719 -0.2423
  674ERGO    R3 9772  11.005   7.622  10.158 -0.1937  0.0287 -0.0527
  674ERGO    R4 9773  11.026   7.400   9.967 -0.3397  0.1503 -0.2274
  674ERGO    R5 9774  11.170   7.562   9.995 -0.1936  0.0031 -0.0492
  674ERGO    C1 9775  11.084   7.611   9.626 -0.0390  0.3742 -0.0406
  674ERGO    C2 9776  11.157   7.510   9.277 -0.3134  0.0853 -0.0724
  675loPI    C1 9777   3.443  14.425   5.571  0.0735  0.2002  0.1651
  675loPI    C2 9778   3.769  14.558   5.381  0.1101  0.0596  0.1286
  675loPI    C3 9779   3.405  14.645   5.239  0.1351  0.0610  0.0651
  675loPI   PO4 9780   3.539  14.521   5.806  0.2156 -0.2855  0.1277
  675loPI   GL1 9781   3.531  14.485   6.234  0.0182 -0.2251 -0.1444
  675loPI   GL2 9782   3.191  14.340   6.304 -0.0039  0.1589  0.0922
  675loPI   C1A 9783   3.606  14.683   6.695  0.0286  0.0471 -0.0658
  675loPI   C2A 9784   3.676  14.718   7.085  0.1146 -0.1602 -0.0255
  675loPI   C3A 9785   3.703  14.742   7.543  0.0532  0.1085  0.0628
  675loPI   C4A 9786   3.727  14.743   8.040  0.1564 -0.1333  0.1848
  675loPI   C5A 9787   3.458  14.543   8.415 -0.4672 -0.0127  0.2002
  675loPI   C6A 9788   3.265  14.466   8.823  0.4125 -0.1563  0.1353
  675loPI   C1B 9789   3.181  14.378   6.767 -0.0359 -0.0245 -0.3166
  675loPI   C2B 9790   3.232  14.487   7.135 -0.1132  0.1107 -0.3039
  675loPI   C3B 9791   3.329  14.482   7.478  0.3083 -0.0485  0.0253
  675loPI   C4B 9792   3.260  14.507   7.921 -0.0335  0.1589  0.0192
  676loPI    C1 9793   1.312   8.623   6.159  0.1727 -0.1500  0.0846
  676loPI    C2 9794   1.559   8.689   5.852  0.0125  0.0578 -0.0018
  676loPI    C3 9795   1.170   8.775   5.818 -0.0276 -0.0298  0.2194
  676loPI   PO4 9796   1.392   8.690   6.496 -0.0036 -0.1228  0.0483
  676loPI   GL1 9797   1.139   8.737   6.756  0.2452 -0.0609  0.2075
  676loPI   GL2 9798   0.934   8.720   7.007 -0.1858 -0.1824  0.2242
  676loPI   C1A 9799   1.393   8.649   7.188  0.3635 -0.0889  0.0988
  676loPI   C2A 9800   1.444   8.591   7.658 -0.0544 -0.0820  0.2235
  676loPI   C3A 9801   1.435   8.472   8.026 -0.1642 -0.1988  0.0411
  676loPI   C4A 9802   1.516   8.463   8.454  0.0765  0.2682 -0.2905
  676loPI   C5A 9803   1.223   8.293   8.767 -0.0318  0.4506  0.3439
  676loPI   C6A 9804   1.059   8.518   9.133  0.1590 -0.2771  0.1573
  676loPI   C1B 9805   0.899   8.650   7.463  0.0158 -0.0384 -0.0646
  676loPI   C2B 9806   0.999   8.693   7.854 -0.0114  0.1355  0.0035
  676loPI   C3B 9807   1.010   8.643   8.272  0.0234  0.1725 -0.0128
  676loPI   C4B 9808   0.840   8.673   8.675 -0.1628 -0.0831  0.0558
  677loPI    C1 9809   6.217  16.681   5.912  0.0133 -0.1942 -0.1094
  677loPI    C2 9810   6.571  16.661   5.725  0.1261 -0.0786  0.0886
  677loPI    C3 9811   6.362  17.003   5.724  0.0505 -0.1246  0.0376
  677loPI   PO4 9812   6.238  16.552   6.182  0.0548  0.1995  0.0214
  677loPI   GL1 9813   6.398  16.695   6.593  0.2120 -0.1127 -0.0930
  677loPI   GL2 9814   6.146  16.770   6.673  0.0615  0.0509 -0.1261
  677loPI   C1A 9815   6.536  16.527   6.963  0.1161  0.1105  0.3116
  677loPI   C2A 9816   6.555  16.585   7.323  0.0457  0.0304  0.2991
  677loPI   C3A 9817   6.562  16.668   7.674 -0.0742 -0.0090  0.3141
  677loPI   C4A 9818   6.538  16.798   8.018  0.3105  0.0590  0.1140
  677loPI   C5A 9819   6.584  16.706   8.519 -0.0246  0.0498 -0.0229
  677loPI   C6A 9820   6.816  16.402   8.736 -0.0165 -0.0198 -0.2375
  677loPI   C1B 9821   6.099  16.764   7.053  0.1584  0.0516  0.0196
  677loPI   C2B 9822   6.200  16.962   7.390  0.0125 -0.2298 -0.0497
  677loPI   C3B 9823   6.096  16.945   7.778  0.1018  0.2339  0.0148
  677loPI   C4B 9824   5.953  17.164   8.170 -0.1753  0.2089 -0.2198
  678loPI    C1 9825  15.256  11.966   6.235 -0.1904 -0.0413 -0.2294
  678loPI    C2 9826  15.396  12.260   6.002 -0.1701  0.1243 -0.0118
  678loPI    C3 9827  15.554  11.894   5.979 -0.0655  0.1774 -0.1488
  678loPI   PO4 9828  15.269  12.043   6.449  0.0210 -0.0240 -0.0710
  678loPI   GL1 9829  15.293  11.899   6.819 -0.1142 -0.1833  0.0549
  678loPI   GL2 9830  15.226  11.559   6.962 -0.0815 -0.1810  0.2707
  678loPI   C1A 9831  15.427  12.068   7.282  0.0878 -0.2251  0.1787
  678loPI   C2A 9832  15.509  12.065   7.699  0.1749  0.2191 -0.0640
  678loPI   C3A 9833  15.537  11.987   8.120  0.3341  0.1272  0.0999
  678loPI   C4A 9834  15.499  11.776   8.590 -0.2489  0.1446  0.1585
  678loPI   C5A 9835  15.853  11.596   8.794 -0.0780  0.1212  0.0068
  678loPI   C6A 9836  16.131  11.727   9.040  0.3097  0.3422  0.1116
  678loPI   C1B 9837  15.317  11.582   7.489 -0.1152 -0.0053  0.0865
  678loPI   C2B 9838  15.219  11.567   7.896 -0.0296 -0.3002 -0.1591
  678loPI   C3B 9839  15.141  11.551   8.329 -0.1010 -0.1871 -0.1034
  678loPI   C4B 9840  14.910  11.386   8.806  0.0505  0.3933  0.1552
  679loPI    C1 9841  13.416   2.424   6.013 -0.2105 -0.3071 -0.0893
  679loPI    C2 9842  13.117   2.520   5.765 -0.0868  0.0957 -0.0900
  679loPI    C3 9843  13.438   2.757   5.792  0.0737 -0.1453  0.1743
  679loPI   PO4 9844  13.309   2.387   6.271  0.1933  0.3288  0.1713
  679loPI   GL1 9845  13.336   2.509   6.639 -0.0374 -0.1746  0.1935
  679loPI   GL2 9846  13.002   2.491   6.664  0.2183 -0.2094 -0.2394
  679loPI   C1A 9847  13.398   2.589   6.965  0.1259 -0.0648  0.0163
  679loPI   C2A 9848  13.268   2.562   7.332 -0.1159 -0.0127  0.0428
  679loPI   C3A 9849  13.223   2.506   7.786 -0.0246 -0.1404 -0.1653
  679loPI   C4A 9850  13.334   2.505   8.240  0.1523 -0.2952  0.1498
  679loPI   C5A 9851  13.562   2.461   8.583  0.3189  0.2915  0.2182
  679loPI   C6A 9852  13.803   2.464   8.938  0.1321 -0.0665  0.2411
  679loPI   C1B 9853  12.882   2.605   7.037 -0.0106 -0.1461 -0.2375
  679loPI   C2B 9854  12.755   2.701   7.368  0.0391 -0.2143  0.0599
  679loPI   C3B 9855  12.739   2.524   7.779  0.0009  0.1126 -0.1052
  679loPI   C4B 9856  12.694   2.503   8.223  0.0507  0.2242  0.3014
  680loPI    C1 9857  12.301  13.262   5.875 -0.0523 -0.0503  0.0030
  680loPI    C2 9858  12.596  13.376   5.630 -0.0133 -0.2452 -0.0421
  680loPI    C3 9859  12.352  13.077   5.524 -0.2302 -0.0834 -0.0063
  680loPI   PO4 9860  12.429  13.287   6.149 -0.1560 -0.1482  0.1830
  680loPI   GL1 9861  12.400  13.402   6.483  0.1161  0.0898  0.0241
  680loPI   GL2 9862  12.164  13.150   6.549 -0.1497  0.2783  0.0455
  680loPI   C1A 9863  12.578  13.437   6.815 -0.0619  0.1417  0.0785
  680loPI   C2A 9864  12.519  13.443   7.215  0.6035  0.3615 -0.0073
  680loPI   C3A 9865  12.465  13.445   7.663  0.1212 -0.0489 -0.0565
  680loPI   C4A 9866  12.442  13.409   8.148 -0.1494 -0.0184 -0.2712
  680loPI   C5A 9867  12.417  13.220   8.565  0.0264  0.1612  0.0450
  680loPI   C6A 9868  12.195  13.228   8.902  0.1523  0.2598  0.1846
  680loPI   C1B 9869  12.210  13.014   6.979 -0.2000 -0.1795 -0.0612
  680loPI   C2B 9870  12.115  13.031   7.453  0.0199 -0.0014 -0.0148
  680loPI   C3B 9871  12.161  13.086   7.891  0.2959 -0.1385  0.1037
  680loPI   C4B 9872  12.070  12.931   8.262 -0.3853  0.3423 -0.1987
  681loPI    C1 9873  17.102   6.687   5.933 -0.1001 -0.0917 -0.0353
  681loPI    C2 9874  16.917   6.999   5.765  0.1709  0.0331 -0.1090
  681loPI    C3 9875  16.879   6.634   5.606 -0.2076  0.0114  0.0204
  681loPI   PO4 9876  17.052   6.777   6.202 -0.0073  0.0960 -0.0319
  681loPI   GL1 9877  17.154   6.898   6.630 -0.0676  0.1343 -0.3627
  681loPI   GL2 9878  16.841   6.993   6.673  0.1947  0.0386  0.3659
  681loPI   C1A 9879  17.461   7.003   6.973 -0.1248  0.0236  0.0637
  681loPI   C2A 9880  17.716   6.937   7.334  0.0313  0.0873  0.1842
  681loPI   C3A 9881  17.881   6.924   7.689 -0.1780 -0.2384 -0.2178
  681loPI   C4A 9882  17.800   6.793   8.114 -0.0121 -0.2848 -0.0870
  681loPI   C5A 9883  17.359   6.837   8.440 -0.1340  0.1254  0.0636
  681loPI   C6A 9884  17.035   6.860   8.795  0.0489 -0.0564  0.0040
  681loPI   C1B 9885  16.828   7.014   7.028 -0.0766 -0.0137  0.2366
  681loPI   C2B 9886  16.834   7.158   7.457  0.1511 -0.0944  0.1601
  681loPI   C3B 9887  16.999   6.987   7.751  0.2300  0.5597 -0.1334
  681loPI   C4B 9888  17.392   6.990   7.885  0.0239  0.2716  0.1732
  682loPI    C1 9889   6.902   9.245   5.789 -0.3388 -0.1274 -0.2592
  682loPI    C2 9890   6.804   8.861   5.841  0.0390 -0.1869  0.0660
  682loPI    C3 9891   6.955   8.983   5.491 -0.3472 -0.2714 -0.1354
  682loPI   PO4 9892   6.974   9.317   6.016  0.1939  0.0316 -0.2804
  682loPI   GL1 9893   7.304   9.428   6.381 -0.1010  0.1278  0.1428
  682loPI   GL2 9894   7.396   9.657   6.477  0.2857  0.1567 -0.3103
  682loPI   C1A 9895   7.264   9.274   6.810 -0.0192  0.0552  0.0629
  682loPI   C2A 9896   7.236   9.242   7.324  0.1668  0.0843  0.1661
  682loPI   C3A 9897   7.287   9.303   7.695  0.2769 -0.1368 -0.0042
  682loPI   C4A 9898   7.332   9.368   8.126 -0.2396  0.4779  0.1659
  682loPI   C5A 9899   7.199   9.323   8.534  0.0394 -0.3083 -0.3899
  682loPI   C6A 9900   7.265   9.444   8.983  0.2837 -0.0393  0.0373
  682loPI   C1B 9901   7.651   9.602   6.858  0.0442  0.0749  0.4269
  682loPI   C2B 9902   7.564   9.604   7.297  0.0907  0.1233  0.0867
  682loPI   C3B 9903   7.596   9.722   7.764  0.1238  0.0587  0.2810
  682loPI   C4B 9904   7.614   9.772   8.201  0.2454 -0.0994 -0.3636
  683loPI    C1 9905   6.010  15.558   5.871 -0.0243  0.2991 -0.0657
  683loPI    C2 9906   6.274  15.310   6.042 -0.1951  0.0827 -0.1111
  683loPI    C3 9907   6.399  15.654   5.880  0.0607 -0.0234 -0.1438
  683loPI   PO4 9908   5.868  15.585   6.082 -0.1512 -0.1020 -0.2596
  683loPI   GL1 9909   5.823  15.679   6.432  0.2155 -0.2490 -0.0171
  683loPI   GL2 9910   5.557  15.555   6.664 -0.0489  0.1087  0.4501
  683loPI   C1A 9911   6.003  15.790   6.802 -0.0948 -0.4631  0.0765
  683loPI   C2A 9912   5.951  15.872   7.273  0.0088  0.3060 -0.0985
  683loPI   C3A 9913   6.060  15.941   7.759  0.0855  0.0864  0.1166
  683loPI   C4A 9914   6.226  16.015   8.102  0.0347  0.1019  0.0268
  683loPI   C5A 9915   6.535  15.806   8.242  0.1685  0.1586 -0.1700
  683loPI   C6A 9916   6.830  15.574   8.359  0.1683  0.1136  0.1886
  683loPI   C1B 9917   5.579  15.592   7.106  0.1785  0.2769 -0.0189
  683loPI   C2B 9918   5.528  15.638   7.583  0.0522 -0.0357 -0.0460
  683loPI   C3B 9919   5.644  15.768   7.993  0.0651 -0.2436 -0.0370
  683loPI   C4B 9920   5.602  15.508   8.364  0.0029 -0.1595 -0.2145
  684loPI    C1 9921  10.050  16.006   6.081 -0.1636  0.0426 -0.1816
  684loPI    C2 9922   9.971  16.364   6.242  0.0784  0.0646 -0.1090
  684loPI    C3 9923   9.969  16.319   5.845 -0.2596  0.0719 -0.1106
  684loPI   PO4 9924   9.966  15.880   6.307 -0.1694 -0.1846  0.2668
  684loPI   GL1 9925   9.841  16.093   6.660  0.2580  0.0578 -0.0154
  684loPI   GL2 9926  10.166  16.290   6.756  0.3581  0.1188  0.1224
  684loPI   C1A 9927   9.738  16.062   7.062 -0.1047 -0.0272 -0.0354
  684loPI   C2A 9928   9.781  16.146   7.514 -0.3002 -0.0486  0.0235
  684loPI   C3A 9929   9.805  16.250   7.895 -0.1143  0.0069 -0.0728
  684loPI   C4A 9930   9.743  16.400   8.314  0.3947  0.0957  0.0383
  684loPI   C5A 9931   9.922  16.538   8.745 -0.0960 -0.0202 -0.0434
  684loPI   C6A 9932   9.908  16.392   9.163 -0.0164  0.0346 -0.0184
  684loPI   C1B 9933  10.195  16.266   7.207 -0.1353 -0.1201 -0.0057
  684loPI   C2B 9934  10.300  16.342   7.559  0.1045  0.1928 -0.1188
  684loPI   C3B 9935  10.282  16.454   7.953 -0.1713  0.1713  0.1034
  684loPI   C4B 9936  10.180  16.609   8.348  0.3444  0.0879 -0.1098
  685loPI    C1 9937  12.782   6.132   5.912 -0.0448  0.0306  0.0582
  685loPI    C2 9938  12.901   5.757   5.980 -0.1837 -0.0215  0.0175
  685loPI    C3 9939  12.771   5.863   5.617  0.0329  0.1147 -0.0220
  685loPI   PO4 9940  12.954   6.314   6.109  0.0027 -0.4314 -0.1419
  685loPI   GL1 9941  12.942   6.380   6.564  0.2834 -0.1334  0.0572
  685loPI   GL2 9942  13.301   6.413   6.471  0.1612  0.0421 -0.0573
  685loPI   C1A 9943  12.975   6.259   7.064 -0.0492  0.0508  0.2046
  685loPI   C2A 9944  12.940   6.346   7.497 -0.1895 -0.0015  0.3287
  685loPI   C3A 9945  12.887   6.201   7.897 -0.3666 -0.1913 -0.1250
  685loPI   C4A 9946  12.823   6.212   8.311 -0.0905  0.1348  0.0871
  685loPI   C5A 9947  13.125   6.222   8.675  0.1413 -0.0705 -0.0466
  685loPI   C6A 9948  13.334   6.179   9.082 -0.0808  0.1991 -0.1042
  685loPI   C1B 9949  13.505   6.309   6.875  0.2669 -0.2397  0.2414
  685loPI   C2B 9950  13.461   6.233   7.262  0.0222  0.1142 -0.2050
  685loPI   C3B 9951  13.389   6.194   7.654 -0.0594  0.4140 -0.0693
  685loPI   C4B 9952  13.438   6.103   8.109  0.0136  0.3836 -0.1554
  686loPI    C1 9953   5.734  10.956   6.176  0.1441 -0.1856 -0.0098
  686loPI    C2 9954   5.660  11.183   5.856  0.1179  0.0032  0.1286
  686loPI    C3 9955   5.457  10.843   5.911 -0.0258  0.0754  0.0522
  686loPI   PO4 9956   5.755  11.075   6.378 -0.3573  0.2592  0.2973
  686loPI   GL1 9957   5.547  11.196   6.691 -0.1241 -0.2390  0.1314
  686loPI   GL2 9958   5.157  11.186   6.801  0.0449 -0.0929  0.3503
  686loPI   C1A 9959   5.697  11.214   7.002 -0.0839  0.0862 -0.0842
  686loPI   C2A 9960   5.789  11.340   7.470  0.4934  0.0698  0.2048
  686loPI   C3A 9961   5.782  11.327   7.900 -0.3666  0.0901 -0.0984
  686loPI   C4A 9962   5.745  11.171   8.305  0.0912 -0.2253  0.0173
  686loPI   C5A 9963   5.846  11.205   8.821  0.0046  0.1930 -0.1735
  686loPI   C6A 9964   5.938  11.101   9.238  0.1725  0.2502 -0.0729
  686loPI   C1B 9965   5.225  11.261   7.328 -0.1399 -0.2702 -0.1530
  686loPI   C2B 9966   5.330  11.580   7.665 -0.0296 -0.1922  0.2443
  686loPI   C3B 9967   5.368  11.572   8.090  0.2241  0.1518  0.0162
  686loPI   C4B 9968   5.562  11.599   8.473 -0.1547  0.2540  0.1935
  687loPI    C1 9969  13.676   3.357   5.622 -0.2303  0.0775 -0.0427
  687loPI    C2 9970  13.982   3.099   5.625  0.1378  0.5006 -0.1224
  687loPI    C3 9971  13.639   3.001   5.445  0.2118  0.0085 -0.0087
  687loPI   PO4 9972  13.669   3.454   5.960 -0.0983 -0.2761  0.1059
  687loPI   GL1 9973  13.761   3.406   6.354 -0.2287 -0.1378  0.1356
  687loPI   GL2 9974  13.423   3.350   6.391  0.1273 -0.2465  0.2865
  687loPI   C1A 9975  13.997   3.271   6.716  0.0025 -0.1823 -0.2234
  687loPI   C2A 9976  14.011   3.254   7.194 -0.2329 -0.0066 -0.0017
  687loPI   C3A 9977  14.083   3.293   7.674  0.3503 -0.0819 -0.0438
  687loPI   C4A 9978  14.069   3.250   8.116  0.0664 -0.1809 -0.3961
  687loPI   C5A 9979  14.215   3.119   8.468  0.0809  0.1697 -0.1372
  687loPI   C6A 9980  14.458   3.166   8.738  0.1541 -0.0878 -0.2133
  687loPI   C1B 9981  13.504   3.307   6.903  0.1250 -0.2201 -0.2490
  687loPI   C2B 9982  13.477   3.408   7.319  0.0079  0.0771  0.1417
  687loPI   C3B 9983  13.459   3.404   7.752  0.1901 -0.0672  0.0895
  687loPI   C4B 9984  13.446   3.389   8.180 -0.0311 -0.1151  0.0123
  688loPI    C1 9985   4.421  11.487   5.807  0.1702  0.1162  0.0836
  688loPI    C2 9986   4.135  11.620   5.561 -0.0412  0.1089  0.3212
  688loPI    C3 9987   4.335  11.284   5.472 -0.1418  0.0854  0.1796
  688loPI   PO4 9988   4.282  11.553   6.044 -0.0443  0.0151 -0.1912
  688loPI   GL1 9989   4.458  11.533   6.492 -0.2130 -0.0360 -0.2251
  688loPI   GL2 9990   4.783  11.708   6.614 -0.1785 -0.1932  0.0705
  688loPI   C1A 9991   4.375  11.498   6.906  0.2543  0.4052  0.1718
  688loPI   C2A 9992   4.317  11.332   7.325 -0.0868 -0.0244  0.2121
  688loPI   C3A 9993   4.304  11.258   7.653 -0.0919 -0.3787 -0.1566
  688loPI   C4A 9994   4.264  11.238   8.201 -0.1377  0.0010 -0.0584
  688loPI   C5A 9995   4.400  11.520   8.526 -0.0083 -0.2532  0.1613
  688loPI   C6A 9996   4.536  11.869   8.686  0.1546 -0.2071  0.0723
  688loPI   C1B 9997   4.959  11.711   6.985  0.1956  0.1133 -0.2445
  688loPI   C2B 9998   4.966  11.809   7.413 -0.0969 -0.0815  0.2264
  688loPI   C3B 9999   5.048  11.894   7.899 -0.0932  0.3516  0.2569
  688loPI   C4B10000   5.001  11.957   8.277 -0.0934  0.5944  0.3200
  689loPI    C110001  13.510  11.969   6.154 -0.0148  0.0901 -0.1875
  689loPI    C210002  13.745  12.292   6.174 -0.2050  0.2099  0.2059
  689loPI    C310003  13.399  12.309   5.974 -0.0534  0.1418 -0.0668
  689loPI   PO410004  13.475  11.876   6.436  0.2009 -0.0469 -0.2440
  689loPI   GL110005  13.604  11.649   6.755 -0.3231 -0.2038 -0.0015
  689loPI   GL210006  13.218  11.536   6.707  0.1014  0.0859  0.1032
  689loPI   C1A10007  13.534  11.711   7.161  0.2818  0.2112 -0.0444
  689loPI   C2A10008  13.542  11.729   7.643  0.0759  0.5911  0.0589
  689loPI   C3A10009  13.564  11.750   8.047  0.5324 -0.1606 -0.0796
  689loPI   C4A10010  13.555  11.641   8.408  0.0138  0.1932 -0.2099
  689loPI   C5A10011  13.630  11.436   8.797  0.2523 -0.1003  0.1845
  689loPI   C6A10012  13.567  11.107   8.955 -0.0640 -0.0586  0.4533
  689loPI   C1B10013  13.165  11.318   7.066  0.1351  0.1803 -0.1045
  689loPI   C2B10014  13.320  11.297   7.515 -0.3137  0.0586 -0.1641
  689loPI   C3B10015  13.301  11.331   7.971 -0.1589 -0.3184 -0.0916
  689loPI   C4B10016  13.282  11.142   8.414 -0.0605 -0.1882 -0.0198
  690loPI    C110017   0.924   3.829   5.972 -0.2385 -0.0251  0.1142
  690loPI    C210018   1.141   3.515   5.853 -0.1684  0.0547  0.0289
  690loPI    C310019   1.061   3.811   5.596  0.1016  0.2961  0.2159
  690loPI   PO410020   1.013   3.861   6.228 -0.4195 -0.0383  0.1856
  690loPI   GL110021   0.806   3.832   6.634  0.1177  0.3601 -0.0382
  690loPI   GL210022   0.978   3.532   6.675  0.0266  0.1543  0.0790
  690loPI   C1A10023   0.662   4.089   6.887  0.0950 -0.0980  0.0216
  690loPI   C2A10024   0.775   4.033   7.337  0.0283  0.1102 -0.0054
  690loPI   C3A10025   0.664   4.021   7.812 -0.1750  0.0104 -0.0835
  690loPI   C4A10026   0.706   4.136   8.142  0.0404  0.3794  0.1489
  690loPI   C5A10027   0.887   4.079   8.521  0.2787  0.0146 -0.1385
  690loPI   C6A10028   1.228   4.199   8.741  0.0996 -0.2632 -0.0652
  690loPI   C1B10029   0.965   3.605   7.116 -0.1485 -0.1713  0.2795
  690loPI   C2B10030   0.906   3.551   7.600 -0.0300 -0.2890 -0.2372
  690loPI   C3B10031   0.901   3.561   8.014  0.3468 -0.2996  0.0168
  690loPI   C4B10032   0.991   3.549   8.372  0.0220 -0.0196  0.1541
  691loPI    C110033  11.771   4.550   5.347 -0.1469  0.2932 -0.0184
  691loPI    C210034  12.113   4.444   5.527 -0.0966  0.0723 -0.2387
  691loPI    C310035  12.123   4.637   5.177 -0.1973  0.1697 -0.1884
  691loPI   PO410036  11.667   4.670   5.583 -0.0437 -0.0505 -0.0643
  691loPI   GL110037  11.785   4.909   5.961  0.0122  0.0855  0.1841
  691loPI   GL210038  11.872   4.679   6.088  0.0198 -0.2489  0.2244
  691loPI   C1A10039  11.957   5.127   6.373 -0.0187  0.1010 -0.1140
  691loPI   C2A10040  11.903   5.151   6.821 -0.3250  0.0016  0.3618
  691loPI   C3A10041  11.935   5.094   7.214  0.0758 -0.3055  0.1710
  691loPI   C4A10042  11.994   5.029   7.701  0.1246  0.0670  0.2548
  691loPI   C5A10043  11.971   4.941   8.100 -0.0689  0.1104 -0.1486
  691loPI   C6A10044  12.063   4.478   8.352 -0.1031  0.2100  0.0291
  691loPI   C1B10045  11.871   4.327   6.466  0.1544 -0.3006  0.1316
  691loPI   C2B10046  11.754   4.165   6.884 -0.0845  0.1253 -0.1015
  691loPI   C3B10047  11.804   4.141   7.290 -0.2244  0.0971  0.0123
  691loPI   C4B10048  11.853   4.193   7.732 -0.2611  0.0998 -0.1887
  692loPI    C110049   4.064  15.119   5.850  0.0300  0.1401 -0.0571
  692loPI    C210050   3.976  14.729   5.877 -0.1032  0.1855  0.1974
  692loPI    C310051   4.224  14.860   5.591 -0.2092 -0.0588 -0.0092
  692loPI   PO410052   4.011  15.173   6.180  0.2579  0.0505 -0.0266
  692loPI   GL110053   4.334  15.294   6.456  0.0721  0.1225 -0.0994
  692loPI   GL210054   4.666  15.123   6.448  0.0234 -0.1029 -0.0961
  692loPI   C1A10055   4.150  15.428   6.840 -0.0296  0.0552 -0.0967
  692loPI   C2A10056   4.150  15.512   7.178 -0.2845 -0.0037 -0.0917
  692loPI   C3A10057   4.232  15.509   7.571 -0.1420 -0.0788  0.2569
  692loPI   C4A10058   4.254  15.500   7.980  0.3034 -0.0095  0.1454
  692loPI   C5A10059   4.287  15.547   8.342 -0.2897 -0.1179  0.1932
  692loPI   C6A10060   4.174  15.888   8.596 -0.3723  0.3351  0.1394
  692loPI   C1B10061   4.576  15.182   6.971  0.1627 -0.1777  0.2062
  692loPI   C2B10062   4.636  15.264   7.413  0.0488  0.0176 -0.3541
  692loPI   C3B10063   4.702  15.193   7.802  0.1047 -0.4480  0.1171
  692loPI   C4B10064   4.637  15.187   8.222  0.1419 -0.0617 -0.0902
  693loPI    C110065  15.266  16.737   6.133 -0.1319  0.0180 -0.2091
  693loPI    C210066  15.184  17.010   5.853 -0.1083  0.1131 -0.1241
  693loPI    C310067  15.006  16.652   5.841 -0.1209  0.1228 -0.2500
  693loPI   PO410068  15.205  16.858   6.347  0.2013  0.2405  0.1386
  693loPI   GL110069  14.994  16.631   6.600 -0.3044 -0.2311  0.2080
  693loPI   GL210070  15.017  16.342   6.740  0.0771 -0.0677 -0.1874
  693loPI   C1A10071  15.014  16.784   7.045  0.1466  0.2119  0.2194
  693loPI   C2A10072  14.915  16.703   7.471 -0.4141 -0.2092 -0.1286
  693loPI   C3A10073  14.936  16.764   7.927  0.0909 -0.1729 -0.4817
  693loPI   C4A10074  14.988  16.781   8.353 -0.2566  0.0271 -0.0683
  693loPI   C5A10075  14.995  16.841   8.868  0.0311  0.1346 -0.1868
  693loPI   C6A10076  14.857  16.757   9.272  0.1374  0.2276  0.0989
  693loPI   C1B10077  15.133  16.275   7.172 -0.1267  0.0327 -0.0526
  693loPI   C2B10078  15.167  16.217   7.588  0.0898 -0.6100 -0.1580
  693loPI   C3B10079  15.214  16.202   8.009 -0.0985 -0.1332 -0.1573
  693loPI   C4B10080  15.468  16.248   8.425  0.2634 -0.1494 -0.1710
  694loPI    C110081   9.062   0.291   5.909  0.0843  0.1329  0.0396
  694loPI    C210082   9.437   0.208   6.020  0.1139 -0.1257 -0.2396
  694loPI    C310083   9.349   0.248   5.632 -0.1249  0.0570 -0.1686
  694loPI   PO410084   8.890   0.150   6.133  0.2260 -0.2398  0.4233
  694loPI   GL110085   9.097   0.050   6.534 -0.0963  0.0619  0.0830
  694loPI   GL210086   9.320   0.223   6.540 -0.1550 -0.1522 -0.0407
  694loPI   C1A10087   8.916  -0.108   6.933  0.0893  0.0520 -0.0344
  694loPI   C2A10088   8.907  -0.080   7.402 -0.0746  0.0114 -0.1144
  694loPI   C3A10089   8.996  -0.006   7.776  0.0585 -0.4627  0.0961
  694loPI   C4A10090   9.029   0.148   8.231  0.0229 -0.1421 -0.0393
  694loPI   C5A10091   9.122   0.313   8.587 -0.2137 -0.2241  0.0796
  694loPI   C6A10092   9.085   0.421   8.993  0.1146  0.3076  0.0455
  694loPI   C1B10093   9.341   0.056   6.980 -0.0719 -0.4605 -0.3218
  694loPI   C2B10094   9.445   0.196   7.377 -0.1845  0.1436 -0.3096
  694loPI   C3B10095   9.732   0.466   7.611  0.2213 -0.1713 -0.0146
  694loPI   C4B10096   9.804   0.497   8.106  0.3663  0.1990  0.1984
  695loPI    C110097  16.664   8.590   6.041 -0.0628  0.0586 -0.1493
  695loPI    C210098  16.392   8.654   5.754 -0.1466 -0.0178 -0.0875
  695loPI    C310099  16.739   8.477   5.665 -0.1964 -0.0944 -0.1314
  695loPI   PO410100  16.612   8.490   6.270  0.2184 -0.1906 -0.2345
  695loPI   GL110101  16.331   8.707   6.575  0.0111  0.3799 -0.2525
  695loPI   GL210102  16.284   8.648   6.866 -0.1400 -0.1291 -0.0195
  695loPI   C1A10103  16.598   9.015   6.851 -0.1327  0.2082 -0.0196
  695loPI   C2A10104  16.750   9.042   7.249  0.2848 -0.2910 -0.0523
  695loPI   C3A10105  16.664   8.908   7.641 -0.0316 -0.1953  0.3010
  695loPI   C4A10106  16.714   8.939   8.093 -0.2298 -0.2413 -0.1882
  695loPI   C5A10107  16.744   8.754   8.462  0.2877 -0.0777  0.1149
  695loPI   C6A10108  16.744   8.466   8.841  0.0669  0.0156 -0.1185
  695loPI   C1B10109  16.395   8.610   7.226  0.2152 -0.2026  0.0107
  695loPI   C2B10110  16.317   8.547   7.663 -0.0834 -0.2521 -0.0611
  695loPI   C3B10111  16.440   8.520   8.046 -0.2418  0.1335  0.0739
  695loPI   C4B10112  16.467   8.290   8.467 -0.0741 -0.0434  0.0203
  696loPI    C110113  15.684  12.900   6.019 -0.1453 -0.1352 -0.0340
  696loPI    C210114  15.637  12.629   5.729 -0.2017  0.0613 -0.2104
  696loPI    C310115  15.727  13.008   5.637  0.1408  0.0469  0.0467
  696loPI   PO410116  15.552  12.767   6.185  0.0558 -0.0321 -0.0181
  696loPI   GL110117  15.447  12.824   6.588 -0.0668 -0.2083 -0.2182
  696loPI   GL210118  15.814  12.890   6.704 -0.1766  0.2359  0.3860
  696loPI   C1A10119  15.481  12.886   7.010  0.0347 -0.1619  0.1474
  696loPI   C2A10120  15.483  12.977   7.459 -0.0391  0.1846 -0.0144
  696loPI   C3A10121  15.507  12.962   7.895 -0.0492 -0.0645  0.3500
  696loPI   C4A10122  15.719  12.853   8.269  0.0937 -0.1110 -0.1330
  696loPI   C5A10123  15.672  12.725   8.799 -0.1326 -0.0261 -0.0507
  696loPI   C6A10124  15.478  12.654   9.233  0.3561  0.2202 -0.2027
  696loPI   C1B10125  15.978  12.958   7.108  0.0001 -0.0660  0.0595
  696loPI   C2B10126  16.010  12.926   7.580  0.2933  0.3528  0.2640
  696loPI   C3B10127  16.072  12.947   7.967 -0.2241  0.1075  0.3155
  696loPI   C4B10128  16.241  12.784   8.217  0.2148 -0.0820  0.3484
  697loPI    C110129   6.581   4.519   5.828 -0.0076 -0.1376 -0.1347
  697loPI    C210130   6.747   4.285   5.550  0.1157  0.0970 -0.2612
  697loPI    C310131   6.883   4.658   5.605 -0.2079  0.2088 -0.1982
  697loPI   PO410132   6.608   4.457   5.990 -0.0730  0.0678 -0.1215
  697loPI   GL110133   6.741   4.289   6.363  0.0932 -0.1505  0.1634
  697loPI   GL210134   6.950   4.091   6.411 -0.1801 -0.2452 -0.2506
  697loPI   C1A10135   6.763   4.388   6.742  0.2243  0.1930  0.1286
  697loPI   C2A10136   6.741   4.448   7.090  0.4859  0.2320 -0.1739
  697loPI   C3A10137   6.882   4.449   7.494  0.1925  0.0904 -0.1797
  697loPI   C4A10138   6.789   4.410   7.990  0.1852 -0.1738 -0.1891
  697loPI   C5A10139   6.663   4.571   8.302  0.2092 -0.0956  0.1920
  697loPI   C6A10140   6.466   4.799   8.642 -0.0583  0.0124  0.3021
  697loPI   C1B10141   7.010   3.888   6.848  0.1467  0.1401 -0.3013
  697loPI   C2B10142   7.051   4.033   7.269  0.0230  0.1945 -0.1036
  697loPI   C3B10143   6.938   3.952   7.704  0.3251  0.1210 -0.2520
  697loPI   C4B10144   7.090   3.977   8.084 -0.0603 -0.2378  0.0180
  698loPI    C110145  15.592  10.018   5.916  0.3813 -0.0844 -0.0536
  698loPI    C210146  15.628  10.393   5.782 -0.2628 -0.0161 -0.0662
  698loPI    C310147  15.681  10.085   5.532 -0.1590  0.0766 -0.1596
  698loPI   PO410148  15.428  10.093   6.183 -0.2300 -0.0702  0.2587
  698loPI   GL110149  15.454  10.120   6.584  0.1230 -0.5718  0.1812
  698loPI   GL210150  15.659  10.139   6.836 -0.0773  0.4859 -0.0658
  698loPI   C1A10151  15.242  10.186   7.002  0.0426 -0.0935 -0.0108
  698loPI   C2A10152  15.271  10.140   7.393  0.2598 -0.2113 -0.2956
  698loPI   C3A10153  15.390  10.171   7.861  0.1274 -0.2313  0.1922
  698loPI   C4A10154  15.359  10.116   8.332 -0.2744 -0.1893  0.2023
  698loPI   C5A10155  15.231   9.888   8.628  0.2466  0.0954 -0.1512
  698loPI   C6A10156  15.189   9.950   9.005 -0.0299  0.1253 -0.0387
  698loPI   C1B10157  15.737  10.064   7.233  0.1630  0.0845  0.1188
  698loPI   C2B10158  15.839   9.999   7.625  0.1531  0.3536 -0.1549
  698loPI   C3B10159  15.847  10.048   8.036  0.0490  0.3157  0.1767
  698loPI   C4B10160  15.908   9.902   8.427 -0.1182 -0.2779  0.0326
  699loPI    C110161   9.592  14.352   6.181  0.1108  0.2702  0.2353
  699loPI    C210162   9.428  14.441   5.828 -0.0135 -0.1490  0.1819
  699loPI    C310163   9.694  14.690   5.993 -0.3893  0.3396  0.0742
  699loPI   PO410164   9.262  14.191   6.281  0.1628  0.0053  0.1456
  699loPI   GL110165   9.204  13.930   6.523 -0.1231 -0.0622  0.0619
  699loPI   GL210166   8.929  13.786   6.579 -0.1590  0.0619 -0.0130
  699loPI   C1A10167   9.102  14.067   6.950  0.0398 -0.0116 -0.0319
  699loPI   C2A10168   9.036  14.294   7.364  0.1177 -0.3006  0.3823
  699loPI   C3A10169   9.063  14.337   7.853 -0.2085 -0.0377  0.0340
  699loPI   C4A10170   9.103  14.455   8.368 -0.2968  0.0216 -0.1410
  699loPI   C5A10171   8.737  14.359   8.542  0.0403 -0.0634  0.0520
  699loPI   C6A10172   8.401  14.172   8.794 -0.1567  0.0433 -0.0132
  699loPI   C1B10173   8.591  14.002   6.819  0.1367  0.0194  0.2341
  699loPI   C2B10174   8.535  14.096   7.248  0.1195  0.0866  0.1282
  699loPI   C3B10175   8.575  14.135   7.719 -0.2632  0.1132  0.1003
  699loPI   C4B10176   8.599  14.294   8.086 -0.0467  0.0039  0.1480
  700loPI    C110177  11.026   1.782   5.795  0.0819  0.0640 -0.1270
  700loPI    C210178  11.396   1.802   5.645  0.1794  0.1343  0.1171
  700loPI    C310179  11.111   1.603   5.448  0.2931  0.2574 -0.1778
  700loPI   PO410180  11.019   1.629   6.018 -0.2216 -0.3368  0.0603
  700loPI   GL110181  11.112   1.634   6.372 -0.1338 -0.1572 -0.2509
  700loPI   GL210182  11.202   1.329   6.648  0.1163  0.3214  0.0014
  700loPI   C1A10183  10.907   1.750   6.753  0.0670 -0.3401  0.2441
  700loPI   C2A10184  10.743   1.558   7.108  0.2366 -0.1342  0.0540
  700loPI   C3A10185  10.727   1.585   7.595 -0.0349  0.0614 -0.2131
  700loPI   C4A10186  10.767   1.625   8.003  0.2097  0.1129 -0.3965
  700loPI   C5A10187  10.728   1.553   8.448  0.4488  0.0199 -0.0032
  700loPI   C6A10188  10.507   1.773   8.781 -0.0434  0.2564 -0.0285
  700loPI   C1B10189  11.256   1.539   7.087 -0.1026  0.1496 -0.3226
  700loPI   C2B10190  11.274   1.499   7.585 -0.0785  0.1298  0.1403
  700loPI   C3B10191  11.332   1.410   8.036 -0.0537  0.0102 -0.2581
  700loPI   C4B10192  11.637   1.373   8.399  0.2070 -0.2653 -0.0875
  701loPI    C110193   7.666   4.078   5.675 -0.0626 -0.0244  0.1741
  701loPI    C210194   7.506   3.764   5.486 -0.1315  0.0597  0.0919
  701loPI    C310195   7.725   4.030   5.283 -0.0315  0.0384  0.1710
  701loPI   PO410196   7.545   4.056   5.903  0.0409  0.0148  0.0254
  701loPI   GL110197   7.695   3.811   6.226 -0.0035  0.0881 -0.1117
  701loPI   GL210198   7.359   3.816   6.356 -0.1728 -0.0053  0.2484
  701loPI   C1A10199   7.989   3.826   6.559 -0.0627  0.1987 -0.1226
  701loPI   C2A10200   8.016   3.825   7.031  0.0388  0.0528  0.0557
  701loPI   C3A10201   8.058   3.946   7.419 -0.1941  0.0497  0.3280
  701loPI   C4A10202   8.003   3.845   7.857  0.1218 -0.2380  0.1935
  701loPI   C5A10203   8.139   3.845   8.304 -0.2545  0.2619  0.3936
  701loPI   C6A10204   8.390   3.610   8.483 -0.1623  0.0866  0.0122
  701loPI   C1B10205   7.534   3.848   6.844  0.2023 -0.1454  0.3650
  701loPI   C2B10206   7.580   3.930   7.281  0.0814 -0.0047 -0.0081
  701loPI   C3B10207   7.473   3.900   7.786  0.2218 -0.3018  0.1975
  701loPI   C4B10208   7.620   3.942   8.133  0.1980  0.1866 -0.1260
  702loPI    C110209   8.052  16.749   5.896  0.0570  0.0109  0.0866
  702loPI    C210210   8.023  17.050   5.634  0.4984  0.1577  0.1974
  702loPI    C310211   8.085  16.677   5.504 -0.1459  0.0892  0.0543
  702loPI   PO410212   7.891  16.901   6.098 -0.2789  0.1532 -0.0736
  702loPI   GL110213   7.741  17.149   6.419  0.1555 -0.2344  0.2106
  702loPI   GL210214   7.372  17.255   6.443  0.0702  0.1491  0.1634
  702loPI   C1A10215   7.620  16.991   6.817 -0.0802  0.2242 -0.0320
  702loPI   C2A10216   7.560  17.024   7.263  0.0787  0.2898  0.1103
  702loPI   C3A10217   7.578  17.094   7.672 -0.0913 -0.0778 -0.1639
  702loPI   C4A10218   7.531  17.204   8.164  0.1395 -0.3010 -0.0936
  702loPI   C5A10219   7.320  17.513   8.491 -0.1443  0.0995 -0.0484
  702loPI   C6A10220   7.272  17.921   8.584 -0.3678  0.1729  0.1049
  702loPI   C1B10221   7.235  17.303   6.848  0.0518 -0.1446 -0.3378
  702loPI   C2B10222   7.085  17.402   7.215 -0.0630  0.1702  0.0915
  702loPI   C3B10223   7.099  17.347   7.563  0.1258 -0.0171 -0.0005
  702loPI   C4B10224   7.054  17.499   7.902  0.1211  0.2116 -0.0604
  703loPI    C110225   7.486  10.285   5.958 -0.0521  0.0972  0.1258
  703loPI    C210226   7.791  10.524   6.057 -0.0741  0.2054 -0.0628
  703loPI    C310227   7.765  10.377   5.686 -0.0967 -0.0371  0.0333
  703loPI   PO410228   7.440  10.127   6.236 -0.1618  0.1666  0.1883
  703loPI   GL110229   7.356  10.198   6.554  0.1719 -0.0875  0.2994
  703loPI   GL210230   7.282  10.474   6.640  0.0892 -0.0833  0.0147
  703loPI   C1A10231   7.341  10.021   6.880 -0.0958 -0.0372  0.1323
  703loPI   C2A10232   7.426  10.073   7.376 -0.1555 -0.1790 -0.0399
  703loPI   C3A10233   7.408  10.196   7.925 -0.1009 -0.3084 -0.3310
  703loPI   C4A10234   7.403  10.334   8.380 -0.2210 -0.0128  0.0449
  703loPI   C5A10235   7.161  10.271   8.709 -0.0376 -0.0156  0.0128
  703loPI   C6A10236   6.867  10.169   8.837 -0.3035 -0.0515  0.3932
  703loPI   C1B10237   7.470  10.508   7.057  0.3124  0.0228 -0.0802
  703loPI   C2B10238   7.519  10.573   7.534 -0.0624 -0.2172 -0.1233
  703loPI   C3B10239   7.549  10.674   8.036  0.3737  0.1590  0.1043
  703loPI   C4B10240   7.555  10.892   8.416  0.2563  0.0972  0.0188
  704loPI    C110241  10.473   1.239   6.135  0.1208 -0.1439  0.0941
  704loPI    C210242  10.278   0.983   6.372  0.0838  0.0153  0.2376
  704loPI    C310243  10.083   1.291   6.208  0.0849 -0.1528 -0.0871
  704loPI   PO410244  10.732   1.297   6.291 -0.1824 -0.1308 -0.0377
  704loPI   GL110245  10.712   1.283   6.720 -0.2667  0.1708  0.2562
  704loPI   GL210246  10.376   1.514   6.620 -0.1763  0.0672  0.4076
  704loPI   C1A10247  10.943   1.077   7.006  0.2140  0.2774  0.0041
  704loPI   C2A10248  10.923   1.103   7.419 -0.1384  0.0493 -0.2786
  704loPI   C3A10249  11.003   1.082   7.852  0.2497  0.0555 -0.0182
  704loPI   C4A10250  10.823   1.042   8.325  0.2776 -0.1995 -0.1123
  704loPI   C5A10251  10.666   1.184   8.813  0.1307  0.2096  0.0820
  704loPI   C6A10252  10.388   1.362   9.008 -0.0938  0.1448  0.1114
  704loPI   C1B10253  10.320   1.709   6.992  0.2894 -0.0793  0.0253
  704loPI   C2B10254  10.221   1.675   7.443  0.0565 -0.2568  0.2866
  704loPI   C3B10255  10.314   1.783   7.835 -0.1606 -0.0490 -0.2188
  704loPI   C4B10256  10.174   1.795   8.250 -0.0294  0.0389  0.0690
  705loPI    C110257  12.706   7.224   5.901  0.0102  0.1404 -0.0499
  705loPI    C210258  12.475   7.503   5.732 -0.0079  0.0418 -0.1889
  705loPI    C310259  12.801   7.371   5.542  0.1355  0.1436 -0.0158
  705loPI   PO410260  12.560   7.020   6.053  0.1732 -0.2105 -0.0678
  705loPI   GL110261  12.427   6.987   6.453  0.1686 -0.1055 -0.1054
  705loPI   GL210262  12.519   6.762   6.419 -0.0808  0.1937 -0.0095
  705loPI   C1A10263  12.170   6.858   6.817 -0.2059  0.2131 -0.5558
  705loPI   C2A10264  12.131   6.865   7.276 -0.0897 -0.2603  0.0054
  705loPI   C3A10265  12.225   6.780   7.782 -0.2753  0.2785  0.0429
  705loPI   C4A10266  12.300   6.886   8.183  0.1182 -0.1218 -0.0414
  705loPI   C5A10267  12.085   6.840   8.605 -0.1362  0.0323 -0.1341
  705loPI   C6A10268  12.288   7.131   8.785  0.0134 -0.3689 -0.1184
  705loPI   C1B10269  12.449   6.417   6.713 -0.1653 -0.1038  0.3646
  705loPI   C2B10270  12.309   6.308   7.086 -0.2010  0.5152 -0.2326
  705loPI   C3B10271  12.343   6.346   7.539  0.1474  0.1232  0.3963
  705loPI   C4B10272  12.415   6.282   8.010 -0.0377 -0.0034 -0.0332
  706loPI    C110273  16.630  15.502   5.834 -0.0014 -0.3294 -0.1885
  706loPI    C210274  16.371  15.774   5.698  0.3036  0.0335 -0.0615
  706loPI    C310275  16.617  15.588   5.444  0.0936 -0.1298 -0.1488
  706loPI   PO410276  16.645  15.518   6.077  0.1929 -0.0413 -0.3799
  706loPI   GL110277  16.696  15.266   6.530 -0.3242  0.0395  0.0029
  706loPI   GL210278  16.960  15.368   6.764 -0.1344 -0.1765  0.0985
  706loPI   C1A10279  16.454  15.454   6.961  0.1570 -0.0997  0.2364
  706loPI   C2A10280  16.478  15.614   7.383 -0.2000  0.2014 -0.0737
  706loPI   C3A10281  16.418  15.660   7.803 -0.1531 -0.0835  0.2899
  706loPI   C4A10282  16.346  15.731   8.254  0.0301 -0.1623 -0.0957
  706loPI   C5A10283  16.177  15.712   8.703 -0.0262 -0.0459 -0.2794
  706loPI   C6A10284  16.415  16.008   8.914 -0.1785 -0.0377  0.2874
  706loPI   C1B10285  16.948  15.573   7.165 -0.0034 -0.0116  0.0671
  706loPI   C2B10286  16.948  15.424   7.607 -0.2142  0.1167  0.0365
  706loPI   C3B10287  16.908  15.573   8.063 -0.1051  0.0745  0.1123
  706loPI   C4B10288  17.079  15.548   8.440  0.2084  0.0835  0.0190
  707loPI    C110289   7.387  11.158   5.893  0.2781  0.0383  0.0569
  707loPI    C210290   7.412  10.813   5.693 -0.1071  0.2164 -0.3155
  707loPI    C310291   7.476  11.159   5.503  0.0008  0.3670 -0.0112
  707loPI   PO410292   7.202  11.136   5.985  0.1630  0.0110 -0.0976
  707loPI   GL110293   7.143  11.283   6.359 -0.3405  0.0004  0.2106
  707loPI   GL210294   7.029  10.913   6.472  0.0874 -0.2446 -0.0557
  707loPI   C1A10295   7.043  11.322   6.823 -0.1463 -0.0893 -0.2329
  707loPI   C2A10296   7.111  11.342   7.280 -0.1295 -0.4142  0.1034
  707loPI   C3A10297   7.132  11.424   7.753 -0.0064  0.2170  0.2906
  707loPI   C4A10298   7.214  11.395   8.251 -0.0222  0.0762  0.0102
  707loPI   C5A10299   7.235  11.236   8.684  0.2063  0.0223  0.1492
  707loPI   C6A10300   7.516  10.913   8.934  0.4356  0.1605  0.3659
  707loPI   C1B10301   7.079  10.811   6.893  0.0438 -0.0387  0.1708
  707loPI   C2B10302   7.103  10.892   7.378  0.0056  0.3219  0.0047
  707loPI   C3B10303   7.114  10.900   7.753  0.0519 -0.2452  0.0186
  707loPI   C4B10304   7.071  10.851   8.201  0.1258  0.1334  0.1698
  708loPI    C110305   3.290  16.260   5.707  0.0376 -0.0358 -0.1776
  708loPI    C210306   3.690  16.278   5.716  0.0321  0.0331 -0.0511
  708loPI    C310307   3.495  16.322   5.370  0.1429 -0.2024 -0.1456
  708loPI   PO410308   3.284  16.302   5.999  0.0391 -0.0846 -0.2527
  708loPI   GL110309   3.345  16.230   6.453 -0.1162  0.0645  0.1284
  708loPI   GL210310   3.165  16.528   6.450  0.2428  0.2425 -0.3109
  708loPI   C1A10311   3.688  16.334   6.729  0.0211  0.3531  0.2357
  708loPI   C2A10312   3.720  16.363   7.129 -0.1596  0.2207  0.0608
  708loPI   C3A10313   3.750  16.239   7.592 -0.1508 -0.1058 -0.1803
  708loPI   C4A10314   3.886  16.207   8.014 -0.0777 -0.0368 -0.2000
  708loPI   C5A10315   3.592  16.387   8.287  0.1690 -0.0266 -0.0087
  708loPI   C6A10316   3.194  16.431   8.425  0.0962  0.0944  0.2462
  708loPI   C1B10317   3.184  16.415   6.902 -0.1891 -0.0037  0.0957
  708loPI   C2B10318   3.092  16.427   7.269 -0.1950  0.2268 -0.0761
  708loPI   C3B10319   3.192  16.436   7.695 -0.0246 -0.0176  0.0005
  708loPI   C4B10320   2.993  16.262   8.036 -0.2352  0.2556 -0.3008
  709loPI    C110321   7.687  12.364   5.722  0.1127  0.0061 -0.0329
  709loPI    C210322   7.576  11.985   5.788 -0.1074  0.0329 -0.2377
  709loPI    C310323   7.460  12.172   5.454 -0.1501  0.3396 -0.0553
  709loPI   PO410324   7.535  12.475   5.912  0.1252  0.0292 -0.0121
  709loPI   GL110325   7.324  12.464   6.312  0.1285  0.2298  0.0580
  709loPI   GL210326   7.362  12.740   6.480 -0.1566  0.0687 -0.0963
  709loPI   C1A10327   7.184  12.329   6.767 -0.1790  0.2158  0.2893
  709loPI   C2A10328   7.149  12.386   7.221 -0.2291  0.0068 -0.2815
  709loPI   C3A10329   7.220  12.427   7.606  0.0821  0.1483  0.0067
  709loPI   C4A10330   7.302  12.482   8.114  0.1327  0.0725  0.0444
  709loPI   C5A10331   7.243  12.362   8.506 -0.0358 -0.0123 -0.0784
  709loPI   C6A10332   7.435  12.227   8.975 -0.2062 -0.0255 -0.0729
  709loPI   C1B10333   7.178  12.855   6.904  0.0606 -0.0711  0.2802
  709loPI   C2B10334   7.161  12.950   7.379 -0.0149 -0.1206 -0.4546
  709loPI   C3B10335   7.222  12.972   7.777  0.1695  0.1585 -0.0417
  709loPI   C4B10336   7.200  13.085   8.193 -0.0560 -0.2348  0.1356
  710loPI    C110337   0.001   9.655   5.772 -0.0904  0.1613 -0.0767
  710loPI    C210338  -0.294   9.433   5.619  0.0745 -0.0485 -0.0950
  710loPI    C310339  -0.066   9.656   5.377 -0.0153  0.0498 -0.0900
  710loPI   PO410340   0.018   9.508   6.049  0.0601 -0.0652 -0.1266
  710loPI   GL110341  -0.086   9.524   6.450 -0.0632 -0.3553  0.0050
  710loPI   GL210342  -0.190   9.802   6.477  0.3172 -0.0651  0.1259
  710loPI   C1A10343  -0.275   9.415   6.854 -0.0574  0.1909  0.1586
  710loPI   C2A10344  -0.233   9.383   7.311  0.0991  0.1898 -0.0228
  710loPI   C3A10345  -0.338   9.344   7.733 -0.2745 -0.0606  0.0490
  710loPI   C4A10346  -0.245   9.269   8.181 -0.0263 -0.4462  0.1744
  710loPI   C5A10347  -0.180   9.145   8.622  0.1111  0.1159 -0.2092
  710loPI   C6A10348  -0.089   9.159   9.072 -0.2522  0.1666 -0.3656
  710loPI   C1B10349  -0.053   9.854   6.920  0.1178 -0.1317 -0.2114
  710loPI   C2B10350   0.050   9.785   7.342  0.1467  0.1541 -0.3978
  710loPI   C3B10351   0.030   9.711   7.795 -0.1128 -0.3890  0.0054
  710loPI   C4B10352   0.066   9.741   8.236  0.0139 -0.0719  0.2156
  711loPI    C110353   5.077  11.954   6.076 -0.2950  0.1654 -0.0467
  711loPI    C210354   4.858  11.624   6.136 -0.0683  0.0252  0.0237
  711loPI    C310355   4.908  11.767   5.766 -0.1062 -0.0626 -0.0156
  711loPI   PO410356   5.012  12.070   6.317 -0.0877  0.0585  0.0926
  711loPI   GL110357   4.759  12.256   6.586  0.0936  0.1197 -0.0430
  711loPI   GL210358   4.542  12.536   6.448  0.1614 -0.1729  0.0970
  711loPI   C1A10359   4.885  12.250   7.091 -0.1666  0.0541  0.1119
  711loPI   C2A10360   4.998  12.479   7.385  0.0726  0.1429 -0.0927
  711loPI   C3A10361   5.066  12.452   7.838 -0.0872  0.2819 -0.1901
  711loPI   C4A10362   5.037  12.425   8.306  0.2742 -0.1448 -0.1068
  711loPI   C5A10363   5.188  12.529   8.778 -0.0806  0.1149  0.0673
  711loPI   C6A10364   5.335  12.586   9.225 -0.3873  0.1493  0.0745
  711loPI   C1B10365   4.430  12.481   6.861 -0.0566 -0.0840 -0.2140
  711loPI   C2B10366   4.548  12.620   7.242 -0.0786 -0.3427  0.0782
  711loPI   C3B10367   4.516  12.647   7.728 -0.2078  0.0850  0.1446
  711loPI   C4B10368   4.638  12.743   8.108  0.2420  0.1390  0.2464
  712loPI    C110369  14.712   3.073   5.867 -0.1823 -0.0359 -0.0577
  712loPI    C210370  14.536   3.299   5.588 -0.1694 -0.0224 -0.0549
  712loPI    C310371  14.909   3.166   5.531 -0.1475  0.0240 -0.0209
  712loPI   PO410372  14.670   3.221   6.100 -0.4717  0.2215  0.1020
  712loPI   GL110373  14.452   3.164   6.428 -0.0778 -0.1403 -0.1200
  712loPI   GL210374  14.191   2.930   6.400 -0.3261  0.1165 -0.0476
  712loPI   C1A10375  14.499   3.214   6.865  0.1140  0.2669 -0.0782
  712loPI   C2A10376  14.509   3.276   7.312 -0.1750  0.1681  0.2395
  712loPI   C3A10377  14.524   3.217   7.780 -0.3329 -0.0003  0.0138
  712loPI   C4A10378  14.646   3.282   8.251  0.1963  0.2396 -0.0501
  712loPI   C5A10379  14.945   3.040   8.523  0.0568 -0.1476  0.0885
  712loPI   C6A10380  14.878   2.693   8.801 -0.1989 -0.1348  0.1003
  712loPI   C1B10381  14.209   2.804   6.860 -0.0135  0.2208  0.1016
  712loPI   C2B10382  14.233   2.834   7.305 -0.0431  0.0488  0.0449
  712loPI   C3B10383  14.138   2.801   7.686 -0.0286 -0.2459 -0.2408
  712loPI   C4B10384  14.212   2.781   8.076  0.1211  0.0211  0.1697
  713loPI    C110385  13.441  13.407   5.787 -0.0112 -0.1177  0.3593
  713loPI    C210386  13.820  13.438   5.663 -0.1142 -0.0100  0.0632
  713loPI    C310387  13.648  13.742   5.858 -0.1783  0.1092 -0.1756
  713loPI   PO410388  13.363  13.168   5.935 -0.0653  0.3093  0.2888
  713loPI   GL110389  13.279  13.124   6.389 -0.1529 -0.1636 -0.0677
  713loPI   GL210390  13.482  13.013   6.632 -0.2024  0.0048 -0.2987
  713loPI   C1A10391  13.021  13.287   6.792  0.2035  0.1680  0.0595
  713loPI   C2A10392  12.970  13.302   7.199  0.0963 -0.4092  0.1486
  713loPI   C3A10393  13.025  13.313   7.580  0.2062 -0.1434 -0.0091
  713loPI   C4A10394  12.946  13.365   7.965  0.1529  0.1065  0.0782
  713loPI   C5A10395  12.892  13.240   8.378  0.0143 -0.0120 -0.3261
  713loPI   C6A10396  13.236  13.100   8.638 -0.4737 -0.1392 -0.0150
  713loPI   C1B10397  13.436  13.137   6.972 -0.0539 -0.1825  0.0188
  713loPI   C2B10398  13.475  13.275   7.416 -0.2361  0.0699  0.0476
  713loPI   C3B10399  13.480  13.213   7.817 -0.3359  0.0021 -0.2719
  713loPI   C4B10400  13.512  13.232   8.229  0.3365  0.0906 -0.0953
  714loPI    C110401  14.143   3.593   5.479  0.0332 -0.1485 -0.1073
  714loPI    C210402  14.067   3.901   5.234 -0.0436 -0.1156 -0.0426
  714loPI    C310403  13.882   3.551   5.178  0.0102 -0.1367 -0.0891
  714loPI   PO410404  14.070   3.698   5.751  0.0353 -0.1173  0.2913
  714loPI   GL110405  13.840   3.926   6.104  0.0567 -0.1536 -0.1348
  714loPI   GL210406  14.102   3.778   6.249  0.1022  0.2829  0.1207
  714loPI   C1A10407  13.822   3.822   6.660  0.0306 -0.0576  0.0551
  714loPI   C2A10408  13.764   3.763   7.077  0.0849  0.0325 -0.1341
  714loPI   C3A10409  13.841   3.767   7.544 -0.0926 -0.1412 -0.1071
  714loPI   C4A10410  13.802   3.722   7.936 -0.0236  0.0967 -0.0900
  714loPI   C5A10411  13.791   3.831   8.372 -0.2393  0.1948  0.2782
  714loPI   C6A10412  13.811   3.500   8.592  0.1193 -0.2079 -0.0157
  714loPI   C1B10413  14.278   3.681   6.707  0.0932  0.3706  0.0592
  714loPI   C2B10414  14.284   3.665   7.133 -0.1047  0.2210  0.0584
  714loPI   C3B10415  14.352   3.759   7.514 -0.1701  0.0588  0.3452
  714loPI   C4B10416  14.299   3.634   7.903 -0.1172 -0.0521 -0.1614
  715loPI    C110417   3.232  15.225   5.714 -0.0774  0.1317 -0.3022
  715loPI    C210418   2.866  15.083   5.636 -0.1356  0.2132 -0.1801
  715loPI    C310419   3.182  14.838   5.627 -0.2154  0.1074 -0.1211
  715loPI   PO410420   3.113  15.356   5.970 -0.0437  0.0246 -0.0283
  715loPI   GL110421   3.289  15.209   6.402  0.1216  0.0396  0.0026
  715loPI   GL210422   3.247  14.960   6.550  0.0171 -0.2230  0.0119
  715loPI   C1A10423   3.217  15.454   6.779  0.0385  0.2089  0.2045
  715loPI   C2A10424   3.222  15.555   7.185  0.3029  0.2005 -0.2230
  715loPI   C3A10425   3.287  15.554   7.650 -0.2792 -0.0104  0.0962
  715loPI   C4A10426   3.453  15.495   8.036 -0.0488  0.1990 -0.0742
  715loPI   C5A10427   3.367  15.443   8.411 -0.3105  0.3632  0.3051
  715loPI   C6A10428   3.425  15.617   8.772 -0.0695 -0.0671 -0.1412
  715loPI   C1B10429   3.228  14.952   6.931  0.0908 -0.1133 -0.1753
  715loPI   C2B10430   3.319  15.074   7.338 -0.0863 -0.2256 -0.0035
  715loPI   C3B10431   3.323  15.005   7.773 -0.4225  0.3091  0.0831
  715loPI   C4B10432   3.304  14.979   8.195 -0.1995 -0.0666  0.1336
  716loPI    C110433  15.968   1.097   6.257 -0.0476 -0.0984  0.0966
  716loPI    C210434  15.688   0.969   6.001 -0.1892  0.2252  0.0838
  716loPI    C310435  15.939   1.261   5.893  0.3772 -0.2801 -0.0249
  716loPI   PO410436  15.860   1.106   6.476 -0.2082  0.0924  0.1985
  716loPI   GL110437  15.590   1.303   6.709  0.1779 -0.0692 -0.0038
  716loPI   GL210438  15.689   1.133   6.936 -0.1176  0.0879 -0.0712
  716loPI   C1A10439  15.387   1.712   6.838 -0.1340 -0.2771 -0.2442
  716loPI   C2A10440  15.098   1.768   7.149 -0.2105 -0.0922 -0.2331
  716loPI   C3A10441  15.076   1.720   7.625  0.2164 -0.1081 -0.0479
  716loPI   C4A10442  15.099   1.730   8.072  0.0787 -0.2116 -0.0503
  716loPI   C5A10443  15.147   1.675   8.586  0.3451  0.0260 -0.0349
  716loPI   C6A10444  14.825   1.439   8.716 -0.0153 -0.0013 -0.0645
  716loPI   C1B10445  15.717   1.154   7.369  0.1876  0.1687 -0.2926
  716loPI   C2B10446  15.809   1.132   7.844  0.0450  0.0180  0.1646
  716loPI   C3B10447  15.825   1.244   8.267 -0.1848  0.0998  0.0580
  716loPI   C4B10448  15.933   1.144   8.589  0.0803 -0.0232  0.1847
  717loPI    C110449  16.391   2.319   5.854  0.0204  0.0511  0.1156
  717loPI    C210450  16.036   2.135   5.855  0.1168 -0.1390  0.0547
  717loPI    C310451  16.093   2.459   5.627 -0.0086 -0.1243  0.0433
  717loPI   PO410452  16.486   2.369   6.135  0.1233 -0.1004  0.0822
  717loPI   GL110453  16.684   2.330   6.440  0.0609 -0.0300 -0.1283
  717loPI   GL210454  16.364   2.541   6.621  0.1154  0.0029  0.1157
  717loPI   C1A10455  16.801   2.360   6.904 -0.2804  0.2468  0.0995
  717loPI   C2A10456  16.751   2.360   7.331 -0.2392  0.2873 -0.1293
  717loPI   C3A10457  16.775   2.380   7.706  0.1555  0.1561 -0.0394
  717loPI   C4A10458  16.773   2.395   8.167 -0.1997  0.1285 -0.2622
  717loPI   C5A10459  16.668   2.213   8.530 -0.1050 -0.0301  0.2424
  717loPI   C6A10460  16.317   2.011   8.624  0.0814  0.0470 -0.1814
  717loPI   C1B10461  16.276   2.451   7.006 -0.1192 -0.1282  0.0068
  717loPI   C2B10462  16.182   2.519   7.461  0.0046  0.0007 -0.3640
  717loPI   C3B10463  16.275   2.448   7.841 -0.2262 -0.2591 -0.0862
  717loPI   C4B10464  16.236   2.449   8.217 -0.1867 -0.2546 -0.1197
  718loPI    C110465   8.083   0.630   5.741 -0.2212 -0.1898 -0.0678
  718loPI    C210466   7.987   0.258   5.628 -0.0397 -0.2181 -0.1336
  718loPI    C310467   7.914   0.567   5.385 -0.1887 -0.2099 -0.0798
  718loPI   PO410468   8.127   0.621   6.041  0.0108 -0.0583 -0.2246
  718loPI   GL110469   8.223   0.427   6.366  0.0414  0.1000  0.1938
  718loPI   GL210470   8.502   0.445   6.361 -0.3094 -0.2092 -0.2318
  718loPI   C1A10471   8.034   0.555   6.827 -0.0081  0.0839  0.0288
  718loPI   C2A10472   8.057   0.523   7.210 -0.1879  0.1214  0.2044
  718loPI   C3A10473   8.018   0.510   7.696  0.0163  0.2233 -0.2839
  718loPI   C4A10474   8.180   0.621   8.051 -0.0731 -0.2692 -0.0719
  718loPI   C5A10475   8.193   0.979   8.277  0.0427 -0.0130  0.0800
  718loPI   C6A10476   8.257   1.108   8.680  0.2437  0.0215 -0.1444
  718loPI   C1B10477   8.559   0.314   6.722 -0.1104 -0.0089  0.0976
  718loPI   C2B10478   8.450   0.219   7.042 -0.3602 -0.0883 -0.0657
  718loPI   C3B10479   8.454   0.304   7.478  0.2282  0.1405  0.1697
  718loPI   C4B10480   8.615   0.276   7.888  0.2402 -0.1349 -0.1854
  719loPI    C110481   4.473   3.048   5.742  0.0501 -0.2781  0.2662
  719loPI    C210482   4.771   2.954   5.992  0.2126 -0.1268  0.1325
  719loPI    C310483   4.850   3.145   5.650 -0.0371 -0.1031  0.0859
  719loPI   PO410484   4.315   3.203   5.871 -0.0969 -0.1511 -0.1510
  719loPI   GL110485   4.301   3.095   6.302  0.0723 -0.0521  0.0686
  719loPI   GL210486   4.579   3.291   6.356 -0.0467  0.1696 -0.1677
  719loPI   C1A10487   4.216   2.881   6.667 -0.2157 -0.0925 -0.1364
  719loPI   C2A10488   4.069   2.927   6.980 -0.0485  0.1691  0.0127
  719loPI   C3A10489   4.027   2.957   7.403 -0.2375 -0.0560  0.2023
  719loPI   C4A10490   3.978   3.069   7.893 -0.0257  0.1161 -0.0085
  719loPI   C5A10491   4.047   3.205   8.297 -0.0374  0.0584  0.1304
  719loPI   C6A10492   4.133   3.574   8.505 -0.0803 -0.0321  0.1657
  719loPI   C1B10493   4.807   3.341   6.684 -0.2638 -0.0537 -0.2988
  719loPI   C2B10494   4.887   3.232   7.041 -0.1169  0.1517 -0.1632
  719loPI   C3B10495   4.782   3.344   7.529 -0.1253 -0.2997  0.0987
  719loPI   C4B10496   4.897   3.462   7.997  0.1888 -0.0006  0.0465
  720loPI    C110497   6.080   8.185   5.937  0.1950  0.0035 -0.2167
  720loPI    C210498   5.686   8.138   5.884  0.1369  0.1262  0.0876
  720loPI    C310499   5.944   7.907   5.683 -0.0933 -0.0695  0.0126
  720loPI   PO410500   6.053   8.173   6.241  0.1447  0.1165  0.2041
  720loPI   GL110501   5.681   7.865   6.448 -0.1002  0.3536 -0.1214
  720loPI   GL210502   5.771   7.491   6.527 -0.0220  0.0627  0.1845
  720loPI   C1A10503   5.504   7.778   6.930 -0.0132  0.2464 -0.2080
  720loPI   C2A10504   5.473   7.904   7.398 -0.1534 -0.1551 -0.2731
  720loPI   C3A10505   5.498   7.807   7.753 -0.1430  0.2194  0.1583
  720loPI   C4A10506   5.525   7.729   8.183 -0.0298  0.0226  0.3927
  720loPI   C5A10507   5.492   7.732   8.616 -0.1719  0.1269  0.0906
  720loPI   C6A10508   5.568   8.057   8.998  0.1537 -0.0174 -0.3242
  720loPI   C1B10509   5.749   7.322   6.993 -0.0940 -0.0670 -0.0214
  720loPI   C2B10510   5.766   7.301   7.487  0.0370  0.0159 -0.0353
  720loPI   C3B10511   5.683   7.292   7.858 -0.0226  0.3296 -0.0514
  720loPI   C4B10512   5.793   7.323   8.245 -0.1562  0.1627  0.2841
  721loPI    C110513  10.632  11.385   6.013  0.0786 -0.1933 -0.3991
  721loPI    C210514  10.522  11.684   5.772  0.1654  0.0518 -0.1391
  721loPI    C310515  10.244  11.457   5.948  0.0902  0.1957 -0.0709
  721loPI   PO410516  10.782  11.498   6.226 -0.1079  0.3003 -0.0955
  721loPI   GL110517  10.826  11.781   6.558  0.1133 -0.0826 -0.2346
  721loPI   GL210518  10.702  11.495   6.761 -0.0999 -0.2629 -0.2389
  721loPI   C1A10519  10.901  11.853   7.048  0.2876  0.0741  0.0853
  721loPI   C2A10520  10.959  11.829   7.481 -0.0997 -0.2512  0.1146
  721loPI   C3A10521  10.754  11.728   7.879  0.0343  0.0629 -0.0248
  721loPI   C4A10522  10.766  11.557   8.256  0.3268  0.2307 -0.0969
  721loPI   C5A10523  10.657  11.800   8.672 -0.3041 -0.2821 -0.1952
  721loPI   C6A10524  10.410  12.049   8.760 -0.0366 -0.0941  0.0842
  721loPI   C1B10525  10.654  11.436   7.216  0.2444  0.0426 -0.2084
  721loPI   C2B10526  10.383  11.572   7.521  0.1906  0.0686  0.0420
  721loPI   C3B10527  10.300  11.524   7.952  0.2530  0.0259  0.2049
  721loPI   C4B10528  10.264  11.787   8.293 -0.3298 -0.1730  0.1052
  722loPI    C110529  12.909  16.978   5.918 -0.0333 -0.1161  0.0035
  722loPI    C210530  12.737  16.963   5.556 -0.0226  0.1961 -0.0170
  722loPI    C310531  13.131  17.027   5.589 -0.0226  0.1625  0.0501
  722loPI   PO410532  12.706  16.807   6.050 -0.2425 -0.0236 -0.6011
  722loPI   GL110533  12.670  16.827   6.559  0.0229  0.2881 -0.2035
  722loPI   GL210534  12.662  17.153   6.776  0.0171  0.1507 -0.0156
  722loPI   C1A10535  12.489  16.748   7.022  0.2523  0.0256 -0.0769
  722loPI   C2A10536  12.475  16.738   7.394 -0.1161  0.2823 -0.0494
  722loPI   C3A10537  12.478  16.686   7.826  0.1692  0.2709  0.0948
  722loPI   C4A10538  12.593  16.610   8.223 -0.2864  0.2628  0.1631
  722loPI   C5A10539  12.703  16.605   8.619  0.1593  0.0156 -0.0856
  722loPI   C6A10540  12.765  16.254   8.946 -0.0466 -0.2149 -0.1705
  722loPI   C1B10541  12.770  17.145   7.250 -0.0775 -0.0105  0.1575
  722loPI   C2B10542  12.894  17.126   7.695  0.0423 -0.0266 -0.1551
  722loPI   C3B10543  12.804  17.047   8.071  0.0944  0.0236  0.2984
  722loPI   C4B10544  13.005  16.992   8.447  0.2441  0.1369  0.1089
  723loPI    C110545   1.340   2.477   5.996  0.1727 -0.0714 -0.0125
  723loPI    C210546   1.658   2.532   5.759  0.0270  0.3103 -0.1261
  723loPI    C310547   1.298   2.463   5.598 -0.0074  0.2078 -0.0061
  723loPI   PO410548   1.415   2.319   6.234  0.0674  0.0884 -0.0407
  723loPI   GL110549   1.370   2.129   6.624  0.1989  0.2249 -0.0507
  723loPI   GL210550   1.018   2.098   6.739 -0.3209  0.2883 -0.1272
  723loPI   C1A10551   1.441   2.108   7.021 -0.2052 -0.0543 -0.0375
  723loPI   C2A10552   1.408   1.937   7.514  0.2633  0.0592  0.3332
  723loPI   C3A10553   1.504   2.062   7.932 -0.0191  0.0841 -0.2065
  723loPI   C4A10554   1.514   2.127   8.350 -0.0438 -0.0718  0.0433
  723loPI   C5A10555   1.570   2.189   8.794 -0.0175 -0.2060 -0.0565
  723loPI   C6A10556   1.954   2.475   8.978  0.0537 -0.0619 -0.2604
  723loPI   C1B10557   0.884   2.142   7.129 -0.0756  0.3478  0.0034
  723loPI   C2B10558   0.937   2.084   7.622  0.0006 -0.1532  0.0541
  723loPI   C3B10559   0.951   2.159   8.082 -0.3208 -0.2977 -0.1214
  723loPI   C4B10560   0.976   2.120   8.480 -0.2194  0.3911 -0.0877
  724loPI    C110561   9.170  14.842   5.966 -0.0676  0.1272 -0.0903
  724loPI    C210562   9.030  14.661   5.638  0.0051  0.0260 -0.0658
  724loPI    C310563   9.330  14.923   5.608  0.0640 -0.0417 -0.0705
  724loPI   PO410564   9.047  14.623   6.225 -0.2424 -0.0784  0.0342
  724loPI   GL110565   9.092  14.621   6.669  0.1140  0.1749  0.2278
  724loPI   GL210566   8.834  14.503   6.702 -0.2067 -0.2021 -0.0670
  724loPI   C1A10567   9.155  14.759   7.086  0.1460  0.2158 -0.2425
  724loPI   C2A10568   9.074  14.782   7.544 -0.0473  0.4055 -0.0310
  724loPI   C3A10569   9.116  14.860   8.003  0.1818 -0.1186  0.0449
  724loPI   C4A10570   9.224  14.973   8.445 -0.0744  0.1124 -0.1282
  724loPI   C5A10571   9.526  15.256   8.681  0.2359 -0.0616 -0.1805
  724loPI   C6A10572   9.692  15.529   8.968  0.3433 -0.2199 -0.2211
  724loPI   C1B10573   8.721  14.515   7.063  0.1055 -0.0106  0.0736
  724loPI   C2B10574   8.588  14.625   7.490 -0.1850 -0.1577  0.2788
  724loPI   C3B10575   8.644  14.734   7.882  0.0632 -0.1240  0.0163
  724loPI   C4B10576   8.696  14.811   8.307  0.0896 -0.1156 -0.0087
  725loPI    C110577   5.114   8.859   5.932  0.0008  0.0524  0.0991
  725loPI    C210578   5.105   8.872   5.532 -0.0713  0.1336  0.1027
  725loPI    C310579   4.802   9.026   5.743  0.1126  0.3765  0.1937
  725loPI   PO410580   5.417   8.913   6.076  0.1884  0.3538  0.1637
  725loPI   GL110581   5.526   8.696   6.508 -0.1013 -0.0641 -0.0655
  725loPI   GL210582   5.639   8.372   6.373 -0.0729  0.0086  0.0216
  725loPI   C1A10583   5.536   8.740   6.977  0.0594  0.0054 -0.1109
  725loPI   C2A10584   5.575   8.671   7.393  0.0966  0.0093  0.0509
  725loPI   C3A10585   5.684   8.602   7.860 -0.1195  0.2426 -0.1077
  725loPI   C4A10586   5.662   8.676   8.272  0.0987  0.1027  0.0983
  725loPI   C5A10587   5.615   8.614   8.712 -0.0795  0.0931  0.1531
  725loPI   C6A10588   5.677   9.063   8.917  0.0704  0.1315 -0.0050
  725loPI   C1B10589   5.704   8.254   6.785  0.1807 -0.2448  0.0440
  725loPI   C2B10590   5.881   8.156   7.168  0.2713 -0.3644  0.1081
  725loPI   C3B10591   5.810   8.171   7.625  0.1807 -0.0502  0.0823
  725loPI   C4B10592   5.949   8.148   8.015  0.0158 -0.0374  0.1642
  726loPI    C110593  10.334   8.512   5.927 -0.1683  0.0542 -0.0253
  726loPI    C210594  10.377   8.172   5.721 -0.0964  0.2013 -0.2584
  726loPI    C310595  10.524   8.513   5.575  0.0765  0.2871  0.1043
  726loPI   PO410596  10.433   8.506   6.169 -0.2602  0.0753  0.3009
  726loPI   GL110597  10.397   8.361   6.560  0.2883  0.1462 -0.1650
  726loPI   GL210598  10.334   8.753   6.689 -0.1349 -0.0405 -0.1234
  726loPI   C1A10599  10.262   8.166   6.927  0.1736  0.0062 -0.0245
  726loPI   C2A10600  10.195   8.022   7.425 -0.1171 -0.1845  0.2358
  726loPI   C3A10601  10.222   8.000   7.851  0.3202  0.1226 -0.2013
  726loPI   C4A10602  10.175   8.013   8.355  0.3238  0.2258 -0.1337
  726loPI   C5A10603   9.993   7.650   8.658  0.0020 -0.3988  0.0138
  726loPI   C6A10604   9.752   7.286   8.612  0.0428 -0.0205 -0.1599
  726loPI   C1B10605  10.044   8.635   6.911 -0.0900  0.1319 -0.0446
  726loPI   C2B10606   9.999   8.599   7.360  0.0375 -0.0013 -0.0153
  726loPI   C3B10607  10.027   8.434   7.775  0.2634 -0.1451  0.0361
  726loPI   C4B10608   9.949   8.527   8.177 -0.3466  0.0474  0.1372
  727loPI    C110609   6.002  14.617   5.688 -0.2629  0.2371  0.1969
  727loPI    C210610   5.719  14.767   5.448 -0.3168  0.0682  0.1539
  727loPI    C310611   5.914  14.433   5.344 -0.3057  0.0217  0.3214
  727loPI   PO410612   5.993  14.890   5.936  0.3211  0.3295 -0.0312
  727loPI   GL110613   5.977  14.943   6.297  0.3788  0.2748 -0.1840
  727loPI   GL210614   5.911  15.220   6.397 -0.2027 -0.0651  0.1278
  727loPI   C1A10615   6.006  14.700   6.613 -0.1613  0.0114  0.2543
  727loPI   C2A10616   6.032  14.807   7.027 -0.0069 -0.0454 -0.0902
  727loPI   C3A10617   5.996  14.895   7.524  0.0657 -0.0508 -0.0221
  727loPI   C4A10618   6.092  15.084   7.918  0.0052 -0.1153 -0.1686
  727loPI   C5A10619   6.499  15.182   8.059 -0.5081  0.0364 -0.2551
  727loPI   C6A10620   6.870  14.823   8.169  0.0689 -0.0074  0.1292
  727loPI   C1B10621   5.940  15.207   6.810 -0.1800  0.2518 -0.1674
  727loPI   C2B10622   5.992  15.368   7.243 -0.2289  0.1316 -0.1310
  727loPI   C3B10623   6.002  15.461   7.630 -0.2453 -0.0632  0.0430
  727loPI   C4B10624   6.055  15.551   8.071  0.1271  0.1506  0.1149
  728loPI    C110625   6.329   9.013   5.888  0.1115  0.0779 -0.0558
  728loPI    C210626   6.430   9.084   5.508 -0.2922  0.1991 -0.1449
  728loPI    C310627   6.077   9.209   5.648 -0.2636 -0.0856  0.1953
  728loPI   PO410628   6.432   9.135   6.046 -0.2583 -0.1320 -0.2343
  728loPI   GL110629   6.550   8.897   6.341  0.1630  0.1206 -0.1506
  728loPI   GL210630   6.922   8.934   6.332  0.1972 -0.1480 -0.1000
  728loPI   C1A10631   6.425   8.930   6.766 -0.1431  0.2267 -0.2759
  728loPI   C2A10632   6.408   8.930   7.175 -0.0085  0.0427  0.1244
  728loPI   C3A10633   6.435   8.945   7.606 -0.0922 -0.1245  0.3280
  728loPI   C4A10634   6.527   8.986   8.016 -0.0553 -0.0475 -0.1003
  728loPI   C5A10635   6.603   9.070   8.361 -0.0488  0.0810  0.3662
  728loPI   C6A10636   6.513   9.336   8.660 -0.0723  0.0529  0.1697
  728loPI   C1B10637   6.963   8.827   6.738  0.0538  0.0818  0.2918
  728loPI   C2B10638   6.950   8.830   7.174 -0.0092  0.0163 -0.1429
  728loPI   C3B10639   7.015   8.843   7.541 -0.0902 -0.2231  0.0076
  728loPI   C4B10640   6.991   8.952   7.968 -0.3151  0.1251  0.1212
  729loPI    C110641   6.123  10.833   5.903 -0.1245  0.0915  0.0137
  729loPI    C210642   6.009  10.940   5.534 -0.0902  0.1311  0.0145
  729loPI    C310643   6.159  10.575   5.599 -0.1035  0.1214 -0.0093
  729loPI   PO410644   6.220  11.068   6.026 -0.2008 -0.2568 -0.0372
  729loPI   GL110645   6.231  11.165   6.409  0.2094 -0.0618  0.0088
  729loPI   GL210646   6.146  11.371   6.563  0.1262 -0.3951  0.2870
  729loPI   C1A10647   6.527  11.108   6.765  0.0282 -0.0472 -0.0894
  729loPI   C2A10648   6.649  11.214   7.160  0.0269  0.3087  0.2100
  729loPI   C3A10649   6.693  11.180   7.605 -0.1020 -0.5002 -0.0165
  729loPI   C4A10650   6.692  11.232   8.024  0.1145  0.0488 -0.2414
  729loPI   C5A10651   6.762  11.240   8.476 -0.2699  0.2083 -0.0384
  729loPI   C6A10652   6.847  11.217   8.955 -0.1215 -0.1802 -0.0562
  729loPI   C1B10653   6.129  11.431   6.976  0.1261  0.2303 -0.0753
  729loPI   C2B10654   6.279  11.469   7.460  0.1827  0.0426  0.0708
  729loPI   C3B10655   6.290  11.560   7.950 -0.1772 -0.1237  0.2645
  729loPI   C4B10656   6.238  11.283   8.345  0.1789  0.3511 -0.1052
  730loPI    C110657   1.412   6.230   5.793 -0.0067  0.1386 -0.1199
  730loPI    C210658   1.447   5.849   5.674  0.1786 -0.0170  0.4071
  730loPI    C310659   1.179   6.090   5.499 -0.0012 -0.4112  0.1261
  730loPI   PO410660   1.597   6.289   5.902  0.2494 -0.1908  0.2763
  730loPI   GL110661   1.676   6.330   6.183 -0.1317 -0.0481 -0.2722
  730loPI   GL210662   1.586   6.430   6.477  0.2229  0.2049  0.0434
  730loPI   C1A10663   1.931   6.124   6.590 -0.0248 -0.0830 -0.0555
  730loPI   C2A10664   1.865   6.113   7.099 -0.2577  0.2329  0.2335
  730loPI   C3A10665   1.847   6.087   7.473  0.1448  0.1573 -0.1862
  730loPI   C4A10666   1.841   6.132   7.936 -0.1240 -0.3074 -0.3111
  730loPI   C5A10667   1.761   6.437   8.369  0.2552 -0.3039  0.3237
  730loPI   C6A10668   1.774   6.699   8.635  0.0170 -0.4217  0.0398
  730loPI   C1B10669   1.450   6.363   6.920 -0.3642  0.3781  0.1264
  730loPI   C2B10670   1.348   6.171   7.259 -0.1377 -0.0292  0.2432
  730loPI   C3B10671   1.391   6.180   7.667 -0.0437  0.0702  0.0887
  730loPI   C4B10672   1.348   6.298   8.154 -0.4206 -0.0640 -0.1251
  731loPI    C110673  14.677   9.430   5.925  0.2433  0.0597  0.1964
  731loPI    C210674  15.031   9.416   5.740  0.2008 -0.1154  0.1263
  731loPI    C310675  14.694   9.368   5.531  0.1292  0.1505  0.1765
  731loPI   PO410676  14.738   9.669   6.119 -0.0567  0.0781 -0.2874
  731loPI   GL110677  14.873   9.578   6.508 -0.2615  0.1169 -0.1009
  731loPI   GL210678  14.728   9.316   6.584 -0.2193  0.1659  0.2088
  731loPI   C1A10679  14.982   9.697   6.937 -0.2639  0.1768  0.4643
  731loPI   C2A10680  14.994   9.787   7.280 -0.1017  0.0340 -0.1725
  731loPI   C3A10681  14.981   9.861   7.719  0.1127 -0.0799  0.2616
  731loPI   C4A10682  15.031   9.704   8.131  0.0981 -0.3369  0.0155
  731loPI   C5A10683  14.977   9.467   8.518  0.1182 -0.1619  0.0533
  731loPI   C6A10684  14.929   9.097   8.718  0.0454 -0.0728 -0.2706
  731loPI   C1B10685  14.681   9.291   7.065 -0.1864  0.1756 -0.0023
  731loPI   C2B10686  14.692   9.330   7.494  0.0480  0.1123  0.0748
  731loPI   C3B10687  14.688   9.324   7.968  0.0998 -0.2698  0.3819
  731loPI   C4B10688  14.614   9.144   8.300  0.0048  0.0026 -0.3740
  732loPI    C110689  17.186   3.458   6.013  0.1505  0.0487  0.0123
  732loPI    C210690  17.309   3.791   5.827 -0.0737  0.2633  0.2411
  732loPI    C310691  16.918   3.716   5.865 -0.0253 -0.1312  0.0138
  732loPI   PO410692  17.306   3.511   6.261 -0.0417  0.0726 -0.1046
  732loPI   GL110693  17.455   3.681   6.568 -0.1468 -0.1338 -0.1257
  732loPI   GL210694  17.122   3.648   6.700  0.1718 -0.0297  0.1245
  732loPI   C1A10695  17.715   3.625   6.863 -0.1051  0.2076  0.0296
  732loPI   C2A10696  17.783   3.589   7.363  0.1138  0.0198  0.0338
  732loPI   C3A10697  17.683   3.568   7.765 -0.1631  0.1127  0.0116
  732loPI   C4A10698  17.701   3.718   8.138  0.0501 -0.0871  0.0581
  732loPI   C5A10699  17.822   3.771   8.523  0.0761  0.0285  0.2447
  732loPI   C6A10700  18.067   3.611   8.864  0.0397 -0.1793  0.3159
  732loPI   C1B10701  17.278   3.635   7.108  0.3137 -0.0340  0.0466
  732loPI   C2B10702  17.258   3.590   7.493 -0.1867  0.2597  0.1056
  732loPI   C3B10703  17.139   3.671   7.879  0.2095  0.0246  0.2332
  732loPI   C4B10704  17.236   3.789   8.200 -0.0250  0.1376  0.2673
  733loPI    C110705   0.316   1.198   6.153  0.0421  0.0585  0.0295
  733loPI    C210706   0.390   1.080   5.778  0.0465  0.1235  0.0097
  733loPI    C310707   0.349   1.469   5.861  0.1102  0.1139  0.0880
  733loPI   PO410708   0.391   1.012   6.238  0.1975  0.0269  0.1189
  733loPI   GL110709   0.546   0.787   6.519 -0.1030 -0.1392 -0.2036
  733loPI   GL210710   0.549   1.078   6.693 -0.2146  0.0961  0.1248
  733loPI   C1A10711   0.549   0.687   7.015  0.0877  0.1712 -0.2754
  733loPI   C2A10712   0.526   0.772   7.430 -0.1700  0.0559  0.2412
  733loPI   C3A10713   0.538   0.830   7.966 -0.2013  0.0178 -0.3750
  733loPI   C4A10714   0.539   0.755   8.492 -0.4038  0.1251  0.0414
  733loPI   C5A10715   0.868   0.690   8.787  0.0258  0.2121  0.2630
  733loPI   C6A10716   1.135   0.586   9.169  0.0903  0.1978 -0.0518
  733loPI   C1B10717   0.380   1.263   7.031  0.2028 -0.2947 -0.0468
  733loPI   C2B10718   0.384   1.252   7.505 -0.1578  0.0878 -0.1534
  733loPI   C3B10719   0.386   1.305   7.947  0.1177 -0.1783 -0.0137
  733loPI   C4B10720   0.392   1.331   8.372 -0.3884  0.0351 -0.1239
  734loPI    C110721  12.345   2.060   5.982 -0.0347  0.0212 -0.0428
  734loPI    C210722  12.284   1.726   5.771 -0.1765  0.0878 -0.1083
  734loPI    C310723  12.496   2.026   5.613  0.0275 -0.0054 -0.0151
  734loPI   PO410724  12.390   1.950   6.277  0.0606  0.2700  0.0571
  734loPI   GL110725  12.130   1.905   6.601 -0.1818 -0.1540  0.3695
  734loPI   GL210726  12.213   1.601   6.653  0.0658 -0.1780  0.1348
  734loPI   C1A10727  11.818   2.006   6.897 -0.0356 -0.0627  0.2447
  734loPI   C2A10728  11.596   1.998   7.223 -0.0915 -0.0336  0.2097
  734loPI   C3A10729  11.600   1.923   7.647  0.0880  0.0846 -0.0047
  734loPI   C4A10730  11.651   1.815   8.120 -0.0743  0.0766 -0.1649
  734loPI   C5A10731  11.575   2.071   8.376  0.2384  0.2991 -0.1013
  734loPI   C6A10732  11.886   2.122   8.621 -0.0435 -0.1793  0.0124
  734loPI   C1B10733  12.190   1.665   7.090 -0.3537  0.0442 -0.0379
  734loPI   C2B10734  12.114   1.589   7.469 -0.4006  0.1504  0.4384
  734loPI   C3B10735  12.098   1.747   7.841 -0.2799 -0.1238 -0.0189
  734loPI   C4B10736  12.101   1.726   8.324 -0.1604  0.1530 -0.0532
  735loPI    C110737  17.176  13.945   6.053  0.0620 -0.0847  0.0267
  735loPI    C210738  17.433  14.156   5.830 -0.0050  0.0641  0.0890
  735loPI    C310739  17.135  13.954   5.655 -0.0448  0.1631  0.0415
  735loPI   PO410740  17.140  14.044   6.200 -0.0311  0.4443  0.2015
  735loPI   GL110741  17.356  14.125   6.589  0.0325  0.0173  0.5393
  735loPI   GL210742  17.234  14.412   6.629  0.2247 -0.1560 -0.0385
  735loPI   C1A10743  17.516  13.964   6.960  0.0454  0.3585  0.2003
  735loPI   C2A10744  17.472  14.021   7.362  0.0845  0.0504 -0.0295
  735loPI   C3A10745  17.441  14.162   7.799  0.0428 -0.1355 -0.1304
  735loPI   C4A10746  17.468  14.056   8.178 -0.2146  0.1525 -0.0200
  735loPI   C5A10747  17.372  14.169   8.556 -0.1021  0.0359 -0.1707
  735loPI   C6A10748  17.376  14.105   9.012  0.2405  0.1141 -0.2602
  735loPI   C1B10749  17.244  14.377   7.038 -0.1990  0.1211 -0.3401
  735loPI   C2B10750  17.302  14.474   7.409  0.1040 -0.0671  0.2822
  735loPI   C3B10751  17.213  14.578   7.837 -0.1746 -0.0373  0.1671
  735loPI   C4B10752  17.352  14.528   8.210 -0.1470  0.0458  0.2330
  736loPI    C110753  14.170   9.450   6.038  0.1396 -0.1175  0.0424
  736loPI    C210754  14.296   9.788   5.867 -0.1931 -0.0657 -0.1094
  736loPI    C310755  14.238   9.461   5.644 -0.1361 -0.1454 -0.0083
  736loPI   PO410756  14.302   9.403   6.254  0.3384  0.1880 -0.2684
  736loPI   GL110757  14.159   9.399   6.617  0.3968  0.0812  0.2826
  736loPI   GL210758  14.272   9.076   6.655  0.0219  0.1725  0.1760
  736loPI   C1A10759  14.198   9.409   7.008  0.2203  0.1021  0.2189
  736loPI   C2A10760  14.160   9.392   7.458 -0.1145 -0.1584  0.0635
  736loPI   C3A10761  14.172   9.428   7.924  0.0743 -0.0797  0.3145
  736loPI   C4A10762  14.096   9.349   8.337 -0.0526  0.0670 -0.1016
  736loPI   C5A10763  14.428   9.367   8.734 -0.0537 -0.2481 -0.0289
  736loPI   C6A10764  14.490   9.091   9.060 -0.0981  0.0440 -0.1178
  736loPI   C1B10765  14.380   8.932   7.008  0.1565 -0.1118  0.4208
  736loPI   C2B10766  14.366   8.892   7.453  0.0060 -0.0220 -0.1632
  736loPI   C3B10767  14.257   8.905   7.732  0.0284  0.1465  0.1285
  736loPI   C4B10768  14.284   8.779   8.178 -0.0086 -0.3056 -0.2161
  737loPI    C110769  10.561   3.043   5.526 -0.0264  0.3161  0.0304
  737loPI    C210770  10.262   2.808   5.403  0.0685  0.2598 -0.0942
  737loPI    C310771  10.559   2.903   5.152  0.3845 -0.0443  0.1550
  737loPI   PO410772  10.324   3.185   5.759 -0.0776  0.1670  0.1889
  737loPI   GL110773  10.257   3.284   6.104 -0.2827  0.4796 -0.0855
  737loPI   GL210774  10.201   3.536   6.150 -0.1963  0.1236 -0.0703
  737loPI   C1A10775  10.296   3.036   6.502  0.0600 -0.0166  0.0396
  737loPI   C2A10776  10.233   3.054   6.951  0.3413 -0.0549  0.3644
  737loPI   C3A10777  10.290   3.081   7.389 -0.0910  0.3883 -0.2093
  737loPI   C4A10778  10.294   3.129   7.824  0.1483 -0.0445  0.0424
  737loPI   C5A10779  10.238   2.995   8.243 -0.0471  0.1546 -0.0276
  737loPI   C6A10780  10.313   2.758   8.584  0.3422  0.2569  0.0105
  737loPI   C1B10781  10.153   3.576   6.603  0.0538  0.0417  0.1178
  737loPI   C2B10782  10.127   3.555   7.068  0.0338 -0.0028  0.0125
  737loPI   C3B10783  10.061   3.480   7.520 -0.2933 -0.0388 -0.2454
  737loPI   C4B10784  10.027   3.485   8.023  0.1013  0.0298 -0.0005
  738loPI    C110785  17.132  12.783   5.895 -0.1979  0.0419 -0.0117
  738loPI    C210786  17.003  12.405   5.875  0.0651 -0.0457 -0.0989
  738loPI    C310787  16.769  12.703   5.748 -0.0782 -0.1939 -0.1861
  738loPI   PO410788  17.254  12.761   6.134 -0.1633  0.1187 -0.1188
  738loPI   GL110789  17.091  12.955   6.568 -0.0470  0.0822 -0.0764
  738loPI   GL210790  17.402  12.678   6.658  0.2866 -0.1002  0.1203
  738loPI   C1A10791  17.330  13.102   6.920 -0.0805 -0.3278 -0.2368
  738loPI   C2A10792  17.318  13.162   7.376 -0.0532  0.2922 -0.0863
  738loPI   C3A10793  17.314  13.087   7.808  0.1184 -0.1379  0.0535
  738loPI   C4A10794  17.373  13.298   8.156 -0.2181  0.1031 -0.0705
  738loPI   C5A10795  17.559  13.245   8.551  0.0565 -0.0097 -0.0871
  738loPI   C6A10796  17.948  13.292   8.840 -0.1416 -0.2073 -0.0323
  738loPI   C1B10797  17.398  12.574   7.097  0.2349  0.1661  0.0773
  738loPI   C2B10798  17.520  12.711   7.543 -0.0834 -0.1222 -0.4243
  738loPI   C3B10799  17.621  12.710   8.007 -0.0916 -0.2349  0.3021
  738loPI   C4B10800  17.782  12.813   8.445  0.3527  0.0072  0.1966
  739loPI    C110801   3.604  10.623   6.241 -0.0041 -0.3387 -0.0790
  739loPI    C210802   3.233  10.707   6.118  0.0700  0.2602  0.0761
  739loPI    C310803   3.419  10.380   5.983 -0.4555  0.0296 -0.1155
  739loPI   PO410804   3.595  10.538   6.493 -0.1529 -0.1450  0.2621
  739loPI   GL110805   3.490  10.485   6.914  0.0560  0.0440 -0.1864
  739loPI   GL210806   3.467  10.844   7.015  0.0553  0.5843 -0.0907
  739loPI   C1A10807   3.703  10.468   7.296  0.1072 -0.0735  0.1851
  739loPI   C2A10808   3.643  10.584   7.578  0.1913 -0.0764  0.1136
  739loPI   C3A10809   3.692  10.379   7.979  0.1528 -0.0022  0.2437
  739loPI   C4A10810   3.691  10.250   8.353  0.2261  0.0260  0.3823
  739loPI   C5A10811   4.122  10.172   8.590  0.2383  0.0619  0.1893
  739loPI   C6A10812   4.132  10.160   9.026 -0.2509  0.0162 -0.0901
  739loPI   C1B10813   3.361  10.964   7.327  0.2680 -0.2132  0.1163
  739loPI   C2B10814   3.510  11.073   7.778  0.0798  0.4087  0.1138
  739loPI   C3B10815   3.502  10.819   8.193 -0.0016 -0.0132 -0.2116
  739loPI   C4B10816   3.694  10.812   8.596 -0.1453 -0.0778 -0.4304
  740loPI    C110817   6.370  16.219   5.766  0.0618  0.0622 -0.0851
  740loPI    C210818   6.143  15.980   5.539  0.0115  0.1768 -0.1562
  740loPI    C310819   5.982  16.301   5.716  0.0181  0.0118  0.1570
  740loPI   PO410820   6.565  16.089   5.993 -0.5269 -0.3646  0.1453
  740loPI   GL110821   6.580  16.194   6.388  0.3508  0.0432 -0.1357
  740loPI   GL210822   6.816  16.326   6.612  0.0322 -0.1682 -0.0315
  740loPI   C1A10823   6.484  16.043   6.825 -0.1763 -0.0314  0.2433
  740loPI   C2A10824   6.508  16.077   7.228  0.2280  0.1490  0.0841
  740loPI   C3A10825   6.512  16.170   7.671 -0.3234  0.0947 -0.1883
  740loPI   C4A10826   6.673  16.307   8.060  0.1245 -0.2055 -0.0053
  740loPI   C5A10827   6.949  16.073   8.391  0.0012 -0.2490 -0.0027
  740loPI   C6A10828   7.187  16.017   8.830 -0.0733  0.0681  0.0603
  740loPI   C1B10829   6.979  16.375   7.032 -0.0722  0.0402  0.0154
  740loPI   C2B10830   6.985  16.283   7.487  0.2888 -0.0935  0.2065
  740loPI   C3B10831   7.101  16.356   7.899 -0.1340 -0.0901  0.1075
  740loPI   C4B10832   7.072  16.561   8.331  0.2466 -0.2717 -0.0096
  741loPI    C110833  13.653   8.786   5.863  0.2614 -0.1808  0.0256
  741loPI    C210834  13.885   9.101   5.777  0.3028 -0.2165  0.0058
  741loPI    C310835  13.593   8.993   5.526  0.0310  0.0470  0.2027
  741loPI   PO410836  13.595   8.817   6.127  0.0458  0.0279  0.2171
  741loPI   GL110837  13.702   8.904   6.531 -0.0811  0.0192 -0.4061
  741loPI   GL210838  13.535   8.643   6.688 -0.2277 -0.1715  0.2264
  741loPI   C1A10839  13.859   9.007   6.898 -0.1121  0.0209 -0.1390
  741loPI   C2A10840  13.879   9.016   7.301 -0.0079 -0.1239  0.1258
  741loPI   C3A10841  13.736   8.955   7.679 -0.1192 -0.0270  0.2810
  741loPI   C4A10842  13.850   8.925   8.053 -0.1065  0.3109  0.1551
  741loPI   C5A10843  13.776   8.878   8.382  0.1739 -0.3081 -0.0032
  741loPI   C6A10844  13.664   8.755   8.841 -0.3096  0.0597  0.3375
  741loPI   C1B10845  13.527   8.645   7.183  0.2460 -0.1265 -0.0357
  741loPI   C2B10846  13.457   8.567   7.635  0.0049 -0.1149  0.0319
  741loPI   C3B10847  13.506   8.573   8.066  0.0477 -0.1428 -0.1493
  741loPI   C4B10848  13.454   8.414   8.471  0.0668 -0.1440  0.0406
  742loPI    C110849   9.695   4.853   5.631  0.1449  0.0324  0.1090
  742loPI    C210850   9.660   4.610   5.316 -0.0414 -0.1318  0.2536
  742loPI    C310851   9.797   4.983   5.267  0.2194 -0.2538  0.0253
  742loPI   PO410852   9.801   4.537   5.782  0.0186  0.0271  0.0530
  742loPI   GL110853   9.884   4.519   6.223 -0.1880  0.0012 -0.0539
  742loPI   GL210854  10.152   4.407   6.287 -0.1880 -0.0162  0.2657
  742loPI   C1A10855   9.778   4.499   6.695 -0.0811 -0.2521  0.2487
  742loPI   C2A10856   9.713   4.536   7.153 -0.3445  0.2607  0.0447
  742loPI   C3A10857   9.726   4.436   7.624  0.1338 -0.1995  0.2088
  742loPI   C4A10858   9.678   4.519   8.007  0.0446  0.1809 -0.0717
  742loPI   C5A10859   9.912   4.816   8.320 -0.1920 -0.0135  0.3899
  742loPI   C6A10860  10.330   4.930   8.241  0.1687  0.1869 -0.0414
  742loPI   C1B10861  10.287   4.401   6.666  0.0134 -0.2024  0.1603
  742loPI   C2B10862  10.352   4.381   7.152 -0.0366  0.1273  0.2993
  742loPI   C3B10863  10.311   4.420   7.612  0.0454  0.1494  0.0871
  742loPI   C4B10864  10.150   4.455   8.011 -0.3498 -0.0734  0.3065
  743loPI    C110865   9.811  12.646   6.330 -0.1275  0.1156 -0.1338
  743loPI    C210866   9.797  12.919   6.038  0.0254  0.0581 -0.1962
  743loPI    C310867  10.150  12.807   6.190 -0.0623  0.2209  0.1376
  743loPI   PO410868   9.759  12.620   6.550 -0.1530 -0.3046 -0.2138
  743loPI   GL110869   9.776  12.385   6.796  0.1771  0.1564 -0.1650
  743loPI   GL210870   9.460  12.418   6.952 -0.0030 -0.2373 -0.0057
  743loPI   C1A10871   9.894  12.441   7.211  0.0135  0.0998 -0.1517
  743loPI   C2A10872   9.964  12.378   7.582  0.0754 -0.0517 -0.1185
  743loPI   C3A10873   9.950  12.287   8.046 -0.1856  0.0359  0.3220
  743loPI   C4A10874  10.197  12.347   8.437 -0.0214  0.1967  0.2020
  743loPI   C5A10875  10.203  12.542   8.742 -0.0509 -0.1603 -0.2031
  743loPI   C6A10876  10.212  12.693   9.101 -0.2543  0.1170 -0.0662
  743loPI   C1B10877   9.379  12.555   7.289 -0.1340 -0.1716 -0.2477
  743loPI   C2B10878   9.478  12.518   7.722  0.5115  0.1802  0.1110
  743loPI   C3B10879   9.459  12.578   8.151  0.0739  0.2787 -0.3406
  743loPI   C4B10880   9.694  12.490   8.467 -0.0178  0.2217  0.0231
  744loPI    C110881   7.470   4.538   5.723  0.0820 -0.2477  0.0764
  744loPI    C210882   7.309   4.676   5.384  0.1303 -0.0965  0.1143
  744loPI    C310883   7.306   4.284   5.461  0.2210 -0.1440 -0.1137
  744loPI   PO410884   7.420   4.678   5.881 -0.1528 -0.0121  0.2025
  744loPI   GL110885   7.636   4.747   6.329 -0.0969  0.2023 -0.2078
  744loPI   GL210886   7.357   4.917   6.480  0.0093 -0.2476  0.0136
  744loPI   C1A10887   7.931   4.378   6.460  0.0067  0.1782  0.3760
  744loPI   C2A10888   7.947   4.306   6.867 -0.3035 -0.0630  0.3858
  744loPI   C3A10889   7.914   4.375   7.258 -0.1951 -0.1393 -0.4320
  744loPI   C4A10890   7.831   4.321   7.661  0.2633  0.1521  0.1764
  744loPI   C5A10891   7.877   4.309   8.096 -0.1101  0.0244 -0.3112
  744loPI   C6A10892   7.833   4.152   8.588 -0.0466  0.0703 -0.0444
  744loPI   C1B10893   7.698   4.799   6.825 -0.0094 -0.1707 -0.1369
  744loPI   C2B10894   7.727   4.812   7.168 -0.2278 -0.1656 -0.1985
  744loPI   C3B10895   7.596   4.758   7.541 -0.0643 -0.1716 -0.0318
  744loPI   C4B10896   7.579   4.772   8.029  0.0814  0.1153  0.1654
  745loPI    C110897  10.624   6.487   5.807  0.0233 -0.0573 -0.0765
  745loPI    C210898  10.378   6.364   5.516  0.2327 -0.2642 -0.1690
  745loPI    C310899  10.764   6.257   5.511  0.2977 -0.0487  0.0437
  745loPI   PO410900  10.503   6.434   6.000  0.1145 -0.0445  0.4069
  745loPI   GL110901  10.616   6.167   6.380  0.0670 -0.1634 -0.2745
  745loPI   GL210902  10.315   6.025   6.233 -0.5552 -0.1778  0.4089
  745loPI   C1A10903  10.522   6.156   6.764 -0.2620  0.0740  0.2113
  745loPI   C2A10904  10.596   6.110   7.258  0.4494  0.2344 -0.2034
  745loPI   C3A10905  10.484   6.157   7.654 -0.0276  0.0907  0.1136
  745loPI   C4A10906  10.513   6.099   8.080 -0.0544 -0.0835  0.1026
  745loPI   C5A10907  10.731   6.255   8.390  0.0787  0.2921  0.0920
  745loPI   C6A10908  11.028   6.618   8.407 -0.1839 -0.1451  0.0640
  745loPI   C1B10909  10.282   5.792   6.588 -0.1830  0.2842  0.3194
  745loPI   C2B10910  10.226   5.843   6.955  0.0252  0.4569 -0.0706
  745loPI   C3B10911  10.157   5.718   7.390 -0.1185  0.0804  0.2925
  745loPI   C4B10912  10.128   5.798   7.858  0.0227  0.0015  0.0137
  746loPI    C110913   2.030  11.940   6.649  0.3428 -0.1964 -0.0630
  746loPI    C210914   2.152  12.286   6.808 -0.3205  0.1157 -0.1970
  746loPI    C310915   2.229  12.204   6.424 -0.0878  0.0700 -0.1425
  746loPI   PO410916   2.045  11.777   6.823 -0.1547  0.0585 -0.3595
  746loPI   GL110917   1.963  11.799   7.213  0.1810 -0.0018 -0.0466
  746loPI   GL210918   2.061  12.174   7.282 -0.0077  0.0339  0.0559
  746loPI   C1A10919   1.975  11.773   7.639 -0.1032 -0.0808  0.0932
  746loPI   C2A10920   1.923  11.765   8.124  0.1317  0.4022  0.1780
  746loPI   C3A10921   1.863  11.719   8.574 -0.1557  0.2656  0.2820
  746loPI   C4A10922   1.538  11.676   8.899  0.0904 -0.1202  0.1175
  746loPI   C5A10923   1.334  12.080   9.030  0.0126 -0.0351  0.0560
  746loPI   C6A10924   1.013  12.279   9.105 -0.0500  0.0067 -0.1906
  746loPI   C1B10925   2.085  12.261   7.657  0.0255 -0.0666  0.1227
  746loPI   C2B10926   2.264  12.457   8.001 -0.0548  0.0016 -0.3087
  746loPI   C3B10927   2.313  12.563   8.324 -0.1129  0.1347 -0.2160
  746loPI   C4B10928   2.472  12.960   8.586  0.3145 -0.1248  0.0066
  747loPI    C110929   2.290  15.903   6.038 -0.0053  0.2545  0.0087
  747loPI    C210930   1.916  15.760   6.030 -0.0161  0.2821  0.0160
  747loPI    C310931   2.082  15.906   5.696  0.0460  0.1218 -0.0243
  747loPI   PO410932   2.357  16.052   6.247  0.0948  0.4168 -0.2781
  747loPI   GL110933   2.415  15.850   6.615 -0.2594 -0.1072  0.0899
  747loPI   GL210934   2.325  15.513   6.801  0.0969  0.2669  0.0652
  747loPI   C1A10935   2.339  16.067   6.963 -0.0658  0.0903 -0.0050
  747loPI   C2A10936   2.320  16.091   7.442 -0.2067  0.0617  0.3820
  747loPI   C3A10937   2.384  16.098   7.854 -0.0740  0.1677 -0.4292
  747loPI   C4A10938   2.254  16.119   8.352  0.0208 -0.0398 -0.2274
  747loPI   C5A10939   2.165  15.880   8.742  0.1532  0.0087 -0.0898
  747loPI   C6A10940   2.500  15.716   8.787 -0.1694  0.0387 -0.1040
  747loPI   C1B10941   2.334  15.641   7.200 -0.2022  0.0657 -0.0314
  747loPI   C2B10942   2.482  15.632   7.707 -0.3736  0.0631 -0.0111
  747loPI   C3B10943   2.457  15.703   8.157 -0.0477  0.1575  0.1316
  747loPI   C4B10944   2.382  15.377   8.459  0.1312 -0.2756  0.0391
  748loPI    C110945   5.924   7.350   5.713  0.0894 -0.0656  0.1260
  748loPI    C210946   6.052   7.261   5.345 -0.1145  0.1954 -0.0105
  748loPI    C310947   5.752   7.521   5.396 -0.2200  0.0121  0.3316
  748loPI   PO410948   6.114   7.176   5.857 -0.0961  0.3069 -0.1006
  748loPI   GL110949   6.321   7.174   6.185 -0.1671  0.3939  0.2448
  748loPI   GL210950   6.186   7.261   6.382 -0.3922 -0.0291 -0.1858
  748loPI   C1A10951   6.334   6.784   6.533 -0.0412  0.2071 -0.0150
  748loPI   C2A10952   6.447   6.739   6.851  0.0323 -0.1682 -0.2769
  748loPI   C3A10953   6.449   6.750   7.347 -0.3087 -0.1274 -0.1718
  748loPI   C4A10954   6.332   6.765   7.833 -0.1766  0.0710  0.0414
  748loPI   C5A10955   6.440   6.858   8.238  0.0733  0.0764 -0.1359
  748loPI   C6A10956   6.698   6.910   8.663 -0.1045 -0.1502  0.0354
  748loPI   C1B10957   6.268   7.206   6.768  0.0413 -0.2530  0.1588
  748loPI   C2B10958   6.283   7.150   7.134 -0.0457 -0.1691 -0.0042
  748loPI   C3B10959   6.250   7.252   7.537  0.1813 -0.1412 -0.2892
  748loPI   C4B10960   6.234   7.288   8.014  0.3420 -0.2389 -0.0021
  749loPI    C110961  13.914  10.003   6.135 -0.0264 -0.1078 -0.1550
  749loPI    C210962  13.528  10.061   6.051 -0.1134  0.0332  0.3130
  749loPI    C310963  13.793  10.351   5.981 -0.1307  0.0273  0.2218
  749loPI   PO410964  13.893   9.802   6.328 -0.1340  0.4400  0.2025
  749loPI   GL110965  13.651   9.610   6.590  0.0070 -0.0491 -0.0323
  749loPI   GL210966  13.439   9.816   6.567  0.0034 -0.2352  0.0390
  749loPI   C1A10967  13.653   9.514   6.977 -0.0984  0.1271 -0.0529
  749loPI   C2A10968  13.663   9.480   7.399 -0.0962  0.0958 -0.0050
  749loPI   C3A10969  13.620   9.403   7.888 -0.4157 -0.2004 -0.0162
  749loPI   C4A10970  13.583   9.494   8.373  0.0029 -0.1158 -0.2550
  749loPI   C5A10971  13.385   9.737   8.640  0.1686  0.1866  0.0444
  749loPI   C6A10972  13.641  10.197   8.724  0.0403 -0.0265 -0.0106
  749loPI   C1B10973  13.447   9.966   6.948 -0.0180 -0.3678 -0.3160
  749loPI   C2B10974  13.427  10.012   7.367 -0.1297  0.1000  0.3329
  749loPI   C3B10975  13.342   9.889   7.776 -0.0427  0.0262  0.0780
  749loPI   C4B10976  13.507  10.002   8.162 -0.2143 -0.2320  0.0479
  750loPI    C110977   2.523  14.680   5.798 -0.1608 -0.0271  0.2246
  750loPI    C210978   2.245  14.574   5.531  0.0547  0.1043 -0.0572
  750loPI    C310979   2.314  14.961   5.605 -0.1013  0.0682  0.2977
  750loPI   PO410980   2.538  14.518   6.012  0.2918 -0.1076  0.1617
  750loPI   GL110981   2.563  14.613   6.396 -0.2260 -0.0341 -0.1233
  750loPI   GL210982   2.380  14.486   6.621  0.0616  0.0277 -0.1404
  750loPI   C1A10983   2.833  14.702   6.813  0.0941  0.0135  0.1088
  750loPI   C2A10984   2.818  14.790   7.197 -0.1315  0.0026 -0.1244
  750loPI   C3A10985   2.860  14.878   7.627 -0.0691 -0.2267 -0.2688
  750loPI   C4A10986   2.844  14.801   8.060 -0.3230 -0.1773 -0.1205
  750loPI   C5A10987   2.609  14.847   8.374 -0.0580  0.0241 -0.1558
  750loPI   C6A10988   2.595  15.059   8.810 -0.1044 -0.2309  0.0315
  750loPI   C1B10989   2.377  14.553   7.060  0.0557  0.0651  0.2046
  750loPI   C2B10990   2.443  14.537   7.408 -0.0306 -0.2254  0.1744
  750loPI   C3B10991   2.436  14.517   7.867 -0.1528  0.0482 -0.0598
  750loPI   C4B10992   2.346  14.416   8.364  0.1684 -0.3006  0.1414
  751loPI    C110993  10.622   3.933   5.466 -0.2861 -0.1026 -0.1358
  751loPI    C210994  10.589   4.331   5.488 -0.0918 -0.0985  0.1310
  751loPI    C310995  10.834   4.166   5.219 -0.0579 -0.0324  0.1210
  751loPI   PO410996  10.553   3.834   5.668 -0.2609  0.0961 -0.2179
  751loPI   GL110997  10.644   3.778   5.966 -0.0102 -0.0331 -0.0847
  751loPI   GL210998  10.696   3.574   6.123 -0.0748  0.0826 -0.2795
  751loPI   C1A10999  10.452   3.988   6.435 -0.0648  0.0631 -0.0133
  751loPI   C2A11000  10.444   3.924   6.902  0.0126 -0.0506 -0.1115
  751loPI   C3A11001  10.549   3.981   7.352 -0.2222 -0.0437 -0.1530
  751loPI   C4A11002  10.404   3.954   7.746  0.3465 -0.0730  0.0155
  751loPI   C5A11003  10.261   3.988   8.167 -0.2644  0.1614  0.1554
  751loPI   C6A11004  10.119   4.012   8.544  0.1006 -0.2267 -0.0700
  751loPI   C1B11005  10.589   3.467   6.510  0.0506  0.0020  0.3600
  751loPI   C2B11006  10.591   3.453   6.975 -0.0089 -0.4505  0.0524
  751loPI   C3B11007  10.636   3.513   7.458  0.3244  0.1159 -0.0518
  751loPI   C4B11008  10.601   3.520   7.903 -0.1586  0.1060 -0.1687
  752loPI    C111009   7.042   9.847   6.133 -0.2278 -0.1544  0.1201
  752loPI    C211010   6.991  10.143   5.870 -0.0389 -0.0473  0.2017
  752loPI    C311011   6.934   9.764   5.757 -0.1628  0.0110  0.0639
  752loPI   PO411012   6.953   9.899   6.340  0.0735 -0.2021 -0.1167
  752loPI   GL111013   6.938   9.732   6.739  0.2669  0.1175 -0.0236
  752loPI   GL211014   6.823   9.463   6.666 -0.2874  0.1381  0.2145
  752loPI   C1A11015   7.090   9.689   7.146  0.0674  0.1391  0.0315
  752loPI   C2A11016   7.118   9.725   7.519  0.1611 -0.0843  0.2543
  752loPI   C3A11017   7.095   9.790   7.880 -0.0423  0.0290  0.0458
  752loPI   C4A11018   7.170   9.864   8.328 -0.3061  0.0976  0.0689
  752loPI   C5A11019   7.410   9.841   8.675  0.2117  0.3169 -0.1097
  752loPI   C6A11020   7.357   9.917   9.071  0.0293 -0.1588 -0.0921
  752loPI   C1B11021   6.783   9.288   7.029 -0.1454  0.1966  0.1525
  752loPI   C2B11022   6.782   9.338   7.392  0.0552 -0.0265 -0.1853
  752loPI   C3B11023   6.766   9.372   7.817 -0.4750  0.0889  0.0441
  752loPI   C4B11024   6.808   9.510   8.272 -0.1873 -0.0255  0.0554
  753loPI    C111025  14.517  12.596   5.980  0.1399 -0.0524 -0.0443
  753loPI    C211026  14.119  12.610   5.950  0.1359  0.1438  0.0856
  753loPI    C311027  14.345  12.815   5.693  0.1541  0.0261  0.0069
  753loPI   PO411028  14.636  12.706   6.266 -0.1362  0.1108  0.0679
  753loPI   GL111029  14.639  12.567   6.713 -0.2135  0.0002  0.0079
  753loPI   GL211030  14.953  12.838   6.806  0.0673 -0.2326  0.0766
  753loPI   C1A11031  14.642  12.687   7.135  0.2036  0.1702  0.1136
  753loPI   C2A11032  14.699  12.699   7.508  0.1539 -0.1332  0.4364
  753loPI   C3A11033  14.705  12.611   7.876  0.1803 -0.3059 -0.0229
  753loPI   C4A11034  14.742  12.606   8.342 -0.1340  0.1048 -0.0420
  753loPI   C5A11035  14.666  12.552   8.718 -0.1426  0.0039  0.2304
  753loPI   C6A11036  14.708  12.138   8.852 -0.2293  0.0189 -0.2114
  753loPI   C1B11037  15.048  12.973   7.261  0.0206  0.2616 -0.1056
  753loPI   C2B11038  15.017  13.040   7.717  0.1164 -0.0642 -0.0550
  753loPI   C3B11039  15.051  12.890   8.088 -0.0219  0.1959 -0.1805
  753loPI   C4B11040  15.142  12.824   8.605 -0.0591  0.1309  0.0980
  754loPI    C111041  14.548   0.467   5.818  0.1478  0.0196  0.0073
  754loPI    C211042  14.626   0.550   5.434 -0.0072 -0.0032 -0.0299
  754loPI    C311043  14.356   0.270   5.527  0.0370 -0.0046  0.0962
  754loPI   PO411044  14.824   0.422   5.962  0.3946  0.0191  0.2016
  754loPI   GL111045  14.879   0.498   6.337 -0.1648  0.0526  0.2362
  754loPI   GL211046  14.817   0.287   6.674 -0.2192  0.0386 -0.0727
  754loPI   C1A11047  14.878   0.761   6.694 -0.1267 -0.2084 -0.3325
  754loPI   C2A11048  14.911   0.912   7.143 -0.1214  0.1748 -0.0067
  754loPI   C3A11049  14.944   0.832   7.566  0.0180 -0.0169 -0.2103
  754loPI   C4A11050  14.894   0.775   8.032 -0.2249  0.2516 -0.3142
  754loPI   C5A11051  14.958   0.973   8.476 -0.1033  0.0621  0.1740
  754loPI   C6A11052  15.043   0.942   8.950  0.3109 -0.1107  0.2557
  754loPI   C1B11053  15.118   0.382   7.011  0.3836 -0.0168 -0.0259
  754loPI   C2B11054  15.132   0.290   7.420 -0.1054 -0.1491  0.2112
  754loPI   C3B11055  15.050   0.340   7.780 -0.0861  0.4603 -0.1215
  754loPI   C4B11056  15.084   0.313   8.196  0.1060  0.1324 -0.2640
  755loPI    C111057   7.058  16.295   5.999  0.0073  0.0719 -0.0061
  755loPI    C211058   7.085  16.615   5.761 -0.0727 -0.0498 -0.1804
  755loPI    C311059   6.876  16.294   5.643  0.1299 -0.2245 -0.0718
  755loPI   PO411060   7.180  16.371   6.182  0.0612  0.0505 -0.0397
  755loPI   GL111061   7.314  16.119   6.502  0.1533 -0.1784 -0.0078
  755loPI   GL211062   7.062  15.936   6.335 -0.3937 -0.0104  0.2297
  755loPI   C1A11063   7.524  15.935   6.858 -0.1158 -0.0610  0.0708
  755loPI   C2A11064   7.561  15.950   7.277  0.2040  0.2461 -0.2709
  755loPI   C3A11065   7.495  16.083   7.729  0.0788 -0.1075 -0.2849
  755loPI   C4A11066   7.405  15.988   8.160  0.1841 -0.1304  0.1865
  755loPI   C5A11067   7.307  15.625   8.336  0.0833 -0.1269  0.1365
  755loPI   C6A11068   7.482  15.314   8.705 -0.2926  0.0045  0.0266
  755loPI   C1B11069   6.922  15.860   6.655  0.1327 -0.3362  0.1258
  755loPI   C2B11070   7.072  15.799   7.055 -0.1468  0.0046 -0.1429
  755loPI   C3B11071   6.982  15.741   7.516  0.1841  0.3230 -0.0943
  755loPI   C4B11072   6.980  15.844   7.951 -0.1508 -0.1761  0.0503
  756loPI    C111073  13.223   1.984   5.948 -0.3324 -0.0205 -0.0434
  756loPI    C211074  13.196   1.730   5.640 -0.1166 -0.0277 -0.0580
  756loPI    C311075  12.984   2.070   5.639 -0.0764 -0.0020 -0.2394
  756loPI   PO411076  13.247   1.892   6.188  0.1011  0.3003 -0.0231
  756loPI   GL111077  12.911   1.943   6.518  0.0214  0.0120 -0.2678
  756loPI   GL211078  12.763   1.681   6.477 -0.0396 -0.0526 -0.1988
  756loPI   C1A11079  12.991   2.103   6.954  0.3328 -0.1079 -0.0321
  756loPI   C2A11080  12.961   2.099   7.337  0.0683 -0.1946 -0.1380
  756loPI   C3A11081  12.991   2.107   7.730  0.1155 -0.1659 -0.0743
  756loPI   C4A11082  13.040   2.126   8.137 -0.1695 -0.0087 -0.1722
  756loPI   C5A11083  13.091   2.055   8.514  0.2889 -0.0410  0.1834
  756loPI   C6A11084  12.922   1.781   8.930 -0.2704  0.0489  0.0936
  756loPI   C1B11085  12.647   1.780   6.935  0.0700 -0.1968  0.2484
  756loPI   C2B11086  12.632   1.746   7.414  0.0481 -0.1538 -0.1547
  756loPI   C3B11087  12.711   1.629   7.839  0.1029 -0.2245  0.0012
  756loPI   C4B11088  12.724   1.741   8.342 -0.1029 -0.1065  0.1582
  757loPI    C111089  10.905   3.499   5.601  0.0693  0.0154  0.1513
  757loPI    C211090  11.052   3.631   5.253 -0.0455 -0.0074  0.0936
  757loPI    C311091  10.901   3.262   5.279 -0.0828  0.0119  0.1549
  757loPI   PO411092  11.069   3.558   5.774  0.0366 -0.0954  0.0685
  757loPI   GL111093  11.172   3.406   6.136 -0.1673 -0.0271 -0.1523
  757loPI   GL211094  11.002   3.253   6.366  0.2640  0.1240 -0.0514
  757loPI   C1A11095  11.373   3.629   6.487  0.0381 -0.1336  0.1018
  757loPI   C2A11096  11.426   3.795   6.937  0.0088  0.1071  0.0718
  757loPI   C3A11097  11.485   3.796   7.449 -0.1479 -0.0240  0.3122
  757loPI   C4A11098  11.440   3.781   7.902  0.1866  0.0539 -0.0665
  757loPI   C5A11099  11.267   3.708   8.197  0.0691  0.2702 -0.0236
  757loPI   C6A11100  10.880   3.587   8.310  0.0560  0.0763 -0.1555
  757loPI   C1B11101  11.076   3.346   6.881 -0.0498  0.0148 -0.1162
  757loPI   C2B11102  11.102   3.363   7.347  0.3434  0.0062  0.2690
  757loPI   C3B11103  11.113   3.340   7.793 -0.1349 -0.1398 -0.1675
  757loPI   C4B11104  11.221   3.234   8.181  0.2010 -0.1675 -0.1907
  758loPI    C111105   0.174  15.024   6.009 -0.1209  0.0265  0.0271
  758loPI    C211106   0.146  15.100   5.617  0.0420  0.0612  0.0214
  758loPI    C311107   0.269  14.741   5.743 -0.1478  0.0023  0.0431
  758loPI   PO411108  -0.109  15.107   6.074 -0.2273  0.2209 -0.2932
  758loPI   GL111109  -0.155  14.984   6.553 -0.2021  0.2768  0.0882
  758loPI   GL211110   0.159  14.828   6.477 -0.0438 -0.1228  0.1791
  758loPI   C1A11111  -0.128  14.898   7.035  0.1443  0.2035 -0.4562
  758loPI   C2A11112  -0.214  14.974   7.495  0.0782 -0.2942 -0.2055
  758loPI   C3A11113  -0.178  15.081   7.902  0.2147 -0.2506 -0.2395
  758loPI   C4A11114  -0.131  15.035   8.302  0.0293 -0.0970 -0.3039
  758loPI   C5A11115  -0.142  15.155   8.725  0.2393 -0.0062 -0.0090
  758loPI   C6A11116  -0.235  15.530   8.940  0.0448  0.0057 -0.0442
  758loPI   C1B11117   0.301  14.724   6.922  0.1178 -0.0597  0.2735
  758loPI   C2B11118   0.301  14.885   7.306  0.2112  0.2358 -0.3705
  758loPI   C3B11119   0.254  14.924   7.726 -0.1344 -0.0490 -0.0846
  758loPI   C4B11120   0.418  15.072   8.135 -0.0480  0.1212  0.0077
  759loPI    C111121   9.120   9.663   6.364  0.0215 -0.0792  0.2895
  759loPI    C211122   9.327   9.667   6.022 -0.1028  0.1876  0.2145
  759loPI    C311123   9.118   9.342   6.125 -0.0774  0.1111  0.0297
  759loPI   PO411124   8.838   9.931   6.328  0.2565  0.0724 -0.3456
  759loPI   GL111125   8.618   9.867   6.621 -0.3997  0.0397  0.2102
  759loPI   GL211126   8.753   9.568   6.740  0.0913 -0.0188 -0.1885
  759loPI   C1A11127   8.497  10.048   6.993 -0.0418 -0.1371 -0.2833
  759loPI   C2A11128   8.494  10.051   7.435 -0.1468  0.2221  0.0189
  759loPI   C3A11129   8.413  10.020   7.814 -0.0350  0.1782  0.0847
  759loPI   C4A11130   8.295  10.007   8.204  0.0098 -0.1625 -0.1272
  759loPI   C5A11131   7.956   9.856   8.612  0.0391 -0.1991  0.3451
  759loPI   C6A11132   7.697  10.173   8.788  0.0775 -0.2258  0.2113
  759loPI   C1B11133   8.709   9.555   7.179  0.1133 -0.1147  0.1101
  759loPI   C2B11134   8.694   9.578   7.548  0.1288  0.1125 -0.0546
  759loPI   C3B11135   8.605   9.614   8.040 -0.0763  0.0524  0.0969
  759loPI   C4B11136   8.704   9.564   8.438  0.2743  0.1808  0.1072
  760loPI    C111137  17.198  17.082   5.818 -0.2021 -0.1200 -0.0994
  760loPI    C211138  17.493  16.850   5.679  0.0440  0.1616 -0.0577
  760loPI    C311139  17.341  17.140   5.449  0.0324  0.2345  0.0411
  760loPI   PO411140  17.281  17.160   6.071 -0.1212 -0.1423 -0.1180
  760loPI   GL111141  17.242  17.057   6.506  0.0302 -0.0645 -0.2066
  760loPI   GL211142  16.992  16.943   6.583  0.0480  0.4270  0.1288
  760loPI   C1A11143  17.248  17.314   6.927  0.0323  0.2668  0.1485
  760loPI   C2A11144  17.196  17.234   7.426 -0.1576 -0.0183  0.0885
  760loPI   C3A11145  17.151  17.380   7.904  0.2482 -0.4369  0.0265
  760loPI   C4A11146  17.071  17.310   8.437 -0.0888 -0.1529  0.0854
  760loPI   C5A11147  16.891  17.158   8.895  0.0774  0.4401 -0.0228
  760loPI   C6A11148  16.875  16.730   8.962 -0.0330 -0.2017  0.1937
  760loPI   C1B11149  16.950  16.908   6.995  0.0405  0.0911 -0.2029
  760loPI   C2B11150  16.870  16.862   7.456  0.0460 -0.1711 -0.0687
  760loPI   C3B11151  16.838  16.925   7.958  0.1388 -0.0099 -0.0618
  760loPI   C4B11152  16.734  16.916   8.472  0.1275  0.1375  0.0785
  761loPI    C111153   9.013   4.722   5.424  0.1284  0.0381 -0.1353
  761loPI    C211154   9.254   4.869   5.141  0.0159 -0.0502 -0.2786
  761loPI    C311155   8.909   4.695   5.039 -0.0308 -0.0733 -0.0856
  761loPI   PO411156   9.147   4.777   5.611 -0.0629 -0.2150 -0.1011
  761loPI   GL111157   9.327   4.797   6.003 -0.3036  0.0137 -0.1488
  761loPI   GL211158   9.393   4.508   6.065  0.1934 -0.0511 -0.1162
  761loPI   C1A11159   9.460   4.929   6.382 -0.0745  0.3459  0.0303
  761loPI   C2A11160   9.614   4.958   6.776 -0.0204  0.2199  0.0773
  761loPI   C3A11161   9.565   4.951   7.208  0.1571 -0.2796 -0.0590
  761loPI   C4A11162   9.609   4.962   7.595  0.1364  0.1845 -0.0661
  761loPI   C5A11163   9.458   4.985   8.067  0.1099  0.2007  0.0012
  761loPI   C6A11164   9.487   5.186   8.504 -0.1775 -0.0650 -0.0911
  761loPI   C1B11165   9.162   4.549   6.513 -0.3431  0.0796 -0.1486
  761loPI   C2B11166   9.188   4.580   6.966 -0.0236 -0.0834  0.0037
  761loPI   C3B11167   9.238   4.557   7.405 -0.4367  0.0292  0.5312
  761loPI   C4B11168   9.179   4.614   7.838  0.1897 -0.0406  0.1001
  762loPI    C111169  12.501   0.524   6.121 -0.2035  0.1789  0.0721
  762loPI    C211170  12.371   0.869   5.965 -0.1079  0.2388  0.1238
  762loPI    C311171  12.429   0.552   5.728 -0.0819  0.2933  0.0571
  762loPI   PO411172  12.389   0.450   6.363 -0.1562  0.0277  0.0755
  762loPI   GL111173  12.609   0.406   6.635 -0.1022  0.0759 -0.1948
  762loPI   GL211174  12.849   0.361   6.789 -0.2940 -0.1099 -0.0194
  762loPI   C1A11175  12.478   0.673   6.977  0.1061  0.1801  0.0557
  762loPI   C2A11176  12.494   0.763   7.472  0.0381  0.0196 -0.1500
  762loPI   C3A11177  12.551   0.746   7.988  0.1816 -0.1305 -0.0189
  762loPI   C4A11178  12.411   0.676   8.375 -0.2141 -0.0955  0.0433
  762loPI   C5A11179  12.576   0.835   8.790  0.0589  0.1518 -0.1819
  762loPI   C6A11180  12.916   0.723   9.062 -0.1341 -0.3960 -0.2696
  762loPI   C1B11181  12.769   0.290   7.214  0.3003  0.0085  0.3733
  762loPI   C2B11182  12.681   0.273   7.579  0.0101 -0.0547  0.3491
  762loPI   C3B11183  12.735   0.226   7.940 -0.0003  0.1677  0.1417
  762loPI   C4B11184  12.665   0.167   8.289  0.0254 -0.0654  0.1224
  763loPI    C111185  10.115   5.984   5.790  0.1504  0.1675  0.2290
  763loPI    C211186  10.261   5.898   5.428 -0.0877 -0.0063  0.1719
  763loPI    C311187  10.501   5.888   5.748  0.1601  0.2967  0.0017
  763loPI   PO411188   9.886   5.891   5.812 -0.0258  0.0761 -0.2192
  763loPI   GL111189   9.733   5.717   6.134 -0.2127  0.1499  0.4006
  763loPI   GL211190   9.455   5.622   6.164 -0.3137  0.0362 -0.0349
  763loPI   C1A11191   9.762   5.857   6.612  0.0461 -0.1925 -0.2207
  763loPI   C2A11192   9.672   5.913   7.071 -0.1553 -0.3379 -0.1730
  763loPI   C3A11193   9.673   5.830   7.484 -0.0391  0.0585 -0.0022
  763loPI   C4A11194   9.583   5.794   7.900  0.0499 -0.2383 -0.1650
  763loPI   C5A11195   9.449   5.621   8.376  0.1675 -0.2900 -0.2980
  763loPI   C6A11196   9.196   5.494   8.784  0.1687  0.0180  0.1621
  763loPI   C1B11197   9.351   5.523   6.609  0.2563 -0.3438  0.0495
  763loPI   C2B11198   9.338   5.543   7.025 -0.1199 -0.0128 -0.0360
  763loPI   C3B11199   9.292   5.451   7.407 -0.5328  0.0197 -0.1442
  763loPI   C4B11200   9.248   5.465   7.846  0.1058  0.3201  0.1570
  764loPI    C111201  13.902  17.121   6.160 -0.4308 -0.0715  0.0375
  764loPI    C211202  13.682  17.376   5.944 -0.1253 -0.0219 -0.2232
  764loPI    C311203  13.758  17.009   5.804  0.2570  0.0852 -0.3065
  764loPI   PO411204  13.830  17.200   6.444  0.1550  0.2848 -0.1767
  764loPI   GL111205  13.504  17.169   6.754 -0.0246  0.3262  0.0531
  764loPI   GL211206  13.322  16.983   6.716  0.0627 -0.1005  0.0537
  764loPI   C1A11207  13.246  17.483   7.005 -0.0822  0.2368  0.0757
  764loPI   C2A11208  13.162  17.482   7.452 -0.0992 -0.3385 -0.1589
  764loPI   C3A11209  13.237  17.571   7.815  0.2382 -0.0344  0.2317
  764loPI   C4A11210  13.160  17.453   8.154  0.3688 -0.2245 -0.2341
  764loPI   C5A11211  13.245  17.456   8.568  0.2356 -0.0704  0.0745
  764loPI   C6A11212  13.013  17.481   8.981  0.0803  0.0931 -0.2148
  764loPI   C1B11213  13.400  16.982   7.215  0.1265 -0.1314  0.0689
  764loPI   C2B11214  13.317  16.970   7.574 -0.0012  0.0501 -0.3553
  764loPI   C3B11215  13.453  17.033   8.113  0.4762  0.0158 -0.3764
  764loPI   C4B11216  13.512  16.837   8.450 -0.1170  0.1276  0.0458
  765loPI    C111217   6.892  12.782   5.584  0.2427  0.0997  0.1373
  765loPI    C211218   7.069  13.139   5.558  0.0344  0.2040  0.1343
  765loPI    C311219   6.998  12.927   5.226 -0.4280  0.4530  0.0644
  765loPI   PO411220   6.711  12.916   5.812  0.0511  0.2073 -0.1536
  765loPI   GL111221   6.705  13.194   6.233  0.0934 -0.1244  0.1281
  765loPI   GL211222   6.927  12.941   6.361 -0.1116  0.1627 -0.4888
  765loPI   C1A11223   6.495  13.395   6.516 -0.0821  0.1203 -0.2199
  765loPI   C2A11224   6.343  13.492   6.935 -0.0329  0.1394  0.2095
  765loPI   C3A11225   6.391  13.584   7.361  0.1191 -0.0648 -0.0407
  765loPI   C4A11226   6.415  13.535   7.725  0.1323 -0.0696 -0.1389
  765loPI   C5A11227   6.438  13.778   8.028  0.1611  0.2244 -0.0201
  765loPI   C6A11228   6.287  14.149   8.186  0.0902 -0.1016  0.2980
  765loPI   C1B11229   6.772  13.111   6.834 -0.0459 -0.2796  0.1660
  765loPI   C2B11230   6.808  13.293   7.235  0.0947  0.3300 -0.2766
  765loPI   C3B11231   6.841  13.270   7.691  0.4831 -0.0672 -0.0505
  765loPI   C4B11232   6.775  13.352   8.114  0.0374 -0.0236  0.0120
  766loPI    C111233   0.615  16.500   5.705 -0.1684  0.3130 -0.2086
  766loPI    C211234   0.589  16.710   5.366 -0.1357  0.1566 -0.3091
  766loPI    C311235   0.731  16.336   5.359  0.0844  0.2335 -0.0888
  766loPI   PO411236   0.587  16.575   5.862  0.1463 -0.3255  0.0647
  766loPI   GL111237   0.445  16.568   6.245  0.2688  0.0279 -0.1539
  766loPI   GL211238   0.766  16.546   6.359  0.2249  0.1086 -0.1622
  766loPI   C1A11239   0.320  16.540   6.614  0.0073 -0.0682 -0.0285
  766loPI   C2A11240   0.141  16.788   6.944 -0.1202  0.2163  0.1533
  766loPI   C3A11241   0.169  16.850   7.391  0.0744  0.0681  0.3764
  766loPI   C4A11242   0.030  16.861   7.705  0.1032 -0.2104  0.1334
  766loPI   C5A11243  -0.008  16.855   8.177  0.1569  0.0777 -0.4392
  766loPI   C6A11244  -0.082  16.870   8.650  0.1279 -0.2195  0.0819
  766loPI   C1B11245   0.796  16.370   6.793 -0.0198  0.0914  0.2103
  766loPI   C2B11246   0.790  16.243   7.191  0.0440 -0.3054 -0.1141
  766loPI   C3B11247   0.769  16.375   7.626  0.1463 -0.0041 -0.0900
  766loPI   C4B11248   0.718  16.319   7.967 -0.1408  0.2991 -0.3786
  767loPI    C111249  13.415   7.973   6.042  0.0301  0.1421  0.0442
  767loPI    C211250  13.431   8.344   5.893 -0.1953  0.0737 -0.1567
  767loPI    C311251  13.617   8.044   5.704  0.0055  0.0859  0.0178
  767loPI   PO411252  13.405   8.075   6.332  0.0297 -0.0555  0.1909
  767loPI   GL111253  13.209   7.808   6.624  0.1977  0.2381  0.2117
  767loPI   GL211254  12.869   7.861   6.528  0.0863 -0.0184 -0.1925
  767loPI   C1A11255  13.329   7.649   7.072  0.2324 -0.1456 -0.0122
  767loPI   C2A11256  13.350   7.602   7.495  0.2696  0.1302  0.0031
  767loPI   C3A11257  13.400   7.552   7.868  0.4623 -0.0337 -0.1904
  767loPI   C4A11258  13.419   7.434   8.244  0.1820 -0.0508 -0.0464
  767loPI   C5A11259  13.427   7.503   8.590 -0.0715 -0.3444 -0.2036
  767loPI   C6A11260  13.843   7.663   8.827  0.1501 -0.0162  0.1142
  767loPI   C1B11261  12.884   7.780   7.062  0.1024  0.0361 -0.3209
  767loPI   C2B11262  12.893   7.762   7.612  0.0583  0.2225  0.1837
  767loPI   C3B11263  12.884   7.651   7.990  0.0174  0.3432  0.1926
  767loPI   C4B11264  12.944   7.478   8.357  0.0750 -0.0960  0.0124
  768loPI    C111265   1.767  17.121   5.776 -0.0061 -0.0235 -0.0287
  768loPI    C211266   2.106  17.138   5.564  0.0174 -0.0892  0.0033
  768loPI    C311267   1.752  17.146   5.377  0.0382 -0.1761 -0.0405
  768loPI   PO411268   1.936  17.148   6.048 -0.1131 -0.0056 -0.0780
  768loPI   GL111269   1.985  17.451   6.493 -0.2143 -0.0707  0.1131
  768loPI   GL211270   2.119  17.690   6.450 -0.2116 -0.2550 -0.0538
  768loPI   C1A11271   2.189  17.443   6.883 -0.4430  0.0672  0.1577
  768loPI   C2A11272   2.314  17.434   7.314  0.1463  0.0005  0.1471
  768loPI   C3A11273   2.211  17.417   7.812 -0.1751  0.0686 -0.2443
  768loPI   C4A11274   2.143  17.438   8.275 -0.0105 -0.2467 -0.1340
  768loPI   C5A11275   2.299  17.303   8.674  0.1175  0.3501 -0.0865
  768loPI   C6A11276   2.467  16.927   8.918 -0.0351 -0.2656 -0.0714
  768loPI   C1B11277   2.067  17.907   6.871  0.0137 -0.0051 -0.0149
  768loPI   C2B11278   2.017  17.843   7.287 -0.0558 -0.0233  0.0588
  768loPI   C3B11279   2.070  17.862   7.785 -0.2233  0.0648  0.0319
  768loPI   C4B11280   2.057  17.954   8.276 -0.0389 -0.1528 -0.0215
  769loPI    C111281   0.098  12.273   6.096 -0.1159 -0.1209 -0.0599
  769loPI    C211282   0.235  12.524   5.816 -0.1174  0.0621  0.1009
  769loPI    C311283   0.217  12.131   5.742  0.4435  0.0368  0.0556
  769loPI   PO411284   0.219  12.282   6.317  0.0392 -0.3377  0.6251
  769loPI   GL111285   0.096  12.181   6.765  0.1048  0.3800 -0.1945
  769loPI   GL211286  -0.192  12.188   6.952  0.0568  0.0319  0.0085
  769loPI   C1A11287   0.200  11.923   7.131  0.0176 -0.0394  0.1301
  769loPI   C2A11288   0.229  11.919   7.529 -0.2413  0.1472  0.1318
  769loPI   C3A11289   0.374  11.978   7.915  0.1166  0.0168  0.1146
  769loPI   C4A11290   0.356  11.877   8.305  0.2289  0.1983 -0.2066
  769loPI   C5A11291   0.327  11.941   8.684  0.1292 -0.0803  0.1617
  769loPI   C6A11292   0.519  12.411   8.717  0.1106  0.1406  0.0464
  769loPI   C1B11293  -0.115  12.254   7.424  0.0484 -0.0806 -0.0860
  769loPI   C2B11294   0.038  12.289   7.786  0.0996 -0.0786 -0.0241
  769loPI   C3B11295   0.111  12.381   8.301 -0.0499 -0.2464  0.1551
  769loPI   C4B11296  -0.023  12.286   8.723 -0.1286  0.1892  0.2858
  770loPI    C111297   1.132   1.748   5.931 -0.1911 -0.3112 -0.1293
  770loPI    C211298   1.315   1.405   6.023  0.0350 -0.1994 -0.1545
  770loPI    C311299   1.342   1.552   5.652  0.3186  0.0720 -0.0312
  770loPI   PO411300   1.101   1.861   6.164 -0.0319 -0.1029  0.3664
  770loPI   GL111301   1.175   1.665   6.522  0.1435 -0.2651  0.3591
  770loPI   GL211302   1.449   1.426   6.557  0.0088  0.1382 -0.1427
  770loPI   C1A11303   1.215   1.652   7.000 -0.2363  0.1578  0.1345
  770loPI   C2A11304   1.141   1.519   7.404  0.0591  0.2543 -0.1789
  770loPI   C3A11305   1.206   1.569   7.887 -0.1037  0.0566  0.1535
  770loPI   C4A11306   1.284   1.697   8.325 -0.0988  0.2693  0.1721
  770loPI   C5A11307   1.650   1.659   8.577  0.1766  0.4587  0.1391
  770loPI   C6A11308   1.921   1.436   8.830  0.1608  0.2425  0.0586
  770loPI   C1B11309   1.454   1.153   6.907 -0.1629 -0.1437  0.0443
  770loPI   C2B11310   1.366   1.053   7.325  0.0026  0.0202  0.0464
  770loPI   C3B11311   1.392   1.095   7.686 -0.0160 -0.1502  0.0750
  770loPI   C4B11312   1.340   1.134   8.156 -0.1505  0.1798  0.3214
  771loPI    C111313  11.820   2.041   5.830  0.0439 -0.0469 -0.0934
  771loPI    C211314  12.049   2.345   5.706 -0.2692  0.1337 -0.2432
  771loPI    C311315  12.016   2.015   5.482 -0.0880  0.0700 -0.1778
  771loPI   PO411316  11.863   2.018   6.108 -0.1388 -0.1595 -0.3116
  771loPI   GL111317  11.625   2.162   6.404  0.0353 -0.0328 -0.1307
  771loPI   GL211318  11.817   2.433   6.577  0.1863 -0.1087  0.1499
  771loPI   C1A11319  11.358   1.966   6.717 -0.3084 -0.4058  0.1802
  771loPI   C2A11320  11.124   2.077   7.081 -0.2531  0.0054  0.2573
  771loPI   C3A11321  11.072   2.043   7.496  0.1966 -0.0339  0.0401
  771loPI   C4A11322  11.160   1.911   7.892  0.0073 -0.1630 -0.0400
  771loPI   C5A11323  11.163   1.821   8.347  0.1897  0.0026 -0.0948
  771loPI   C6A11324  11.489   1.734   8.721  0.0893 -0.1854  0.0347
  771loPI   C1B11325  11.921   2.427   7.058  0.1080 -0.1802 -0.1510
  771loPI   C2B11326  11.869   2.428   7.405 -0.0686  0.2968  0.1653
  771loPI   C3B11327  11.941   2.285   7.734  0.1035 -0.1057 -0.2782
  771loPI   C4B11328  12.003   2.202   8.113  0.0982 -0.0502  0.0488
  772loPI    C111329   5.180   4.171   5.702 -0.0720 -0.0851  0.0184
  772loPI    C211330   5.578   4.207   5.724 -0.0724 -0.0267 -0.0643
  772loPI    C311331   5.415   3.919   5.499 -0.0756 -0.1577  0.1040
  772loPI   PO411332   5.189   4.247   5.989 -0.0973 -0.1493  0.2312
  772loPI   GL111333   5.114   4.456   6.341 -0.0614 -0.0310  0.0874
  772loPI   GL211334   5.280   4.721   6.357  0.2032 -0.3086 -0.3550
  772loPI   C1A11335   5.030   4.206   6.661  0.2059 -0.2924 -0.3790
  772loPI   C2A11336   5.000   4.209   7.109 -0.3599 -0.1841  0.0905
  772loPI   C3A11337   4.929   4.217   7.470 -0.1246 -0.3814  0.0120
  772loPI   C4A11338   4.950   4.329   7.858 -0.1098 -0.0086  0.0610
  772loPI   C5A11339   4.891   4.323   8.323 -0.1655 -0.1193 -0.3311
  772loPI   C6A11340   4.927   4.084   8.638  0.1034 -0.1202 -0.1033
  772loPI   C1B11341   5.353   4.563   6.789 -0.1907  0.0657 -0.0100
  772loPI   C2B11342   5.322   4.614   7.249 -0.0064  0.1777  0.1649
  772loPI   C3B11343   5.257   4.668   7.659 -0.0206 -0.1340 -0.0380
  772loPI   C4B11344   5.259   4.712   8.024 -0.1039 -0.0268 -0.0011
  773loPI    C111345   7.536  13.338   5.575 -0.0007  0.2545 -0.0046
  773loPI    C211346   7.748  13.093   5.341  0.0093  0.0903  0.1745
  773loPI    C311347   7.477  13.338   5.179  0.3474  0.3193 -0.0606
  773loPI   PO411348   7.586  13.204   5.820 -0.2686  0.0827 -0.1583
  773loPI   GL111349   7.496  13.280   6.339  0.1126 -0.2537 -0.1111
  773loPI   GL211350   7.283  13.258   6.579  0.3604 -0.0896  0.0303
  773loPI   C1A11351   7.647  13.064   6.754 -0.2790  0.1308 -0.2878
  773loPI   C2A11352   7.643  13.108   7.170  0.0947  0.1183  0.2149
  773loPI   C3A11353   7.688  13.123   7.570 -0.0716 -0.0648 -0.0619
  773loPI   C4A11354   7.760  13.228   8.015  0.0272 -0.0656 -0.1568
  773loPI   C5A11355   7.612  13.313   8.454 -0.1957  0.1064 -0.1607
  773loPI   C6A11356   7.856  13.099   8.823 -0.0386 -0.3041 -0.0954
  773loPI   C1B11357   7.184  13.377   6.916 -0.2961  0.0906  0.0186
  773loPI   C2B11358   7.238  13.439   7.403 -0.0712  0.0629  0.2435
  773loPI   C3B11359   7.264  13.567   7.922  0.1925 -0.0578 -0.0747
  773loPI   C4B11360   7.009  13.775   8.207 -0.2079 -0.1639 -0.2731
  774loPI    C111361   2.165   8.122   5.983  0.0798 -0.0127 -0.1667
  774loPI    C211362   1.847   7.935   5.829  0.0923  0.0327 -0.2481
  774loPI    C311363   1.923   8.315   5.730  0.0328  0.1011 -0.0367
  774loPI   PO411364   2.194   8.163   6.263 -0.0444  0.2442 -0.0899
  774loPI   GL111365   2.513   8.106   6.555 -0.0764 -0.0293 -0.0590
  774loPI   GL211366   2.529   7.728   6.481 -0.1325 -0.2519 -0.0462
  774loPI   C1A11367   2.503   7.940   6.938 -0.0669  0.0657  0.1096
  774loPI   C2A11368   2.537   7.944   7.451 -0.1638 -0.0284 -0.2610
  774loPI   C3A11369   2.605   7.833   7.904 -0.1561 -0.0353 -0.1810
  774loPI   C4A11370   2.686   7.758   8.406 -0.1215  0.0155  0.1181
  774loPI   C5A11371   2.484   7.643   8.791 -0.0791 -0.2564  0.2035
  774loPI   C6A11372   2.121   7.455   8.858 -0.0340  0.3167 -0.3809
  774loPI   C1B11373   2.301   7.467   6.763  0.0012 -0.0544  0.2057
  774loPI   C2B11374   2.228   7.469   7.163  0.0869 -0.1678 -0.2299
  774loPI   C3B11375   2.302   7.478   7.588  0.0250 -0.3303  0.1971
  774loPI   C4B11376   2.303   7.412   8.010  0.0688 -0.2655 -0.2876
  775loPI    C111377  13.065  12.038   6.266 -0.0253  0.2713  0.0631
  775loPI    C211378  13.122  11.650   6.187  0.1651  0.3036  0.0371
  775loPI    C311379  13.101  11.914   5.887 -0.0197  0.3070  0.0519
  775loPI   PO411380  12.967  11.986   6.573  0.1202 -0.0056 -0.0916
  775loPI   GL111381  13.148  11.960   7.058 -0.0782  0.2126  0.1978
  775loPI   GL211382  13.424  12.135   6.942 -0.1096 -0.0466  0.0258
  775loPI   C1A11383  13.086  11.787   7.378 -0.1214 -0.1564  0.0230
  775loPI   C2A11384  13.114  11.866   7.796 -0.0549 -0.1596  0.1762
  775loPI   C3A11385  13.100  11.727   8.219  0.3076  0.0181 -0.2318
  775loPI   C4A11386  13.144  11.613   8.679 -0.3025  0.1043  0.0826
  775loPI   C5A11387  13.026  11.245   8.929 -0.1477  0.1191 -0.0366
  775loPI   C6A11388  13.056  10.823   9.108  0.0056 -0.0995  0.2922
  775loPI   C1B11389  13.348  12.220   7.453 -0.4059  0.0664  0.1484
  775loPI   C2B11390  13.394  12.274   7.930  0.1800 -0.0370  0.2138
  775loPI   C3B11391  13.460  12.156   8.383  0.1061  0.1972  0.0466
  775loPI   C4B11392  13.267  12.165   8.794 -0.0487 -0.0579  0.1979
  776loPI    C111393  11.049   7.981   6.138 -0.0536  0.0616  0.1729
  776loPI    C211394  10.819   8.219   5.914 -0.1764 -0.2281 -0.0153
  776loPI    C311395  11.177   8.103   5.779 -0.0875 -0.0982  0.1056
  776loPI   PO411396  10.952   7.815   6.262 -0.0362  0.0907  0.1533
  776loPI   GL111397  10.721   7.895   6.658 -0.2993 -0.0889 -0.0667
  776loPI   GL211398  10.790   8.067   6.887 -0.1178 -0.1008  0.0036
  776loPI   C1A11399  10.575   7.494   6.825  0.1514 -0.2160  0.0352
  776loPI   C2A11400  10.437   7.452   7.310  0.0645 -0.0925 -0.2948
  776loPI   C3A11401  10.411   7.572   7.752  0.0163 -0.0679  0.2232
  776loPI   C4A11402  10.416   7.501   8.254  0.0534 -0.1295 -0.0668
  776loPI   C5A11403  10.655   7.196   8.441 -0.0942  0.2559 -0.0971
  776loPI   C6A11404  10.758   6.856   8.810  0.1115  0.0096  0.0428
  776loPI   C1B11405  10.699   7.980   7.342 -0.2513 -0.1961 -0.0186
  776loPI   C2B11406  10.770   7.943   7.753  0.1283 -0.2901 -0.1817
  776loPI   C3B11407  10.771   7.941   8.235  0.1256 -0.2346  0.1318
  776loPI   C4B11408  10.733   8.122   8.671 -0.2887  0.1656 -0.0593
  777loPI    C111409  11.948   7.748   5.842 -0.2732  0.1063 -0.1489
  777loPI    C211410  11.990   7.400   5.650  0.1916  0.0372  0.0651
  777loPI    C311411  12.089   7.742   5.468 -0.0332  0.0377 -0.0593
  777loPI   PO411412  11.969   7.677   6.103  0.1848 -0.0687  0.1989
  777loPI   GL111413  11.884   7.512   6.426 -0.0896 -0.1189 -0.0668
  777loPI   GL211414  12.166   7.363   6.663 -0.0759 -0.2320 -0.3559
  777loPI   C1A11415  11.926   7.765   6.781  0.1923  0.2859  0.2289
  777loPI   C2A11416  12.002   7.822   7.186  0.1893 -0.0281  0.0962
  777loPI   C3A11417  11.915   7.881   7.617 -0.2541 -0.4007  0.0772
  777loPI   C4A11418  11.827   7.796   8.031  0.2684 -0.0356 -0.3376
  777loPI   C5A11419  11.830   7.746   8.465  0.1813 -0.0634 -0.3041
  777loPI   C6A11420  12.082   7.651   8.712 -0.2843 -0.0022  0.2217
  777loPI   C1B11421  12.010   7.319   6.998 -0.1592 -0.1693  0.1011
  777loPI   C2B11422  12.011   7.405   7.472 -0.1410 -0.0727 -0.0224
  777loPI   C3B11423  12.140   7.331   7.980  0.4520  0.0557  0.1345
  777loPI   C4B11424  12.114   7.277   8.329 -0.1104  0.1024 -0.1262
  778loPI    C111425   5.688  15.983   5.903  0.0758  0.1447 -0.0773
  778loPI    C211426   5.472  16.277   5.738 -0.4088 -0.1705 -0.0259
  778loPI    C311427   5.649  16.003   5.505  0.0432  0.1513 -0.0738
  778loPI   PO411428   5.556  16.046   6.166  0.0078 -0.0020 -0.0432
  778loPI   GL111429   5.834  16.176   6.552  0.0978 -0.1186 -0.4727
  778loPI   GL211430   6.111  16.274   6.634  0.1877  0.1475  0.1008
  778loPI   C1A11431   5.545  16.052   6.862 -0.1354  0.4176  0.0675
  778loPI   C2A11432   5.573  16.169   7.286 -0.1034 -0.0533 -0.0576
  778loPI   C3A11433   5.584  16.174   7.751  0.2705 -0.0598 -0.4531
  778loPI   C4A11434   5.729  16.293   8.073  0.0957 -0.0574  0.1494
  778loPI   C5A11435   5.930  16.167   8.483 -0.1611  0.3283  0.2570
  778loPI   C6A11436   5.984  15.733   8.619 -0.1572  0.1570  0.0827
  778loPI   C1B11437   6.023  16.281   7.028  0.0717 -0.1160 -0.0168
  778loPI   C2B11438   6.102  16.372   7.475 -0.0228 -0.0452 -0.0585
  778loPI   C3B11439   6.173  16.493   7.910 -0.1319  0.2514  0.1086
  778loPI   C4B11440   6.121  16.590   8.335 -0.0804  0.1028 -0.1070
  779loPI    C111441   1.730  11.754   6.212  0.0561 -0.0284  0.0276
  779loPI    C211442   2.128  11.759   6.177  0.0332  0.0248 -0.2454
  779loPI    C311443   1.911  12.065   6.038 -0.1058 -0.0185 -0.1260
  779loPI   PO411444   1.725  11.555   6.478  0.1443 -0.2073 -0.2811
  779loPI   GL111445   1.563  11.310   6.769 -0.1404 -0.3111  0.2026
  779loPI   GL211446   1.830  11.380   6.977 -0.1175  0.1054 -0.0033
  779loPI   C1A11447   1.507  11.059   7.219 -0.1088  0.1015  0.1804
  779loPI   C2A11448   1.490  11.065   7.678 -0.1769 -0.0883 -0.1097
  779loPI   C3A11449   1.522  10.855   8.104  0.4001  0.2172  0.1045
  779loPI   C4A11450   1.679  10.784   8.523  0.0345 -0.0355  0.3854
  779loPI   C5A11451   1.774  10.717   8.957  0.1113 -0.0980 -0.0878
  779loPI   C6A11452   1.843  10.503   9.339  0.1573 -0.0922  0.1199
  779loPI   C1B11453   1.958  11.232   7.432  0.0589 -0.0847  0.0152
  779loPI   C2B11454   2.072  11.346   7.816 -0.0318  0.0588  0.1462
  779loPI   C3B11455   2.330  11.549   8.215 -0.0947  0.0674 -0.1199
  779loPI   C4B11456   2.306  11.458   8.673 -0.0070  0.0358 -0.0999
  780loPI    C111457   6.301   7.594   5.600  0.2735  0.1148 -0.1350
  780loPI    C211458   6.510   7.484   5.277 -0.0986 -0.1814 -0.2825
  780loPI    C311459   6.212   7.749   5.242  0.0655  0.0289 -0.1215
  780loPI   PO411460   6.428   7.639   5.840 -0.0565 -0.1067  0.1737
  780loPI   GL111461   6.481   7.651   6.235  0.0020  0.2413  0.0280
  780loPI   GL211462   6.249   7.796   6.508  0.2902  0.2097  0.0543
  780loPI   C1A11463   6.621   7.512   6.645 -0.1548 -0.4359  0.1874
  780loPI   C2A11464   6.545   7.564   7.072 -0.0595 -0.1035 -0.0947
  780loPI   C3A11465   6.531   7.648   7.562  0.2217 -0.0681  0.1246
  780loPI   C4A11466   6.500   7.692   7.998  0.1702 -0.1471  0.0080
  780loPI   C5A11467   6.612   7.775   8.433  0.0286  0.0819 -0.0155
  780loPI   C6A11468   6.995   7.662   8.526 -0.0050 -0.1769 -0.2839
  780loPI   C1B11469   6.109   7.729   6.930 -0.1411 -0.1750  0.0995
  780loPI   C2B11470   6.065   7.743   7.360  0.0162 -0.2346 -0.3277
  780loPI   C3B11471   5.994   7.666   7.903 -0.3537  0.1953 -0.0592
  780loPI   C4B11472   6.110   7.743   8.380  0.0062  0.0066  0.0797
  781loPI    C111473  14.927  14.484   6.502  0.1594  0.0936 -0.0526
  781loPI    C211474  15.052  14.627   6.149 -0.0179  0.0734 -0.1245
  781loPI    C311475  14.768  14.345   6.162 -0.0045  0.0664  0.0344
  781loPI   PO411476  15.170  14.466   6.568  0.0332  0.0578 -0.0842
  781loPI   GL111477  15.281  14.371   6.937 -0.0976 -0.1275 -0.1698
  781loPI   GL211478  14.981  14.336   7.039 -0.1911 -0.0618  0.0297
  781loPI   C1A11479  15.406  14.326   7.292 -0.4363 -0.0880 -0.0474
  781loPI   C2A11480  15.510  14.403   7.739 -0.0035 -0.1016  0.0381
  781loPI   C3A11481  15.485  14.344   8.144  0.2328  0.1720  0.1036
  781loPI   C4A11482  15.364  14.311   8.532 -0.0047  0.0816 -0.1517
  781loPI   C5A11483  15.299  14.201   8.840 -0.4416  0.2584  0.1321
  781loPI   C6A11484  15.046  14.275   9.161  0.0586 -0.0749 -0.0611
  781loPI   C1B11485  14.984  14.310   7.540  0.1193  0.0690 -0.4355
  781loPI   C2B11486  14.983  14.389   7.995  0.0224  0.0527  0.3031
  781loPI   C3B11487  14.882  14.368   8.354 -0.0322  0.1850  0.1326
  781loPI   C4B11488  14.805  14.306   8.704  0.1514  0.2083 -0.2547
  782loPI    C111489   8.457  13.378   5.739 -0.0055  0.0826 -0.0047
  782loPI    C211490   8.076  13.279   5.670  0.0492 -0.0526 -0.1193
  782loPI    C311491   8.266  13.527   5.421 -0.0696  0.3013  0.1339
  782loPI   PO411492   8.443  13.349   6.034 -0.3315 -0.1027 -0.1564
  782loPI   GL111493   8.486  13.125   6.449  0.1633  0.1062  0.0179
  782loPI   GL211494   8.481  12.987   6.741 -0.1823 -0.1469  0.2587
  782loPI   C1A11495   8.140  13.313   6.713 -0.0717 -0.1100  0.3344
  782loPI   C2A11496   8.106  13.274   7.167 -0.2400  0.0481  0.0101
  782loPI   C3A11497   8.148  13.314   7.599 -0.0534  0.1838 -0.1147
  782loPI   C4A11498   8.152  13.456   8.017 -0.0088  0.2681 -0.2385
  782loPI   C5A11499   8.112  13.480   8.506  0.2794  0.0666  0.0020
  782loPI   C6A11500   7.918  13.593   8.799  0.0600  0.0894 -0.1553
  782loPI   C1B11501   8.556  13.006   7.157  0.0925 -0.0548 -0.2141
  782loPI   C2B11502   8.584  13.103   7.627 -0.4305  0.1626  0.0888
  782loPI   C3B11503   8.614  13.095   8.081  0.1039  0.2636 -0.1428
  782loPI   C4B11504   8.583  13.335   8.444 -0.0509 -0.2911 -0.0852
  783loPI    C111505   2.497   4.037   5.999 -0.0043 -0.3064 -0.2320
  783loPI    C211506   2.701   4.314   5.794  0.0231 -0.0900  0.0813
  783loPI    C311507   2.649   3.949   5.639  0.3062 -0.0254 -0.1747
  783loPI   PO411508   2.598   4.115   6.271  0.1264  0.2993  0.3038
  783loPI   GL111509   2.610   4.031   6.554  0.1506  0.1477  0.0490
  783loPI   GL211510   2.691   3.758   6.718  0.1790 -0.2424 -0.1720
  783loPI   C1A11511   2.627   4.226   6.952 -0.0728 -0.3002  0.0323
  783loPI   C2A11512   2.570   4.172   7.379 -0.0110  0.0746  0.1848
  783loPI   C3A11513   2.561   4.308   7.849 -0.1881 -0.1693 -0.1173
  783loPI   C4A11514   2.657   4.246   8.281  0.3010 -0.0727  0.1135
  783loPI   C5A11515   2.764   4.525   8.677 -0.1547  0.0573 -0.1510
  783loPI   C6A11516   2.617   4.815   8.934  0.1926 -0.2281 -0.2633
  783loPI   C1B11517   2.679   3.773   7.075  0.1906  0.2290 -0.2725
  783loPI   C2B11518   2.723   3.761   7.575  0.0428  0.3048  0.0496
  783loPI   C3B11519   2.720   3.763   7.974 -0.0262  0.0914  0.1076
  783loPI   C4B11520   2.795   3.730   8.398  0.3672 -0.0935 -0.1463
  784loPI    C111521   9.649  12.146   6.261 -0.1282 -0.0044  0.0082
  784loPI    C211522   9.522  12.354   5.944 -0.0491  0.0812  0.0322
  784loPI    C311523   9.683  11.991   5.894 -0.0018  0.1105 -0.0294
  784loPI   PO411524   9.535  12.133   6.447 -0.0615  0.0057 -0.4176
  784loPI   GL111525   9.147  12.097   6.671  0.0804 -0.4207  0.0835
  784loPI   GL211526   9.282  11.782   6.679  0.1614 -0.0268 -0.2568
  784loPI   C1A11527   9.026  12.222   7.100 -0.1870 -0.3010 -0.1174
  784loPI   C2A11528   8.922  12.245   7.497 -0.2695  0.1399  0.2576
  784loPI   C3A11529   8.940  12.266   7.905  0.1118 -0.1600  0.1393
  784loPI   C4A11530   9.109  12.297   8.356 -0.2111  0.1455  0.2195
  784loPI   C5A11531   9.255  12.624   8.657  0.1272  0.5282 -0.1446
  784loPI   C6A11532   9.252  12.661   9.063  0.2966 -0.0076 -0.1470
  784loPI   C1B11533   8.995  11.721   7.097  0.0062  0.0926 -0.2464
  784loPI   C2B11534   8.989  11.651   7.462 -0.1124 -0.1136 -0.1362
  784loPI   C3B11535   8.899  11.793   7.901  0.2022  0.1267  0.0046
  784loPI   C4B11536   8.986  11.800   8.333 -0.2143 -0.1258 -0.4333
  785loPI    C111537   7.419   6.129   5.786 -0.0670  0.0486  0.0045
  785loPI    C211538   7.177   6.371   5.578 -0.1630 -0.1162 -0.0782
  785loPI    C311539   7.378   6.081   5.391 -0.0784 -0.1258  0.0262
  785loPI   PO411540   7.329   6.078   6.017 -0.2652 -0.1790  0.4334
  785loPI   GL111541   7.209   5.925   6.378 -0.0624  0.1788  0.1557
  785loPI   GL211542   7.006   6.112   6.376  0.1489 -0.0053  0.1635
  785loPI   C1A11543   7.254   5.779   6.653  0.1565 -0.1060 -0.2035
  785loPI   C2A11544   7.359   5.810   7.053  0.1525  0.0250  0.2010
  785loPI   C3A11545   7.240   5.671   7.462  0.0525  0.1803 -0.1278
  785loPI   C4A11546   7.227   5.723   7.933  0.3372  0.0133 -0.0753
  785loPI   C5A11547   7.267   5.840   8.294  0.1595 -0.1142  0.1129
  785loPI   C6A11548   7.130   5.553   8.691  0.0059 -0.2733  0.1235
  785loPI   C1B11549   7.122   6.218   6.806  0.2031 -0.0712 -0.0418
  785loPI   C2B11550   7.126   6.182   7.316 -0.0380  0.1834  0.0268
  785loPI   C3B11551   7.041   6.197   7.714 -0.1420 -0.0676  0.1483
  785loPI   C4B11552   7.052   6.279   8.126  0.1307  0.0352  0.2482
  786loPI    C111553  15.478  11.412   6.291 -0.1431 -0.0753 -0.0836
  786loPI    C211554  15.197  11.490   6.018 -0.0319  0.0322 -0.1689
  786loPI    C311555  15.178  11.154   6.235 -0.4446  0.2249  0.1087
  786loPI   PO411556  15.465  11.444   6.517 -0.1682 -0.0261  0.1361
  786loPI   GL111557  15.669  11.392   6.797  0.1084 -0.1115 -0.0603
  786loPI   GL211558  15.859  11.186   6.857 -0.3677 -0.3202  0.0477
  786loPI   C1A11559  15.651  11.599   7.145 -0.2509 -0.0925  0.0592
  786loPI   C2A11560  15.724  11.527   7.736  0.1083 -0.1268  0.4302
  786loPI   C3A11561  15.636  11.465   8.172 -0.2308 -0.0221 -0.1820
  786loPI   C4A11562  15.740  11.156   8.465  0.0859 -0.1630 -0.2935
  786loPI   C5A11563  15.565  10.812   8.685  0.0643 -0.1034  0.2314
  786loPI   C6A11564  15.715  10.478   8.873  0.0923 -0.1924  0.0944
  786loPI   C1B11565  15.912  10.938   7.311 -0.4306  0.1204 -0.0371
  786loPI   C2B11566  15.919  10.986   7.778  0.0668  0.0754 -0.0310
  786loPI   C3B11567  16.076  11.003   8.155  0.1780 -0.0543 -0.0666
  786loPI   C4B11568  16.113  10.798   8.527 -0.1346 -0.3347 -0.1141
  787loPI    C111569   1.652  14.404   6.034  0.0403  0.0391  0.0592
  787loPI    C211570   2.000  14.420   6.231  0.0852  0.0494 -0.0209
  787loPI    C311571   1.940  14.652   5.910  0.0428 -0.0267 -0.0682
  787loPI   PO411572   1.507  14.363   6.170 -0.0865 -0.0419  0.5326
  787loPI   GL111573   1.366  14.509   6.582  0.0320  0.0303  0.0602
  787loPI   GL211574   1.638  14.303   6.619 -0.2309  0.0459  0.0203
  787loPI   C1A11575   1.283  14.733   7.085 -0.0825 -0.1341  0.1844
  787loPI   C2A11576   1.253  14.831   7.492 -0.0196  0.0412  0.3113
  787loPI   C3A11577   1.347  14.934   7.918 -0.1286 -0.1729 -0.0213
  787loPI   C4A11578   1.447  14.863   8.399 -0.2116  0.0475 -0.2749
  787loPI   C5A11579   1.586  14.441   8.543 -0.0626  0.1128  0.0204
  787loPI   C6A11580   1.600  14.113   8.760 -0.0938 -0.3775 -0.0960
  787loPI   C1B11581   1.490  14.241   6.973 -0.2437 -0.0170  0.0453
  787loPI   C2B11582   1.541  14.287   7.371  0.1733 -0.2782  0.4270
  787loPI   C3B11583   1.529  14.312   7.713 -0.1751  0.0829 -0.0341
  787loPI   C4B11584   1.530  14.491   8.097 -0.2698  0.0126  0.1845
  788loPI    C111585  10.842   8.945   6.236  0.0472  0.0057  0.0062
  788loPI    C211586  10.748   8.807   5.872  0.1204 -0.0281 -0.0001
  788loPI    C311587  10.715   9.198   5.953 -0.3044 -0.0767  0.0853
  788loPI   PO411588  10.804   8.784   6.381  0.0534  0.1757 -0.1047
  788loPI   GL111589  11.007   8.790   6.749 -0.0521  0.0656 -0.1141
  788loPI   GL211590  10.762   8.597   6.858  0.1417  0.1442  0.2695
  788loPI   C1A11591  10.977   8.857   7.186 -0.2543 -0.0180 -0.3467
  788loPI   C2A11592  10.831   8.862   7.520 -0.0551  0.1242 -0.1228
  788loPI   C3A11593  10.965   8.737   7.969  0.1684  0.1729  0.1292
  788loPI   C4A11594  10.729   8.841   8.300 -0.3110  0.1555  0.3531
  788loPI   C5A11595  10.690   8.811   8.639 -0.1140 -0.1999  0.0958
  788loPI   C6A11596  10.549   9.113   8.929 -0.1488  0.2127  0.2513
  788loPI   C1B11597  10.513   8.466   7.232 -0.0102 -0.1636  0.1960
  788loPI   C2B11598  10.513   8.381   7.613  0.0489  0.1294 -0.2588
  788loPI   C3B11599  10.547   8.348   8.040  0.0751  0.2427 -0.1640
  788loPI   C4B11600  10.467   8.396   8.396  0.0777 -0.1512 -0.2014
  789loPI    C111601  14.419   6.375   5.827  0.0331  0.0847  0.2126
  789loPI    C211602  14.721   6.407   5.567  0.0261 -0.0318  0.1896
  789loPI    C311603  14.474   6.716   5.626 -0.0455 -0.0450 -0.0324
  789loPI   PO411604  14.497   6.298   6.067  0.1553  0.1203 -0.2025
  789loPI   GL111605  14.516   6.208   6.522  0.3766 -0.3298 -0.3297
  789loPI   GL211606  14.778   6.019   6.577 -0.0292 -0.2326 -0.2374
  789loPI   C1A11607  14.529   6.113   6.961  0.2650  0.2226 -0.1649
  789loPI   C2A11608  14.434   6.048   7.422 -0.1771  0.0313 -0.2109
  789loPI   C3A11609  14.432   6.109   7.878  0.1137  0.1191  0.2637
  789loPI   C4A11610  14.572   6.006   8.336 -0.0106 -0.1915 -0.1935
  789loPI   C5A11611  14.403   5.820   8.776 -0.1425  0.0757  0.2438
  789loPI   C6A11612  14.109   5.527   8.989 -0.1657  0.1551 -0.0095
  789loPI   C1B11613  14.835   6.449   6.797  0.0537  0.1082 -0.1511
  789loPI   C2B11614  14.795   6.578   7.198 -0.1129 -0.0924 -0.1359
  789loPI   C3B11615  14.741   6.493   7.658  0.0512 -0.2054 -0.3207
  789loPI   C4B11616  14.864   6.368   8.034  0.0838  0.1539 -0.0850
  790loPI    C111617  11.662   5.584   5.792 -0.2207  0.2081 -0.0668
  790loPI    C211618  11.807   5.447   5.446  0.0310 -0.0453  0.1341
  790loPI    C311619  11.542   5.230   5.652 -0.0374  0.0557  0.1534
  790loPI   PO411620  11.890   5.783   5.922 -0.0371 -0.1019  0.0661
  790loPI   GL111621  11.986   5.584   6.373  0.0692 -0.0232 -0.0814
  790loPI   GL211622  11.685   5.724   6.364  0.0049 -0.0472 -0.1826
  790loPI   C1A11623  12.195   5.545   6.787 -0.0359  0.2068  0.0275
  790loPI   C2A11624  12.212   5.481   7.207  0.2759  0.1705  0.1853
  790loPI   C3A11625  12.340   5.436   7.563 -0.1707  0.2723 -0.3866
  790loPI   C4A11626  12.220   5.455   8.023 -0.1114  0.2249  0.0708
  790loPI   C5A11627  12.303   5.556   8.457  0.2666  0.0750  0.2143
  790loPI   C6A11628  12.283   5.890   8.709 -0.1618  0.1792  0.0154
  790loPI   C1B11629  11.650   5.609   6.784 -0.1248  0.0921 -0.1409
  790loPI   C2B11630  11.746   5.575   7.209  0.0647 -0.1535 -0.0882
  790loPI   C3B11631  11.832   5.504   7.610 -0.2650  0.1471  0.1219
  790loPI   C4B11632  11.725   5.644   7.958  0.2390  0.3851 -0.1077
  791loPI    C111633   9.742   9.060   5.830  0.1319  0.3288  0.2590
  791loPI    C211634   9.898   8.747   6.024  0.0109  0.1941  0.1419
  791loPI    C311635  10.100   8.918   5.724  0.0112  0.1328  0.1071
  791loPI   PO411636   9.612   9.224   6.033  0.0368 -0.2499  0.2285
  791loPI   GL111637   9.471   9.330   6.421  0.1635  0.0520  0.3037
  791loPI   GL211638   9.575   9.659   6.525  0.2606 -0.4286  0.2617
  791loPI   C1A11639   9.459   9.075   6.866  0.1835 -0.1485  0.1603
  791loPI   C2A11640   9.382   8.991   7.308  0.2547  0.0520  0.0720
  791loPI   C3A11641   9.317   9.048   7.736  0.0008  0.1418  0.1402
  791loPI   C4A11642   9.271   8.972   8.140  0.2511  0.2089  0.1221
  791loPI   C5A11643   9.535   8.953   8.485  0.1007  0.2164 -0.0199
  791loPI   C6A11644   9.729   8.557   8.791 -0.2998 -0.0657  0.0629
  791loPI   C1B11645   9.377   9.532   6.832 -0.0512 -0.2013 -0.1262
  791loPI   C2B11646   9.212   9.457   7.166 -0.0221 -0.0484 -0.1099
  791loPI   C3B11647   9.172   9.531   7.581 -0.1282  0.0182  0.1569
  791loPI   C4B11648   9.127   9.516   8.015  0.0606  0.1541 -0.1545
  792loPI    C111649  12.379   3.634   5.769 -0.0166  0.0307 -0.0226
  792loPI    C211650  12.306   3.998   5.619 -0.1534  0.0288  0.0381
  792loPI    C311651  12.279   3.675   5.384  0.2227  0.0798 -0.0810
  792loPI   PO411652  12.446   3.774   6.023 -0.2977  0.0390  0.0430
  792loPI   GL111653  12.514   3.912   6.390  0.1906 -0.0010  0.0519
  792loPI   GL211654  12.821   4.029   6.325 -0.1247 -0.2075 -0.1264
  792loPI   C1A11655  12.269   4.103   6.673  0.0949 -0.3810  0.4723
  792loPI   C2A11656  12.251   4.147   7.112 -0.0316 -0.0627  0.0424
  792loPI   C3A11657  12.375   4.145   7.505  0.0693  0.3476  0.0928
  792loPI   C4A11658  12.271   4.040   7.930 -0.0278 -0.1410  0.0660
  792loPI   C5A11659  12.227   3.987   8.345  0.2157  0.1880  0.0958
  792loPI   C6A11660  12.129   4.132   8.739 -0.0431  0.0567  0.2209
  792loPI   C1B11661  12.815   3.997   6.750  0.2128 -0.1189  0.1547
  792loPI   C2B11662  12.751   3.963   7.143  0.0096  0.0125  0.2558
  792loPI   C3B11663  12.878   4.093   7.465  0.1198 -0.0210 -0.0038
  792loPI   C4B11664  12.816   3.979   7.892  0.1008 -0.2196  0.0992
  793loPI    C111665   1.046   5.573   5.755  0.1132  0.0003 -0.0286
  793loPI    C211666   0.672   5.704   5.700  0.0622 -0.1839 -0.1276
  793loPI    C311667   0.797   5.370   5.517  0.2206 -0.2203  0.0436
  793loPI   PO411668   1.077   5.496   5.931 -0.1910  0.1528 -0.3286
  793loPI   GL111669   1.115   5.395   6.391 -0.1912 -0.1886  0.2418
  793loPI   GL211670   1.286   5.529   6.625  0.1092  0.1654  0.1343
  793loPI   C1A11671   0.784   5.526   6.672 -0.0257  0.0380  0.1590
  793loPI   C2A11672   0.692   5.512   7.163  0.0032 -0.1627  0.2464
  793loPI   C3A11673   0.715   5.437   7.633  0.1491 -0.0111  0.2061
  793loPI   C4A11674   0.641   5.443   8.075  0.3052 -0.1071  0.0472
  793loPI   C5A11675   0.647   5.634   8.538 -0.0219  0.1882  0.0212
  793loPI   C6A11676   0.739   6.039   8.737  0.2253 -0.1493  0.1396
  793loPI   C1B11677   1.250   5.490   6.965 -0.0752  0.0780 -0.0497
  793loPI   C2B11678   1.204   5.323   7.396  0.3145  0.0510  0.4730
  793loPI   C3B11679   1.092   5.335   7.876 -0.1190 -0.3256 -0.0364
  793loPI   C4B11680   1.092   5.408   8.257 -0.2736 -0.0804  0.0617
  794loPI    C111681   5.620   2.751   5.800  0.0726 -0.2746 -0.2547
  794loPI    C211682   6.019   2.774   5.801  0.0600  0.0264  0.0843
  794loPI    C311683   5.818   2.796   5.456  0.3116  0.3978 -0.0440
  794loPI   PO411684   5.623   2.637   6.056 -0.1981  0.0134 -0.1338
  794loPI   GL111685   5.615   2.913   6.348  0.3058  0.3434 -0.3234
  794loPI   GL211686   5.895   2.996   6.341 -0.0911 -0.0612  0.0800
  794loPI   C1A11687   5.599   2.748   6.842 -0.0494  0.2331 -0.0200
  794loPI   C2A11688   5.619   2.777   7.297  0.1924  0.1333  0.0720
  794loPI   C3A11689   5.515   2.796   7.664 -0.0462  0.1044  0.1274
  794loPI   C4A11690   5.570   2.802   8.117  0.0095  0.0465  0.2512
  794loPI   C5A11691   5.843   3.059   8.420 -0.0298 -0.0028  0.2038
  794loPI   C6A11692   5.914   3.484   8.436 -0.0913  0.0714 -0.2906
  794loPI   C1B11693   5.857   3.185   6.763 -0.2155 -0.0865  0.1200
  794loPI   C2B11694   5.943   3.186   7.101  0.0558  0.0650 -0.0459
  794loPI   C3B11695   5.848   3.236   7.466 -0.1049  0.1427  0.0153
  794loPI   C4B11696   5.883   3.080   7.889  0.0643 -0.2471 -0.2392
  795loPI    C111697   1.577   5.309   5.824  0.1745  0.0621  0.3816
  795loPI    C211698   1.809   5.509   5.568 -0.1855  0.0410  0.0284
  795loPI    C311699   1.832   5.110   5.589 -0.2810  0.0278 -0.1036
  795loPI   PO411700   1.589   5.419   6.057  0.0370  0.1003  0.1123
  795loPI   GL111701   1.663   5.268   6.447 -0.0543  0.2073 -0.3828
  795loPI   GL211702   1.876   5.586   6.514 -0.1380 -0.1699 -0.2007
  795loPI   C1A11703   1.716   5.311   6.886 -0.4275 -0.0359  0.0984
  795loPI   C2A11704   1.666   5.204   7.235 -0.0625  0.0813  0.0604
  795loPI   C3A11705   1.694   5.266   7.644  0.0264 -0.0698  0.2903
  795loPI   C4A11706   1.655   5.288   8.077  0.0322 -0.0211  0.1685
  795loPI   C5A11707   1.601   5.350   8.465 -0.1428 -0.4336 -0.0261
  795loPI   C6A11708   1.931   5.536   8.739 -0.1058 -0.0898  0.1555
  795loPI   C1B11709   2.087   5.663   6.840  0.0059 -0.0597  0.0936
  795loPI   C2B11710   2.045   5.611   7.270  0.2781  0.0355 -0.0977
  795loPI   C3B11711   2.026   5.631   7.716 -0.1209  0.0585 -0.0943
  795loPI   C4B11712   1.969   5.644   8.119  0.1375  0.0046 -0.0689
  796loPI    C111713  14.273   8.329   6.173  0.3049 -0.2836  0.0490
  796loPI    C211714  14.468   8.488   5.862  0.1048  0.1732  0.1481
  796loPI    C311715  14.069   8.510   5.880  0.1076  0.0601  0.3884
  796loPI   PO411716  14.407   8.469   6.338  0.0193 -0.0959 -0.0186
  796loPI   GL111717  14.577   8.250   6.718 -0.1758  0.0206 -0.0461
  796loPI   GL211718  14.821   8.378   6.607  0.0487 -0.2547  0.1537
  796loPI   C1A11719  14.638   8.533   7.099  0.2714  0.0408  0.1077
  796loPI   C2A11720  14.574   8.360   7.487 -0.0359 -0.4314 -0.1032
  796loPI   C3A11721  14.501   8.401   7.932 -0.1293 -0.3093 -0.0969
  796loPI   C4A11722  14.459   8.289   8.265  0.3925  0.0377 -0.0913
  796loPI   C5A11723  14.486   8.230   8.656 -0.2146 -0.0688 -0.0289
  796loPI   C6A11724  14.354   8.180   9.120 -0.0825  0.1588  0.3597
  796loPI   C1B11725  15.033   8.315   6.965  0.1829  0.1519 -0.1133
  796loPI   C2B11726  15.073   8.396   7.347  0.3246 -0.0400  0.1128
  796loPI   C3B11727  14.957   8.264   7.800  0.0266  0.0852  0.0162
  796loPI   C4B11728  15.111   8.228   8.189  0.0386  0.2363  0.0445
  797loPI    C111729   2.301   1.774   5.736 -0.3199 -0.1623 -0.1494
  797loPI    C211730   2.685   1.842   5.648 -0.2680 -0.0496  0.1524
  797loPI    C311731   2.420   1.785   5.354 -0.0543  0.0521 -0.0635
  797loPI   PO411732   2.276   1.691   6.043  0.0858  0.2905  0.1994
  797loPI   GL111733   2.231   1.895   6.442  0.0905  0.0588  0.1367
  797loPI   GL211734   2.003   1.748   6.476 -0.1749 -0.1636  0.1163
  797loPI   C1A11735   2.353   1.977   6.912 -0.0732 -0.0428 -0.3057
  797loPI   C2A11736   2.446   1.926   7.367  0.2076  0.2009 -0.0792
  797loPI   C3A11737   2.437   1.936   7.821 -0.1077 -0.1139 -0.3606
  797loPI   C4A11738   2.520   1.791   8.142 -0.2032 -0.0645 -0.3697
  797loPI   C5A11739   2.581   1.957   8.462 -0.0946  0.0131 -0.1991
  797loPI   C6A11740   2.491   2.159   8.825  0.1065 -0.3436 -0.1321
  797loPI   C1B11741   1.700   1.572   6.903 -0.2240 -0.2028 -0.0509
  797loPI   C2B11742   1.632   1.481   7.275  0.0028 -0.0318 -0.0885
  797loPI   C3B11743   1.680   1.538   7.600  0.0087  0.0273 -0.0432
  797loPI   C4B11744   1.682   1.531   8.035 -0.1394  0.0728  0.1456
  798loPI    C111745   1.865   1.446   6.006 -0.0841  0.0214 -0.2559
  798loPI    C211746   1.661   1.224   5.742  0.0825 -0.1637 -0.2317
  798loPI    C311747   2.046   1.310   5.676  0.0625 -0.0149 -0.1613
  798loPI   PO411748   1.821   1.333   6.231 -0.1839 -0.1122 -0.0343
  798loPI   GL111749   1.733   0.976   6.599 -0.1891  0.0179  0.1321
  798loPI   GL211750   1.715   0.697   6.569 -0.1927 -0.1583 -0.1333
  798loPI   C1A11751   1.930   1.093   7.006  0.0425 -0.2537 -0.0791
  798loPI   C2A11752   1.861   1.010   7.408 -0.1209 -0.2102 -0.0048
  798loPI   C3A11753   1.840   1.085   7.830  0.1646 -0.1612 -0.0377
  798loPI   C4A11754   1.847   1.094   8.344 -0.6236  0.1683  0.1659
  798loPI   C5A11755   1.871   0.906   8.805  0.1392  0.1016 -0.1801
  798loPI   C6A11756   1.549   0.992   9.156 -0.1533  0.0711  0.2001
  798loPI   C1B11757   1.608   0.691   7.072  0.3017 -0.1181 -0.0991
  798loPI   C2B11758   1.545   0.600   7.577  0.0398 -0.3452  0.1922
  798loPI   C3B11759   1.545   0.680   8.056 -0.0401  0.0567 -0.2719
  798loPI   C4B11760   1.526   0.679   8.523  0.1609 -0.0736  0.1305
  799loPI    C111761  14.569  17.292   6.063  0.0045 -0.1748  0.0201
  799loPI    C211762  14.304  17.102   5.832  0.0626 -0.1405 -0.0757
  799loPI    C311763  14.694  17.081   5.746  0.0856 -0.1388  0.0278
  799loPI   PO411764  14.388  17.284   6.351 -0.1926 -0.1384 -0.2376
  799loPI   GL111765  14.692  17.125   6.686 -0.2477  0.1992  0.1215
  799loPI   GL211766  14.542  16.882   6.804 -0.0899  0.0314 -0.1185
  799loPI   C1A11767  14.760  17.217   7.089  0.3810 -0.2840  0.0181
  799loPI   C2A11768  14.776  17.214   7.451  0.1897  0.1920 -0.0722
  799loPI   C3A11769  14.733  17.311   7.963  0.0121  0.1419  0.0868
  799loPI   C4A11770  14.703  17.231   8.389 -0.2945 -0.0258 -0.1252
  799loPI   C5A11771  14.894  17.496   8.700  0.2582  0.1851  0.0524
  799loPI   C6A11772  15.176  17.845   8.637  0.0592 -0.2559 -0.0249
  799loPI   C1B11773  14.442  16.822   7.147 -0.1061 -0.0581 -0.2445
  799loPI   C2B11774  14.290  16.826   7.589 -0.2167  0.2609 -0.2439
  799loPI   C3B11775  14.480  16.890   8.023  0.3101 -0.0439  0.0518
  799loPI   C4B11776  14.485  16.710   8.382 -0.0495 -0.0651  0.0707
  800loPI    C111777   0.341   8.198   6.041 -0.0443  0.0747 -0.1059
  800loPI    C211778   0.335   8.542   6.244 -0.1265  0.0630 -0.0882
  800loPI    C311779   0.293   8.544   5.847 -0.3844  0.0550 -0.0626
  800loPI   PO411780   0.470   7.991   6.269 -0.1484  0.0646  0.1436
  800loPI   GL111781   0.683   8.101   6.659  0.0748 -0.0631  0.4799
  800loPI   GL211782   0.507   8.362   6.706  0.0135  0.0162 -0.0977
  800loPI   C1A11783   0.799   7.877   7.044  0.3780  0.0586  0.0734
  800loPI   C2A11784   0.848   7.837   7.499 -0.2899 -0.3367 -0.0602
  800loPI   C3A11785   0.863   7.698   7.930  0.0032 -0.0839  0.2540
  800loPI   C4A11786   0.792   7.528   8.343  0.2805 -0.0968  0.0304
  800loPI   C5A11787   0.603   7.709   8.660  0.0568  0.3202  0.2085
  800loPI   C6A11788   0.245   7.837   8.957  0.1110  0.0135 -0.2223
  800loPI   C1B11789   0.547   8.327   7.233 -0.1755 -0.0719 -0.1265
  800loPI   C2B11790   0.636   8.277   7.660  0.2545 -0.1753 -0.2150
  800loPI   C3B11791   0.652   8.352   8.046 -0.2847  0.1680 -0.0303
  800loPI   C4B11792   0.677   8.228   8.487 -0.2008  0.2111 -0.2447
  801loPI    C111793   6.552   0.139   6.033 -0.0634 -0.1040  0.2433
  801loPI    C211794   6.163   0.048   6.013 -0.1062  0.1188 -0.0029
  801loPI    C311795   6.348   0.207   5.696  0.1857  0.0214  0.1144
  801loPI   PO411796   6.536   0.206   6.262 -0.0717 -0.3883  0.1581
  801loPI   GL111797   6.756   0.099   6.556  0.4430 -0.1670 -0.0823
  801loPI   GL211798   7.030   0.306   6.487 -0.2803  0.2552  0.1682
  801loPI   C1A11799   6.653   0.253   7.020 -0.1166 -0.0647  0.0479
  801loPI   C2A11800   6.610   0.395   7.533 -0.2495 -0.1868  0.0718
  801loPI   C3A11801   6.629   0.502   7.986 -0.2316 -0.2625 -0.1452
  801loPI   C4A11802   6.763   0.330   8.385  0.0153  0.1841  0.1091
  801loPI   C5A11803   6.531   0.500   8.714  0.1049  0.1503 -0.1087
  801loPI   C6A11804   6.412   0.882   8.928  0.2146 -0.0448 -0.0033
  801loPI   C1B11805   7.088   0.585   6.755  0.2833 -0.1047  0.1708
  801loPI   C2B11806   7.106   0.593   7.133 -0.0652 -0.0977 -0.1137
  801loPI   C3B11807   7.111   0.629   7.573 -0.3749 -0.0718  0.1912
  801loPI   C4B11808   7.078   0.678   8.040 -0.2171  0.1175  0.1079
  802loPI    C111809   6.089  12.075   6.087 -0.0284  0.0278 -0.1677
  802loPI    C211810   6.240  12.015   5.721 -0.1317 -0.0878 -0.1920
  802loPI    C311811   5.867  11.897   5.806 -0.1100 -0.0568 -0.0508
  802loPI   PO411812   6.179  12.296   6.145  0.1354 -0.0802  0.1230
  802loPI   GL111813   6.098  12.476   6.397  0.2954  0.0026 -0.0801
  802loPI   GL211814   5.896  12.238   6.558  0.0185 -0.0381  0.2249
  802loPI   C1A11815   6.224  12.485   6.772 -0.2504 -0.0560  0.0897
  802loPI   C2A11816   6.276  12.529   7.247  0.1129  0.0666  0.1078
  802loPI   C3A11817   6.334  12.525   7.702 -0.0009 -0.0614 -0.1139
  802loPI   C4A11818   6.391  12.491   8.189 -0.1165 -0.2953 -0.3634
  802loPI   C5A11819   6.577  12.516   8.596  0.1761  0.0869  0.2578
  802loPI   C6A11820   6.510  12.736   9.040  0.2078  0.3148  0.1941
  802loPI   C1B11821   5.826  12.216   6.946  0.1679 -0.2665  0.0280
  802loPI   C2B11822   5.819  12.244   7.302  0.1357  0.0266  0.0991
  802loPI   C3B11823   5.896  12.324   7.687 -0.2124  0.1998  0.0443
  802loPI   C4B11824   5.927  12.380   8.076 -0.1963 -0.0637  0.0420
  803loPI    C111825   7.232  13.768   5.311 -0.0314  0.1393  0.2452
  803loPI    C211826   6.932  13.513   5.239 -0.0196  0.1826  0.0361
  803loPI    C311827   7.073  13.745   4.944  0.2205  0.1622  0.1323
  803loPI   PO411828   7.265  13.846   5.598  0.0254  0.0967 -0.1764
  803loPI   GL111829   7.277  13.926   6.069 -0.0996 -0.2488  0.0517
  803loPI   GL211830   7.244  14.247   6.147  0.1821 -0.0294  0.3091
  803loPI   C1A11831   7.267  13.887   6.605 -0.2451 -0.3994  0.1208
  803loPI   C2A11832   7.316  13.835   7.038 -0.0129 -0.3601 -0.1140
  803loPI   C3A11833   7.293  13.944   7.447 -0.0892  0.0513  0.3691
  803loPI   C4A11834   7.226  14.049   7.824  0.1164 -0.1622  0.1305
  803loPI   C5A11835   7.067  14.305   8.236 -0.1766  0.1129  0.2570
  803loPI   C6A11836   6.723  14.462   8.445  0.2325  0.2300 -0.1724
  803loPI   C1B11837   7.327  14.340   6.608 -0.0428 -0.0646 -0.1106
  803loPI   C2B11838   7.376  14.357   7.048  0.1514 -0.0549  0.1130
  803loPI   C3B11839   7.309  14.437   7.527  0.1697  0.1225 -0.0657
  803loPI   C4B11840   7.292  14.549   7.900 -0.0024 -0.0764  0.2031
  804loPI    C111841   8.509   4.155   5.666  0.0772  0.1526 -0.2079
  804loPI    C211842   8.144   4.280   5.560 -0.0696 -0.0338  0.0647
  804loPI    C311843   8.319   3.982   5.360  0.0223  0.1911 -0.1958
  804loPI   PO411844   8.571   4.096   5.920  0.3576  0.1765 -0.0394
  804loPI   GL111845   8.496   3.906   6.337 -0.0345  0.2193  0.2194
  804loPI   GL211846   8.284   3.625   6.231  0.0539 -0.0044  0.0005
  804loPI   C1A11847   8.548   3.770   6.716 -0.0643  0.3615 -0.2457
  804loPI   C2A11848   8.557   3.757   7.276 -0.1171 -0.2474  0.0331
  804loPI   C3A11849   8.548   3.833   7.662 -0.0706 -0.2969  0.3326
  804loPI   C4A11850   8.617   3.775   8.094 -0.3809 -0.2459  0.1352
  804loPI   C5A11851   8.885   3.447   8.265  0.0404  0.1728  0.2202
  804loPI   C6A11852   9.089   3.104   8.421 -0.1709 -0.0972 -0.2260
  804loPI   C1B11853   8.209   3.377   6.667 -0.1055 -0.1184 -0.1525
  804loPI   C2B11854   8.253   3.315   7.041  0.1480 -0.0181 -0.2620
  804loPI   C3B11855   8.271   3.424   7.480  0.1690  0.1763 -0.0959
  804loPI   C4B11856   8.280   3.438   7.931 -0.0869  0.0864  0.0898
  805loPI    C111857   3.176   4.087   5.768 -0.2011 -0.0337 -0.1195
  805loPI    C211858   3.110   3.698   5.702 -0.0405 -0.0943  0.0675
  805loPI    C311859   3.090   3.958   5.399 -0.0980 -0.2547 -0.0682
  805loPI   PO411860   3.048   4.123   6.060 -0.0099  0.2608  0.2163
  805loPI   GL111861   3.230   4.065   6.476  0.1742  0.0965  0.1011
  805loPI   GL211862   3.061   4.090   6.821 -0.0040  0.0470 -0.1270
  805loPI   C1A11863   3.439   4.397   6.765 -0.1959 -0.0594  0.1248
  805loPI   C2A11864   3.415   4.461   7.235  0.0609  0.3677  0.0756
  805loPI   C3A11865   3.315   4.517   7.545 -0.0049  0.1084 -0.0559
  805loPI   C4A11866   3.415   4.599   7.969  0.3069 -0.0085 -0.0384
  805loPI   C5A11867   3.455   4.723   8.395 -0.0818  0.4682 -0.1996
  805loPI   C6A11868   3.518   4.517   8.705 -0.1673  0.0798 -0.0093
  805loPI   C1B11869   3.094   4.091   7.212  0.2592  0.0747  0.0120
  805loPI   C2B11870   3.055   4.092   7.598  0.2346 -0.1604 -0.0284
  805loPI   C3B11871   3.104   4.196   8.047 -0.1320 -0.3115  0.1479
  805loPI   C4B11872   3.134   4.166   8.469 -0.2393 -0.4368 -0.0410
  806loPI    C111873   3.573   8.224   5.845  0.0041 -0.0498 -0.2205
  806loPI    C211874   3.627   7.920   5.590 -0.0780 -0.0150 -0.2796
  806loPI    C311875   3.291   8.138   5.575 -0.0106  0.0919 -0.2511
  806loPI   PO411876   3.782   8.305   5.968  0.2600 -0.0458 -0.2851
  806loPI   GL111877   3.915   8.470   6.451 -0.1856 -0.3193 -0.0416
  806loPI   GL211878   3.968   8.170   6.613  0.1003 -0.0065 -0.0264
  806loPI   C1A11879   3.783   8.655   6.836  0.1136  0.1095 -0.4142
  806loPI   C2A11880   3.755   8.519   7.264  0.1943 -0.3518 -0.0906
  806loPI   C3A11881   3.790   8.486   7.742 -0.1316  0.1157 -0.0218
  806loPI   C4A11882   3.897   8.485   8.155  0.3657 -0.1402 -0.2187
  806loPI   C5A11883   4.157   8.504   8.586 -0.3256  0.0902  0.0079
  806loPI   C6A11884   4.183   8.607   8.965 -0.5494  0.3446  0.1897
  806loPI   C1B11885   3.812   8.107   7.002 -0.1308  0.0229  0.0424
  806loPI   C2B11886   3.843   8.052   7.477 -0.1561 -0.1102  0.0617
  806loPI   C3B11887   4.046   8.024   7.908  0.1250 -0.0164 -0.1717
  806loPI   C4B11888   4.114   8.113   8.358 -0.3533  0.1907  0.0217
  807loPI    C111889  14.793   6.706   5.972 -0.0616 -0.0584  0.0463
  807loPI    C211890  15.164   6.751   6.113 -0.0079 -0.0098 -0.1079
  807loPI    C311891  14.965   6.411   6.180  0.0498 -0.0219  0.0066
  807loPI   PO411892  14.693   6.939   6.062 -0.1259 -0.4333  0.0193
  807loPI   GL111893  14.694   6.824   6.448  0.1666 -0.0537  0.1545
  807loPI   GL211894  14.417   6.679   6.534 -0.1208  0.2878 -0.2034
  807loPI   C1A11895  14.514   7.101   6.753 -0.1270 -0.0880 -0.1187
  807loPI   C2A11896  14.593   7.030   7.200 -0.0228 -0.2932 -0.1203
  807loPI   C3A11897  14.601   6.986   7.631  0.2854  0.1794  0.0812
  807loPI   C4A11898  14.540   6.847   8.062 -0.0193 -0.0162 -0.1983
  807loPI   C5A11899  14.593   6.649   8.397 -0.1307  0.2354 -0.1015
  807loPI   C6A11900  14.873   6.326   8.585  0.1203 -0.0013  0.2995
  807loPI   C1B11901  14.321   6.591   6.960  0.1747  0.0183  0.1818
  807loPI   C2B11902  14.313   6.604   7.354  0.2051  0.0678  0.1150
  807loPI   C3B11903  14.257   6.542   7.717  0.1834 -0.4939 -0.1693
  807loPI   C4B11904  14.197   6.430   8.145 -0.0267 -0.1680  0.3300
  808loPI    C111905   3.201   5.487   5.767 -0.0713  0.0131 -0.0674
  808loPI    C211906   3.274   5.745   5.471 -0.0400  0.0357 -0.0400
  808loPI    C311907   3.490   5.410   5.502 -0.1045 -0.0117 -0.0967
  808loPI   PO411908   3.174   5.637   5.985  0.1385  0.1217 -0.0303
  808loPI   GL111909   3.328   5.503   6.348 -0.0591 -0.3940 -0.1308
  808loPI   GL211910   3.014   5.514   6.558 -0.2689  0.0175  0.1242
  808loPI   C1A11911   3.430   5.432   6.803  0.3434  0.1299 -0.1574
  808loPI   C2A11912   3.532   5.424   7.186 -0.3727  0.2063  0.0557
  808loPI   C3A11913   3.572   5.452   7.625  0.1183 -0.1734 -0.1570
  808loPI   C4A11914   3.569   5.444   8.071  0.1290 -0.2494  0.1014
  808loPI   C5A11915   3.432   5.208   8.500 -0.1026 -0.0715  0.1178
  808loPI   C6A11916   3.588   5.076   8.891 -0.0267 -0.0089  0.0108
  808loPI   C1B11917   3.006   5.567   6.960 -0.4293  0.1180 -0.0552
  808loPI   C2B11918   3.082   5.534   7.391 -0.3128  0.1611  0.0863
  808loPI   C3B11919   3.087   5.516   7.761  0.1039 -0.3461 -0.2157
  808loPI   C4B11920   3.052   5.430   8.227  0.3820 -0.0620  0.2058
  809loPI    C111921   5.108   0.341   5.811 -0.1248  0.2047 -0.0009
  809loPI    C211922   5.384   0.481   5.558 -0.0249  0.1991  0.1041
  809loPI    C311923   5.081   0.259   5.420  0.1004  0.0868  0.0070
  809loPI   PO411924   5.248   0.241   5.999  0.0365 -0.0341  0.0993
  809loPI   GL111925   5.240   0.311   6.314 -0.0095  0.0703 -0.2040
  809loPI   GL211926   5.428   0.491   6.456  0.2097 -0.0316 -0.0800
  809loPI   C1A11927   5.299   0.065   6.726  0.2462  0.1569 -0.2915
  809loPI   C2A11928   5.157   0.018   7.132  0.0287  0.0723 -0.0681
  809loPI   C3A11929   5.117   0.028   7.558 -0.1726  0.2791  0.0521
  809loPI   C4A11930   5.019   0.077   7.938 -0.3718 -0.2152 -0.1105
  809loPI   C5A11931   5.099   0.146   8.397  0.4406 -0.0058  0.2224
  809loPI   C6A11932   5.058  -0.073   8.754  0.1118  0.6081 -0.0704
  809loPI   C1B11933   5.496   0.420   6.985 -0.1187  0.2343  0.0060
  809loPI   C2B11934   5.657   0.496   7.338 -0.2350  0.0834  0.1126
  809loPI   C3B11935   5.727   0.556   7.766  0.2725 -0.0684 -0.1427
  809loPI   C4B11936   5.779   0.595   8.228  0.2401  0.1015 -0.1644
  810loPI    C111937  15.732  13.742   6.125 -0.0345 -0.1798  0.1626
  810loPI    C211938  15.588  13.498   5.843  0.0128 -0.0502  0.0248
  810loPI    C311939  15.960  13.446   5.982  0.1085  0.0870 -0.1756
  810loPI   PO411940  15.523  13.795   6.244 -0.0474 -0.2807  0.0834
  810loPI   GL111941  15.476  14.019   6.614 -0.0820  0.0871 -0.2392
  810loPI   GL211942  15.123  13.878   6.823  0.0718  0.1108 -0.0200
  810loPI   C1A11943  15.584  13.869   7.012  0.1133  0.0410  0.1681
  810loPI   C2A11944  15.567  13.890   7.452  0.1340  0.2012 -0.1187
  810loPI   C3A11945  15.674  13.851   7.888  0.1642 -0.1368  0.2000
  810loPI   C4A11946  15.617  13.828   8.357 -0.0869  0.1278  0.0119
  810loPI   C5A11947  15.444  13.682   8.821  0.3342  0.1702 -0.0025
  810loPI   C6A11948  15.717  13.653   9.185 -0.2660  0.2123  0.2292
  810loPI   C1B11949  15.121  13.936   7.268  0.1466 -0.0476  0.2888
  810loPI   C2B11950  15.192  13.892   7.735  0.0087 -0.1256  0.1161
  810loPI   C3B11951  15.189  13.917   8.166  0.2055 -0.2155 -0.0081
  810loPI   C4B11952  15.039  13.881   8.566  0.5122  0.0523 -0.0352
  811loPI    C111953   7.085   6.960   5.627 -0.1358 -0.0366 -0.0207
  811loPI    C211954   7.327   6.784   5.361 -0.0150 -0.0786  0.1156
  811loPI    C311955   7.429   7.135   5.522 -0.1503  0.0100  0.0098
  811loPI   PO411956   6.937   6.773   5.755 -0.1413  0.0986  0.3574
  811loPI   GL111957   6.794   6.766   6.212  0.0489  0.0588 -0.1648
  811loPI   GL211958   6.726   7.046   6.473 -0.2870 -0.1752 -0.1529
  811loPI   C1A11959   6.936   6.611   6.694  0.0165  0.1367  0.0499
  811loPI   C2A11960   6.973   6.665   7.184 -0.2217 -0.1793  0.0477
  811loPI   C3A11961   6.848   6.632   7.586  0.1504 -0.0777 -0.2500
  811loPI   C4A11962   6.861   6.744   8.007  0.2078  0.1810  0.2760
  811loPI   C5A11963   7.071   6.742   8.381  0.1892 -0.2735 -0.0303
  811loPI   C6A11964   7.598   6.874   8.537 -0.1627 -0.0386 -0.1083
  811loPI   C1B11965   6.804   7.118   6.949  0.3368  0.1038  0.0003
  811loPI   C2B11966   6.762   7.166   7.421  0.3652 -0.1058 -0.1403
  811loPI   C3B11967   6.700   7.163   7.874  0.2237  0.2342  0.0044
  811loPI   C4B11968   6.758   7.266   8.303  0.1636  0.1808  0.1443
  812loPI    C111969  15.484  16.658   5.609  0.0713 -0.0761 -0.1124
  812loPI    C211970  15.446  16.448   5.270  0.1119  0.1279 -0.2453
  812loPI    C311971  15.697  16.758   5.286  0.3171 -0.0482  0.0559
  812loPI   PO411972  15.456  16.370   5.842  0.2894 -0.0352 -0.1052
  812loPI   GL111973  15.514  16.202   6.356  0.1243  0.0133  0.2993
  812loPI   GL211974  15.477  16.454   6.476  0.0856 -0.1181  0.0139
  812loPI   C1A11975  15.364  16.026   6.766  0.0714 -0.0742  0.1951
  812loPI   C2A11976  15.317  15.736   7.099 -0.0482  0.2012 -0.1494
  812loPI   C3A11977  15.381  15.732   7.564  0.1709 -0.0683  0.0665
  812loPI   C4A11978  15.434  15.752   8.007 -0.0663 -0.0286 -0.0637
  812loPI   C5A11979  15.329  15.745   8.484 -0.0566 -0.0440 -0.0969
  812loPI   C6A11980  15.363  15.662   8.927  0.0677 -0.2124  0.0460
  812loPI   C1B11981  15.496  16.628   6.911  0.0671 -0.1014 -0.3578
  812loPI   C2B11982  15.413  16.672   7.387  0.1051 -0.1102 -0.0856
  812loPI   C3B11983  15.458  16.575   7.806 -0.0958 -0.4206  0.1704
  812loPI   C4B11984  15.546  16.659   8.113 -0.2092 -0.1308  0.3359
  813loPI    C111985  14.868  10.799   6.166 -0.0676  0.1349  0.1312
  813loPI    C211986  14.653  10.668   5.855 -0.1027  0.0742  0.1807
  813loPI    C311987  14.971  10.903   5.794  0.0450 -0.1486  0.0801
  813loPI   PO411988  14.842  10.583   6.354 -0.0409 -0.1367 -0.0166
  813loPI   GL111989  14.923  10.407   6.751 -0.0359 -0.0083  0.0072
  813loPI   GL211990  14.642  10.210   6.742  0.2450 -0.0002 -0.0593
  813loPI   C1A11991  15.077  10.669   7.159 -0.0416 -0.0193 -0.1226
  813loPI   C2A11992  15.067  10.767   7.686 -0.2993 -0.0551  0.0100
  813loPI   C3A11993  15.091  10.609   8.159  0.0839 -0.0101  0.0549
  813loPI   C4A11994  15.175  10.480   8.539 -0.1573  0.2073 -0.0814
  813loPI   C5A11995  15.200  10.493   8.977 -0.2309 -0.0178  0.2478
  813loPI   C6A11996  15.506  10.324   9.306  0.3868 -0.1688  0.0571
  813loPI   C1B11997  14.754  10.240   7.195  0.3825  0.2101 -0.2665
  813loPI   C2B11998  14.747  10.445   7.573  0.0155 -0.1425 -0.0461
  813loPI   C3B11999  14.777  10.257   7.977  0.1107  0.1618 -0.2301
  813loPI   C4B12000  14.856  10.090   8.364 -0.2016  0.4419 -0.0697
  814loPI    C112001  16.093   1.715   6.097 -0.1038 -0.1112 -0.1136
  814loPI    C212002  16.462   1.865   6.067 -0.1265 -0.0425 -0.0519
  814loPI    C312003  16.315   1.637   5.773 -0.1450  0.1742 -0.2132
  814loPI   PO412004  16.073   1.632   6.277  0.4152  0.1386 -0.3301
  814loPI   GL112005  15.979   1.624   6.683 -0.1866 -0.0408 -0.1084
  814loPI   GL212006  16.273   1.426   6.671 -0.1177  0.0957 -0.1064
  814loPI   C1A12007  15.791   1.621   7.135 -0.0255  0.0159  0.0607
  814loPI   C2A12008  15.632   1.615   7.504 -0.1203  0.0078 -0.0291
  814loPI   C3A12009  15.712   1.640   7.931  0.1732  0.1051 -0.2208
  814loPI   C4A12010  15.600   1.725   8.373 -0.0572 -0.0079  0.0058
  814loPI   C5A12011  15.886   1.653   8.764 -0.3001  0.1676 -0.1344
  814loPI   C6A12012  16.070   1.555   9.067 -0.1952 -0.0816  0.1075
  814loPI   C1B12013  16.244   1.405   7.150 -0.0116  0.2066 -0.1893
  814loPI   C2B12014  16.104   1.395   7.531 -0.2394  0.1419  0.1345
  814loPI   C3B12015  16.182   1.618   7.805 -0.1139  0.1142  0.1958
  814loPI   C4B12016  16.181   1.618   8.294 -0.0855 -0.1548 -0.0967
  815loPI    C112017  10.143  10.938   6.139 -0.0757 -0.4358  0.0946
  815loPI    C212018  10.400  10.635   6.092  0.0708 -0.2866 -0.0816
  815loPI    C312019  10.390  10.933   5.825 -0.0208 -0.0977  0.1286
  815loPI   PO412020  10.140  10.898   6.441  0.0715 -0.0966 -0.0940
  815loPI   GL112021   9.916  11.223   6.641 -0.1380  0.0440  0.0492
  815loPI   GL212022   9.654  11.392   6.691  0.0186  0.0777  0.0441
  815loPI   C1A12023   9.754  11.052   7.094 -0.0373  0.2260  0.3573
  815loPI   C2A12024   9.641  10.922   7.551  0.3925 -0.3076  0.2870
  815loPI   C3A12025   9.626  10.821   7.895  0.0044  0.1725 -0.1472
  815loPI   C4A12026   9.748  10.895   8.220 -0.0713  0.0841 -0.1279
  815loPI   C5A12027   9.995  10.841   8.546  0.1282 -0.2719  0.0757
  815loPI   C6A12028  10.366  10.587   8.502 -0.0479 -0.0349  0.1057
  815loPI   C1B12029   9.364  11.388   7.015  0.0789 -0.1319 -0.0025
  815loPI   C2B12030   9.334  11.305   7.315  0.1881 -0.0867 -0.1293
  815loPI   C3B12031   9.383  11.331   7.749 -0.3331 -0.2804 -0.0659
  815loPI   C4B12032   9.359  11.546   8.112  0.0432  0.0777 -0.1586
  816loPI    C112033  11.906   1.053   5.927 -0.0355 -0.0224 -0.0765
  816loPI    C212034  11.812   1.033   5.539 -0.1559 -0.0501 -0.0461
  816loPI    C312035  11.947   0.708   5.728  0.2662  0.0557 -0.1555
  816loPI   PO412036  11.754   1.130   6.055  0.0657  0.1670 -0.3286
  816loPI   GL112037  11.604   1.123   6.448  0.1228 -0.3006 -0.0650
  816loPI   GL212038  11.468   0.802   6.525 -0.0420  0.1511  0.0966
  816loPI   C1A12039  11.440   1.013   6.937  0.3023  0.2032 -0.1842
  816loPI   C2A12040  11.385   0.996   7.395  0.1137 -0.1937 -0.1227
  816loPI   C3A12041  11.516   0.996   7.891  0.0712  0.1279 -0.3638
  816loPI   C4A12042  11.338   0.915   8.275 -0.2869  0.1309  0.0222
  816loPI   C5A12043  11.169   0.718   8.544  0.1101  0.2674  0.0899
  816loPI   C6A12044  10.985   0.414   8.818 -0.0200 -0.0397  0.1744
  816loPI   C1B12045  11.587   0.535   6.858  0.3863 -0.0677  0.1500
  816loPI   C2B12046  11.669   0.482   7.306  0.4542  0.1330 -0.0085
  816loPI   C3B12047  11.614   0.479   7.733 -0.0843 -0.0417  0.1266
  816loPI   C4B12048  11.672   0.483   8.155 -0.2561  0.0387  0.0092
  817loPI    C112049  16.914  11.063   6.264 -0.0749 -0.1019 -0.0032
  817loPI    C212050  16.572  11.163   6.447 -0.0679 -0.0154 -0.0362
  817loPI    C312051  16.564  10.932   6.120 -0.1142  0.1910 -0.1825
  817loPI   PO412052  17.130  10.958   6.418 -0.1815 -0.0846  0.1496
  817loPI   GL112053  17.276  10.800   6.768  0.2037 -0.4006  0.0216
  817loPI   GL212054  17.402  11.105   6.888 -0.0518 -0.1712  0.1072
  817loPI   C1A12055  17.310  10.731   7.281  0.2488 -0.1643 -0.0724
  817loPI   C2A12056  17.454  10.959   7.570 -0.0973  0.0586 -0.0051
  817loPI   C3A12057  17.499  10.625   7.996  0.1127 -0.1425  0.0467
  817loPI   C4A12058  17.501  10.533   8.511 -0.4539 -0.1694  0.1179
  817loPI   C5A12059  17.683  10.402   8.826  0.1800 -0.2746 -0.3119
  817loPI   C6A12060  17.844  10.233   9.274 -0.2843 -0.0459 -0.0713
  817loPI   C1B12061  17.652  11.218   7.012  0.0502 -0.0760  0.0769
  817loPI   C2B12062  17.922  11.226   7.297  0.1194  0.1759  0.0793
  817loPI   C3B12063  17.916  11.125   7.689  0.1296 -0.0087 -0.2002
  817loPI   C4B12064  17.775  11.012   8.125 -0.0400 -0.2416  0.0979
  818loPI    C112065   9.593   8.298   5.839  0.1953  0.0575  0.0730
  818loPI    C212066   9.575   8.649   5.647  0.1480  0.0343  0.0352
  818loPI    C312067   9.912   8.433   5.638  0.1364  0.0191 -0.0469
  818loPI   PO412068   9.531   8.366   6.051  0.1410  0.0525 -0.0439
  818loPI   GL112069   9.577   8.350   6.495  0.2567 -0.0775  0.3251
  818loPI   GL212070   9.430   8.623   6.630  0.0054  0.0637 -0.0457
  818loPI   C1A12071   9.289   8.161   6.837  0.0519 -0.0469  0.1168
  818loPI   C2A12072   9.242   8.171   7.303 -0.0268  0.2030 -0.1879
  818loPI   C3A12073   9.155   8.142   7.688 -0.3149  0.2397 -0.0843
  818loPI   C4A12074   9.065   8.148   8.191 -0.0445 -0.0969  0.0546
  818loPI   C5A12075   9.134   8.108   8.563  0.2516 -0.2962 -0.0690
  818loPI   C6A12076   9.238   8.290   8.865  0.0009 -0.4058 -0.3149
  818loPI   C1B12077   9.547   8.567   7.077 -0.0185 -0.2689 -0.1955
  818loPI   C2B12078   9.490   8.540   7.534 -0.0094  0.1913  0.0921
  818loPI   C3B12079   9.439   8.483   7.988 -0.0511 -0.2398 -0.2024
  818loPI   C4B12080   9.432   8.453   8.427 -0.1008 -0.2033  0.1081
  819loPI    C112081  15.521   9.584   6.130 -0.0676 -0.1031 -0.0761
  819loPI    C212082  15.796   9.409   6.364  0.0987  0.1470 -0.0806
  819loPI    C312083  15.770   9.311   5.977  0.2472  0.1928 -0.1025
  819loPI   PO412084  15.355   9.596   6.258  0.0406 -0.1432  0.1863
  819loPI   GL112085  15.404   9.633   6.642  0.1907  0.1921 -0.0459
  819loPI   GL212086  15.244   9.337   6.743  0.2096 -0.0313 -0.0291
  819loPI   C1A12087  15.502   9.705   7.073 -0.2045  0.1333  0.0776
  819loPI   C2A12088  15.461   9.690   7.476  0.0158 -0.0148 -0.0596
  819loPI   C3A12089  15.473   9.655   7.887  0.0521 -0.0056  0.3700
  819loPI   C4A12090  15.440   9.536   8.371 -0.0885  0.0002 -0.2587
  819loPI   C5A12091  15.340   9.424   8.904 -0.2340 -0.0409 -0.1139
  819loPI   C6A12092  15.262   9.053   9.139  0.1740 -0.2269 -0.2303
  819loPI   C1B12093  15.180   9.316   7.175 -0.1287  0.2545 -0.0011
  819loPI   C2B12094  15.192   9.297   7.592 -0.1575  0.0769 -0.1671
  819loPI   C3B12095  15.178   9.204   8.030  0.1603 -0.1252  0.0327
  819loPI   C4B12096  15.257   8.979   8.401 -0.2542 -0.1926  0.1781
  820loPI    C112097  11.527   0.152   5.899 -0.0833  0.0277  0.0216
  820loPI    C212098  11.249   0.337   5.679 -0.0390 -0.0236 -0.0785
  820loPI    C312099  11.185  -0.036   5.809 -0.1579  0.0849  0.1819
  820loPI   PO412100  11.639   0.285   6.131  0.0522  0.0649  0.0699
  820loPI   GL112101  11.826   0.226   6.494 -0.2687 -0.1719 -0.1099
  820loPI   GL212102  11.774  -0.087   6.631  0.1864 -0.1810  0.3707
  820loPI   C1A12103  12.079   0.366   6.890 -0.0299 -0.2053  0.1571
  820loPI   C2A12104  12.232   0.346   7.286  0.0806  0.0864  0.0870
  820loPI   C3A12105  12.151   0.463   7.784  0.1225  0.2475 -0.0772
  820loPI   C4A12106  12.151   0.273   8.181  0.2380 -0.2218  0.2217
  820loPI   C5A12107  12.167   0.181   8.603  0.1495  0.0811  0.3225
  820loPI   C6A12108  12.226   0.044   9.083 -0.0683 -0.0732  0.0129
  820loPI   C1B12109  11.725   0.052   7.073 -0.2272  0.2728 -0.0767
  820loPI   C2B12110  11.793   0.072   7.478 -0.2715 -0.0251 -0.3163
  820loPI   C3B12111  11.851  -0.025   7.885  0.0064  0.1130  0.0769
  820loPI   C4B12112  11.681   0.028   8.299 -0.0272  0.0478 -0.1262
  821loPI    C112113   7.561  14.326   5.731 -0.2456  0.0313 -0.0965
  821loPI    C212114   7.795  14.596   5.553 -0.0556 -0.1050 -0.0567
  821loPI    C312115   7.416  14.688   5.642 -0.0309  0.1030 -0.1596
  821loPI   PO412116   7.779  14.167   5.930  0.2371 -0.0588  0.0569
  821loPI   GL112117   7.803  14.102   6.390 -0.0203 -0.1521  0.0616
  821loPI   GL212118   7.696  13.786   6.430  0.0555 -0.1431 -0.1879
  821loPI   C1A12119   7.719  14.065   6.847  0.0507 -0.4203 -0.2879
  821loPI   C2A12120   7.766  14.043   7.283 -0.1758 -0.1805  0.0728
  821loPI   C3A12121   7.713  14.120   7.647  0.1750  0.2530 -0.1439
  821loPI   C4A12122   7.633  14.228   8.026  0.0310 -0.2568 -0.2114
  821loPI   C5A12123   7.504  14.582   8.410  0.1832 -0.0053 -0.0118
  821loPI   C6A12124   7.448  14.998   8.396 -0.0168 -0.3791 -0.0575
  821loPI   C1B12125   7.673  13.580   6.792 -0.0744 -0.0876  0.1316
  821loPI   C2B12126   7.730  13.556   7.303 -0.0459  0.1340  0.0565
  821loPI   C3B12127   7.762  13.656   7.782 -0.2865  0.0714 -0.0755
  821loPI   C4B12128   7.663  13.739   8.212  0.0493  0.0280 -0.0887
  822loPI    C112129   4.328   5.090   5.827  0.0955 -0.1219  0.0293
  822loPI    C212130   4.016   5.143   6.071  0.0556 -0.1005 -0.0260
  822loPI    C312131   4.004   5.286   5.698  0.1744 -0.0054  0.0059
  822loPI   PO412132   4.544   5.109   6.040  0.0530  0.1518  0.2105
  822loPI   GL112133   4.753   4.958   6.342 -0.1065  0.2112  0.0252
  822loPI   GL212134   4.936   5.193   6.461  0.1032  0.1540  0.0277
  822loPI   C1A12135   4.879   4.769   6.720 -0.0977 -0.0000 -0.1086
  822loPI   C2A12136   4.817   4.681   7.086  0.1324 -0.0420 -0.1697
  822loPI   C3A12137   4.767   4.688   7.457 -0.2185  0.0385  0.2785
  822loPI   C4A12138   4.762   4.798   7.925 -0.1852  0.4498 -0.1523
  822loPI   C5A12139   4.850   4.851   8.313  0.2073  0.1583  0.0003
  822loPI   C6A12140   5.181   4.934   8.513 -0.2464 -0.0731  0.0175
  822loPI   C1B12141   5.111   5.174   6.866  0.0478 -0.1665  0.0403
  822loPI   C2B12142   5.126   5.064   7.296  0.1515  0.0084 -0.0320
  822loPI   C3B12143   5.053   5.123   7.602 -0.0010 -0.1313  0.3006
  822loPI   C4B12144   5.182   5.193   8.049  0.3779 -0.0585 -0.0451
  823loPI    C112145  13.654  16.716   6.260 -0.1122 -0.1492  0.2056
  823loPI    C212146  13.395  17.020   6.232  0.2743  0.1632 -0.0804
  823loPI    C312147  13.365  16.708   5.983  0.0537  0.1017  0.0212
  823loPI   PO412148  13.690  16.689   6.499 -0.0459  0.2296 -0.2907
  823loPI   GL112149  13.852  16.801   6.997  0.1893  0.4897  0.2002
  823loPI   GL212150  14.033  17.075   6.930 -0.0876  0.1897  0.0826
  823loPI   C1A12151  13.878  16.883   7.368  0.1352  0.0267  0.1250
  823loPI   C2A12152  13.810  16.930   7.789  0.0327  0.0828  0.1284
  823loPI   C3A12153  13.919  16.898   8.139 -0.0843  0.1887  0.1829
  823loPI   C4A12154  13.995  16.944   8.525 -0.0719 -0.0325 -0.0470
  823loPI   C5A12155  14.192  16.786   8.769  0.1654 -0.1449  0.2702
  823loPI   C6A12156  14.575  16.547   8.882 -0.3848  0.1732  0.1400
  823loPI   C1B12157  14.253  17.227   7.308 -0.3013  0.1300 -0.0400
  823loPI   C2B12158  14.200  17.325   7.742 -0.0327 -0.0133  0.4267
  823loPI   C3B12159  14.232  17.353   8.177 -0.0581  0.1654 -0.1944
  823loPI   C4B12160  14.256  17.550   8.546  0.1305  0.0490 -0.1430
  824loPI    C112161   8.507   2.183   5.670 -0.2492  0.0120 -0.0556
  824loPI    C212162   8.184   2.073   5.461 -0.3346 -0.1918  0.1783
  824loPI    C312163   8.498   1.826   5.490 -0.2355 -0.0748  0.1139
  824loPI   PO412164   8.304   2.295   5.905  0.1647  0.5196 -0.0600
  824loPI   GL112165   8.490   2.215   6.299  0.2974  0.2194  0.1457
  824loPI   GL212166   8.282   2.030   6.409 -0.1466  0.1345  0.0584
  824loPI   C1A12167   8.595   2.425   6.574 -0.0082 -0.1800  0.1133
  824loPI   C2A12168   8.608   2.335   6.977 -0.2036 -0.2141 -0.1397
  824loPI   C3A12169   8.613   2.438   7.335  0.0037  0.2058 -0.0030
  824loPI   C4A12170   8.619   2.340   7.743 -0.0854  0.0940 -0.1661
  824loPI   C5A12171   8.692   2.120   8.233  0.0672  0.2353  0.2283
  824loPI   C6A12172   8.792   2.081   8.655  0.1264  0.0722 -0.2820
  824loPI   C1B12173   8.081   2.035   6.835 -0.1901 -0.1597 -0.1667
  824loPI   C2B12174   8.104   2.104   7.261 -0.0191  0.2154  0.0519
  824loPI   C3B12175   8.274   2.043   7.586 -0.0548  0.0499  0.2357
  824loPI   C4B12176   8.458   1.839   7.918  0.0187  0.1065  0.0942
  825loPI    C112177   0.622  13.189   6.000 -0.1609 -0.1152  0.0154
  825loPI    C212178   0.285  13.034   5.850 -0.1506 -0.0051 -0.1230
  825loPI    C312179   0.531  13.245   5.615 -0.0444  0.0165  0.0063
  825loPI   PO412180   0.554  13.327   6.220 -0.2184 -0.0714  0.0348
  825loPI   GL112181   0.434  13.202   6.584 -0.3015 -0.0386  0.3213
  825loPI   GL212182   0.467  12.938   6.808  0.0464  0.2209 -0.1859
  825loPI   C1A12183   0.383  13.491   6.836  0.1838  0.0586 -0.1185
  825loPI   C2A12184   0.353  13.528   7.307 -0.0178  0.0941  0.1408
  825loPI   C3A12185   0.308  13.624   7.751 -0.2271  0.0129 -0.1429
  825loPI   C4A12186   0.464  13.681   8.124  0.2439 -0.0878 -0.2848
  825loPI   C5A12187   0.499  13.674   8.561  0.0533  0.2399 -0.3102
  825loPI   C6A12188   0.169  13.646   8.868 -0.0038  0.3909  0.2710
  825loPI   C1B12189   0.436  13.071   7.187 -0.3858  0.2290  0.0233
  825loPI   C2B12190   0.508  13.097   7.548  0.1315  0.3227 -0.1628
  825loPI   C3B12191   0.503  13.225   7.918  0.1853 -0.1065 -0.1636
  825loPI   C4B12192   0.685  13.220   8.311 -0.1459  0.2097  0.0811
  826loPI    C112193  10.769  10.016   5.842 -0.0259  0.0546 -0.0707
  826loPI    C212194  11.081  10.081   5.600  0.0423 -0.0277 -0.0055
  826loPI    C312195  10.708  10.091   5.454  0.0838 -0.0942 -0.1175
  826loPI   PO412196  10.807  10.167   6.075 -0.2002  0.0852  0.1123
  826loPI   GL112197  11.082  10.132   6.517  0.0512  0.0547  0.3978
  826loPI   GL212198  11.317  10.432   6.580 -0.1809 -0.0852  0.1529
  826loPI   C1A12199  10.697  10.166   6.824  0.2143  0.0372 -0.3572
  826loPI   C2A12200  10.540  10.125   7.188  0.3026 -0.1728  0.1602
  826loPI   C3A12201  10.596   9.943   7.538 -0.0326  0.1829  0.1768
  826loPI   C4A12202  10.521   9.709   7.954  0.2533  0.1026  0.1686
  826loPI   C5A12203  10.327   9.616   8.328  0.0291  0.2485  0.1784
  826loPI   C6A12204  10.598   9.561   8.759 -0.1426 -0.0732 -0.1331
  826loPI   C1B12205  11.137  10.290   6.996  0.1672 -0.1781  0.1590
  826loPI   C2B12206  10.937  10.442   7.285 -0.0142 -0.0993 -0.1293
  826loPI   C3B12207  10.883  10.318   7.683  0.1511  0.0007 -0.1260
  826loPI   C4B12208  10.881  10.183   8.029 -0.0252  0.1665  0.0725
  827loPI    C112209   5.762   0.442   6.016 -0.1065 -0.0832 -0.0983
  827loPI    C212210   5.847   0.731   5.752 -0.1213  0.0206  0.0100
  827loPI    C312211   5.875   0.347   5.644  0.1369  0.0578 -0.0625
  827loPI   PO412212   5.914   0.426   6.265 -0.0839  0.2208  0.1185
  827loPI   GL112213   5.874   0.288   6.659 -0.0521  0.0978  0.2982
  827loPI   GL212214   6.107   0.052   6.502  0.2055  0.1061 -0.1249
  827loPI   C1A12215   6.030   0.562   7.006  0.0613 -0.1590 -0.2226
  827loPI   C2A12216   6.108   0.760   7.429 -0.1490  0.2769 -0.0092
  827loPI   C3A12217   6.119   0.795   7.861 -0.1585 -0.1013 -0.1328
  827loPI   C4A12218   6.420   0.894   8.122 -0.2346 -0.0691 -0.2345
  827loPI   C5A12219   6.762   0.950   8.384  0.0316 -0.0195  0.1313
  827loPI   C6A12220   6.899   0.980   8.846  0.0262  0.2676 -0.0980
  827loPI   C1B12221   6.192  -0.026   6.901 -0.1997  0.1406  0.1057
  827loPI   C2B12222   6.229   0.185   7.312 -0.1851  0.3650 -0.1408
  827loPI   C3B12223   6.154   0.253   7.761 -0.0421 -0.0358  0.0269
  827loPI   C4B12224   6.167   0.318   8.216 -0.0461  0.0129 -0.1860
  828loPI    C112225   1.979  15.194   5.922  0.0398  0.0973  0.1675
  828loPI    C212226   1.866  15.410   5.605 -0.1518  0.1612  0.2768
  828loPI    C312227   2.246  15.420   5.729 -0.0350 -0.0010 -0.0542
  828loPI   PO412228   1.860  15.273   6.100 -0.0862  0.0572 -0.0192
  828loPI   GL112229   1.899  15.207   6.547 -0.0663 -0.3526  0.3418
  828loPI   GL212230   1.868  15.554   6.549 -0.1227 -0.0256 -0.1955
  828loPI   C1A12231   1.925  15.365   7.029 -0.3737  0.2460 -0.2117
  828loPI   C2A12232   1.991  15.434   7.490 -0.0977  0.0990 -0.1609
  828loPI   C3A12233   2.008  15.617   7.871  0.0263 -0.2620 -0.3113
  828loPI   C4A12234   2.005  15.679   8.308  0.0561  0.1541 -0.1370
  828loPI   C5A12235   1.725  15.512   8.617  0.1894 -0.1731  0.1018
  828loPI   C6A12236   1.600  15.102   8.882 -0.0418  0.3970 -0.0780
  828loPI   C1B12237   1.479  15.618   6.689  0.2125 -0.0187  0.3020
  828loPI   C2B12238   1.417  15.603   7.100 -0.1447 -0.0328 -0.0259
  828loPI   C3B12239   1.489  15.677   7.531 -0.1639 -0.2950  0.0384
  828loPI   C4B12240   1.501  15.721   7.908 -0.2898  0.2540  0.2332
  829loPI    C112241  15.830  10.381   6.256 -0.0908  0.1500 -0.2662
  829loPI    C212242  16.019  10.618   5.995 -0.0113  0.1033 -0.2514
  829loPI    C312243  16.092  10.225   5.997  0.0183  0.1088 -0.1326
  829loPI   PO412244  15.905  10.416   6.461  0.0181  0.0377 -0.1822
  829loPI   GL112245  16.238  10.178   6.722  0.1583  0.4411  0.1331
  829loPI   GL212246  16.343  10.444   6.743 -0.1644  0.3314 -0.0597
  829loPI   C1A12247  16.200  10.023   7.244  0.1478  0.3888 -0.0036
  829loPI   C2A12248  16.402   9.886   7.610  0.2056  0.1226  0.1501
  829loPI   C3A12249  16.362   9.936   8.072 -0.1141  0.0815  0.0320
  829loPI   C4A12250  16.542  10.075   8.421  0.3666  0.1486 -0.0687
  829loPI   C5A12251  16.668  10.377   8.784  0.1330  0.1636  0.4699
  829loPI   C6A12252  16.620  10.171   9.138  0.0605 -0.0295  0.2039
  829loPI   C1B12253  16.558  10.349   7.008  0.1154  0.1385  0.1051
  829loPI   C2B12254  16.664  10.327   7.390  0.1023 -0.0930 -0.2355
  829loPI   C3B12255  16.641  10.303   7.925  0.0208  0.0878  0.0686
  829loPI   C4B12256  16.842  10.556   8.144 -0.0430  0.0581 -0.1307
  830loPI    C112257  12.534  16.299   6.125  0.1076  0.1022  0.0442
  830loPI    C212258  12.401  16.520   5.819  0.1256 -0.0253 -0.0565
  830loPI    C312259  12.148  16.285   6.022  0.1440 -0.0608 -0.0745
  830loPI   PO412260  12.656  16.380   6.314  0.0061 -0.0831 -0.2059
  830loPI   GL112261  12.804  16.396   6.789 -0.3429 -0.0496 -0.4978
  830loPI   GL212262  12.631  16.241   6.941 -0.1614 -0.2576 -0.2822
  830loPI   C1A12263  12.984  16.673   7.169 -0.1497 -0.0565  0.0309
  830loPI   C2A12264  12.965  16.625   7.576 -0.0793  0.0797  0.2474
  830loPI   C3A12265  13.118  16.674   7.987  0.0700  0.0569 -0.0031
  830loPI   C4A12266  13.149  16.436   8.408  0.4516 -0.1207  0.0248
  830loPI   C5A12267  13.333  16.512   8.784  0.1424 -0.0923  0.0392
  830loPI   C6A12268  13.710  16.588   8.908  0.1396  0.0010 -0.5451
  830loPI   C1B12269  12.558  16.178   7.414 -0.1053  0.1801  0.1833
  830loPI   C2B12270  12.726  16.194   7.871  0.1567  0.0330 -0.3374
  830loPI   C3B12271  12.755  16.045   8.247  0.0227  0.1880 -0.1463
  830loPI   C4B12272  12.962  15.958   8.602 -0.2858 -0.0532 -0.0091
  831loPI    C112273   8.873  15.200   5.713 -0.0978  0.0338  0.1237
  831loPI    C212274   9.077  15.381   5.420 -0.2772  0.3716  0.2022
  831loPI    C312275   8.890  15.035   5.349  0.0200  0.2418  0.0332
  831loPI   PO412276   9.074  15.314   5.907 -0.0117 -0.2034  0.1113
  831loPI   GL112277   9.194  15.355   6.382  0.3543  0.1018  0.3828
  831loPI   GL212278   9.082  15.090   6.404 -0.2737  0.0702 -0.0533
  831loPI   C1A12279   9.244  15.321   6.847 -0.1206  0.0794 -0.0703
  831loPI   C2A12280   9.164  15.357   7.316  0.0665 -0.2880 -0.2339
  831loPI   C3A12281   9.179  15.437   7.728 -0.3005  0.1015 -0.2518
  831loPI   C4A12282   9.238  15.443   8.151  0.3754  0.0915 -0.2724
  831loPI   C5A12283   8.946  15.436   8.428 -0.1523 -0.0563  0.2517
  831loPI   C6A12284   8.547  15.236   8.528 -0.0047 -0.0234  0.2042
  831loPI   C1B12285   8.810  15.015   6.770  0.0411  0.0544 -0.0852
  831loPI   C2B12286   8.715  15.042   7.154  0.3917 -0.0645  0.0242
  831loPI   C3B12287   8.727  15.142   7.605  0.1091  0.0517  0.0789
  831loPI   C4B12288   8.678  15.222   7.998  0.0640 -0.0521 -0.1919
  832loPI    C112289   4.148   2.181   5.777 -0.2136  0.0269 -0.0849
  832loPI    C212290   4.160   1.792   5.683 -0.2730  0.0091 -0.0200
  832loPI    C312291   3.807   1.978   5.721 -0.2467  0.0475  0.0381
  832loPI   PO412292   4.375   2.190   5.986 -0.2333  0.0855  0.1536
  832loPI   GL112293   4.672   2.150   6.362  0.0409 -0.3784 -0.2441
  832loPI   GL212294   4.562   1.933   6.552  0.0736  0.1121 -0.0821
  832loPI   C1A12295   4.783   2.376   6.736  0.0951 -0.1235  0.3898
  832loPI   C2A12296   4.805   2.354   7.159 -0.1406 -0.2500 -0.4220
  832loPI   C3A12297   4.799   2.504   7.581  0.2588 -0.1201  0.0895
  832loPI   C4A12298   4.555   2.603   7.967  0.0152 -0.0792 -0.1324
  832loPI   C5A12299   4.554   2.441   8.315 -0.0692 -0.2040  0.0111
  832loPI   C6A12300   4.419   2.376   8.692 -0.3102  0.0846  0.2012
  832loPI   C1B12301   4.545   1.979   6.986  0.1354  0.1414  0.1361
  832loPI   C2B12302   4.455   2.124   7.420  0.0246  0.0643  0.1981
  832loPI   C3B12303   4.298   2.110   7.840  0.0113 -0.0953  0.0204
  832loPI   C4B12304   4.174   2.070   8.292 -0.0050 -0.0399 -0.2044
  833loPI    C112305   1.361   4.956   6.134  0.1668 -0.0525 -0.0073
  833loPI    C212306   1.404   4.702   5.828  0.0072 -0.2427  0.1255
  833loPI    C312307   1.180   5.031   5.786  0.4424  0.0301 -0.1356
  833loPI   PO412308   1.435   4.714   6.377 -0.0984 -0.1261  0.2023
  833loPI   GL112309   1.234   4.496   6.715  0.1247 -0.1533  0.1693
  833loPI   GL212310   1.124   4.207   6.635  0.3042  0.2256  0.1566
  833loPI   C1A12311   1.042   4.437   7.160  0.1241 -0.1420  0.0095
  833loPI   C2A12312   1.032   4.482   7.599 -0.0830  0.0871  0.0833
  833loPI   C3A12313   1.020   4.433   7.910 -0.2624 -0.0972 -0.0556
  833loPI   C4A12314   1.100   4.458   8.304  0.2659 -0.1632 -0.0521
  833loPI   C5A12315   0.873   4.588   8.639  0.0170  0.0276 -0.1004
  833loPI   C6A12316   1.010   4.751   9.013  0.0941 -0.0167  0.3132
  833loPI   C1B12317   1.272   3.981   6.962 -0.0591 -0.1181 -0.2136
  833loPI   C2B12318   1.318   3.990   7.385  0.0294  0.0420 -0.4600
  833loPI   C3B12319   1.160   3.997   7.821  0.3094  0.0110 -0.1254
  833loPI   C4B12320   1.226   3.979   8.225  0.0250  0.0243  0.0279
  834loPI    C112321  11.402  10.941   6.154  0.0709 -0.1350 -0.0136
  834loPI    C212322  11.229  11.242   5.955 -0.1681 -0.2254  0.0535
  834loPI    C312323  11.286  10.890   5.774  0.3445 -0.0685 -0.1083
  834loPI   PO412324  11.263  10.911   6.372 -0.0947 -0.1503 -0.0936
  834loPI   GL112325  11.087  10.815   6.823 -0.0092 -0.0703  0.0029
  834loPI   GL212326  10.791  10.779   6.852  0.0495  0.1543 -0.1136
  834loPI   C1A12327  11.238  10.846   7.194 -0.1327 -0.1446  0.2797
  834loPI   C2A12328  11.182  10.838   7.601 -0.0726 -0.2784 -0.1452
  834loPI   C3A12329  11.184  10.636   7.924 -0.2317  0.1199 -0.0690
  834loPI   C4A12330  11.318  10.582   8.418  0.1437 -0.2342 -0.2724
  834loPI   C5A12331  11.094  10.386   8.835  0.0602  0.1202 -0.1709
  834loPI   C6A12332  10.707  10.492   9.009 -0.1314  0.0725 -0.0820
  834loPI   C1B12333  10.716  10.912   7.239  0.0579  0.0076  0.1281
  834loPI   C2B12334  10.715  10.801   7.653 -0.1618 -0.3020 -0.1248
  834loPI   C3B12335  10.715  10.687   8.106 -0.0938 -0.3207  0.2252
  834loPI   C4B12336  10.827  10.842   8.546  0.0069  0.0560  0.2915
  835loPI    C112337   5.018   5.919   5.818 -0.1358 -0.1782  0.1625
  835loPI    C212338   4.856   5.713   5.515 -0.0236 -0.0531  0.0159
  835loPI    C312339   5.169   5.563   5.715 -0.1238 -0.1545  0.0976
  835loPI   PO412340   4.818   6.019   5.987 -0.1735  0.1426 -0.2712
  835loPI   GL112341   4.643   5.936   6.323 -0.3181 -0.0705 -0.0605
  835loPI   GL212342   4.785   5.689   6.538  0.0340  0.0997  0.1802
  835loPI   C1A12343   4.611   6.144   6.697  0.0713  0.1700 -0.0933
  835loPI   C2A12344   4.652   6.183   7.149 -0.2394  0.0102 -0.1315
  835loPI   C3A12345   4.658   6.183   7.555  0.3449 -0.2915  0.0737
  835loPI   C4A12346   4.721   6.097   7.925 -0.0386  0.0378 -0.1892
  835loPI   C5A12347   4.855   6.147   8.328 -0.1662 -0.1033  0.3663
  835loPI   C6A12348   4.677   6.208   8.685  0.0632 -0.0866 -0.1871
  835loPI   C1B12349   4.827   5.711   6.937  0.1615  0.3662  0.1435
  835loPI   C2B12350   4.856   5.712   7.335  0.0233 -0.2708 -0.1559
  835loPI   C3B12351   4.866   5.686   7.727  0.0741  0.2930  0.0963
  835loPI   C4B12352   4.834   5.548   8.192 -0.0362  0.1032  0.0582
  836loPI    C112353  10.542   5.053   5.733 -0.1534 -0.0941 -0.1002
  836loPI    C212354  10.176   5.040   5.573 -0.0434 -0.1465 -0.3539
  836loPI    C312355  10.432   5.326   5.462 -0.0512 -0.0293 -0.0770
  836loPI   PO412356  10.518   5.134   5.994  0.0064 -0.0770 -0.1289
  836loPI   GL112357  10.820   4.865   6.286  0.0009 -0.2402 -0.0493
  836loPI   GL212358  10.574   4.674   6.271 -0.0136  0.0221 -0.0148
  836loPI   C1A12359  11.025   4.770   6.723  0.4138 -0.0341 -0.0839
  836loPI   C2A12360  11.152   4.704   7.029  0.1486  0.1666  0.1425
  836loPI   C3A12361  11.125   4.763   7.494  0.1517  0.1019  0.1280
  836loPI   C4A12362  11.070   4.737   7.892 -0.0806 -0.1424 -0.1343
  836loPI   C5A12363  10.863   4.777   8.295 -0.0765 -0.1018 -0.2780
  836loPI   C6A12364  10.718   4.786   8.754  0.0387 -0.3070  0.0418
  836loPI   C1B12365  10.547   4.801   6.709  0.1897  0.0772 -0.0832
  836loPI   C2B12366  10.700   4.869   7.069  0.3101  0.1928 -0.0568
  836loPI   C3B12367  10.649   4.821   7.478  0.2216 -0.2157 -0.3844
  836loPI   C4B12368  10.585   4.784   7.877 -0.3601  0.0372  0.1454
  837loPI    C112369   9.831   6.835   5.789  0.0890  0.0982  0.1296
  837loPI    C212370  10.229   6.799   5.766  0.0856  0.1063  0.0552
  837loPI    C312371  10.003   6.736   5.442  0.0314  0.1696  0.0804
  837loPI   PO412372   9.755   6.842   6.027  0.2086 -0.1427 -0.0269
  837loPI   GL112373   9.760   6.883   6.401  0.1556  0.3386  0.0303
  837loPI   GL212374   9.756   6.535   6.423 -0.1562 -0.2339  0.1023
  837loPI   C1A12375   9.817   6.777   6.853 -0.1200  0.2340 -0.0007
  837loPI   C2A12376   9.827   6.688   7.229 -0.1705 -0.0731 -0.1088
  837loPI   C3A12377   9.706   6.779   7.601  0.0079 -0.0050 -0.1011
  837loPI   C4A12378   9.717   6.754   8.017 -0.1900 -0.0259 -0.0800
  837loPI   C5A12379   9.985   6.651   8.354  0.0630  0.1945  0.0969
  837loPI   C6A12380  10.428   6.686   8.427 -0.1539  0.0537 -0.1509
  837loPI   C1B12381   9.976   6.307   6.709  0.0069  0.3472 -0.0515
  837loPI   C2B12382  10.062   6.223   7.214 -0.0700  0.3425  0.0356
  837loPI   C3B12383   9.937   6.230   7.708 -0.1382  0.0598  0.0366
  837loPI   C4B12384   9.820   6.235   8.124 -0.1146  0.0376 -0.0444
  838loPI    C112385   0.383  10.339   5.905  0.1168 -0.0553 -0.0075
  838loPI    C212386  -0.008  10.304   5.829  0.1189 -0.1872  0.0410
  838loPI    C312387   0.255  10.076   5.632  0.1908  0.0639 -0.1589
  838loPI   PO412388   0.367  10.486   6.111 -0.0548  0.3074  0.4404
  838loPI   GL112389   0.275  10.399   6.549 -0.0469 -0.2041 -0.0965
  838loPI   GL212390   0.342   9.992   6.612  0.1750 -0.0719  0.0683
  838loPI   C1A12391   0.209  10.365   6.964  0.2620 -0.3216  0.2281
  838loPI   C2A12392   0.271  10.233   7.421  0.0081 -0.2833 -0.0971
  838loPI   C3A12393   0.321  10.162   7.804  0.0786  0.0415  0.2178
  838loPI   C4A12394   0.439  10.056   8.254 -0.1471  0.0878 -0.1310
  838loPI   C5A12395   0.252   9.942   8.652  0.1232  0.1012  0.1275
  838loPI   C6A12396   0.080  10.015   9.035  0.2625 -0.0750 -0.1091
  838loPI   C1B12397   0.466   9.880   7.149  0.1014  0.0577  0.2346
  838loPI   C2B12398   0.583   9.658   7.536 -0.0762  0.2598 -0.1989
  838loPI   C3B12399   0.580   9.653   7.922  0.0380 -0.1434 -0.0417
  838loPI   C4B12400   0.658   9.643   8.384 -0.2585 -0.2830 -0.2711
  839loPI    C112401   3.143   7.354   5.559  0.1373  0.0557 -0.0299
  839loPI    C212402   2.931   7.692   5.553  0.1716  0.0839  0.2407
  839loPI    C312403   3.279   7.671   5.357  0.0916  0.1522  0.0900
  839loPI   PO412404   3.164   7.283   5.796  0.2181  0.3777  0.1304
  839loPI   GL112405   3.170   6.923   6.116 -0.1805 -0.0320 -0.1626
  839loPI   GL212406   3.051   7.169   6.238 -0.0291  0.0614 -0.0883
  839loPI   C1A12407   3.306   6.766   6.518 -0.3287 -0.0356  0.1943
  839loPI   C2A12408   3.418   6.801   6.918  0.2878  0.2451  0.2342
  839loPI   C3A12409   3.558   6.873   7.317  0.0325  0.2427  0.0832
  839loPI   C4A12410   3.533   6.886   7.746 -0.0891 -0.0240 -0.2228
  839loPI   C5A12411   3.461   6.756   8.209 -0.2395  0.0379 -0.2306
  839loPI   C6A12412   3.619   6.755   8.593  0.1455 -0.2085  0.1094
  839loPI   C1B12413   3.250   7.248   6.704  0.3670  0.1939  0.0732
  839loPI   C2B12414   3.265   7.372   7.135 -0.1779 -0.0671  0.2526
  839loPI   C3B12415   3.276   7.297   7.633 -0.2087  0.1794 -0.0607
  839loPI   C4B12416   3.338   7.270   8.040  0.0183  0.4753 -0.0111
  840loPI    C112417   4.648  11.206   6.167 -0.0071  0.0133 -0.0097
  840loPI    C212418   4.291  11.066   6.278 -0.0938  0.1735 -0.0826
  840loPI    C312419   4.433  10.983   5.914  0.1131 -0.2056  0.0781
  840loPI   PO412420   4.831  11.164   6.419 -0.1472  0.0141 -0.0437
  840loPI   GL112421   4.626  11.089   6.752 -0.0654 -0.0094 -0.0723
  840loPI   GL212422   4.428  10.872   6.757 -0.2203 -0.0746 -0.0308
  840loPI   C1A12423   4.763  11.322   7.189  0.4200  0.3668  0.0153
  840loPI   C2A12424   4.851  11.331   7.641 -0.1061 -0.0150  0.0092
  840loPI   C3A12425   4.747  11.045   7.998  0.0491 -0.0241 -0.1320
  840loPI   C4A12426   4.665  11.104   8.474  0.1686  0.1680 -0.0170
  840loPI   C5A12427   4.785  11.322   8.867 -0.1240  0.1189 -0.0689
  840loPI   C6A12428   4.884  11.624   9.100  0.0874 -0.1665 -0.1002
  840loPI   C1B12429   4.526  10.847   7.211 -0.1034 -0.1465  0.1129
  840loPI   C2B12430   4.455  10.747   7.619  0.0081 -0.1464 -0.2697
  840loPI   C3B12431   4.429  10.660   8.035 -0.1252  0.2074 -0.3803
  840loPI   C4B12432   4.127  10.712   8.304 -0.1441 -0.0567 -0.2217
  841loPI    C112433  15.109  13.504   6.045  0.2007 -0.1104  0.0574
  841loPI    C212434  15.031  13.835   5.836  0.1730 -0.1714 -0.0297
  841loPI    C312435  15.134  13.499   5.646  0.1509 -0.2263  0.0551
  841loPI   PO412436  15.136  13.518   6.288  0.4725  0.2713  0.1438
  841loPI   GL112437  15.242  13.275   6.694 -0.0789  0.1613 -0.0206
  841loPI   GL212438  15.452  13.529   6.671 -0.1163 -0.2715 -0.0307
  841loPI   C1A12439  15.220  13.382   7.122 -0.1488 -0.0579 -0.0482
  841loPI   C2A12440  15.284  13.465   7.476  0.2399  0.0424 -0.0157
  841loPI   C3A12441  15.332  13.460   7.993 -0.0001  0.3142  0.1428
  841loPI   C4A12442  15.343  13.264   8.438  0.1596 -0.0917  0.1181
  841loPI   C5A12443  15.515  13.208   8.743  0.2016 -0.0117  0.0901
  841loPI   C6A12444  15.686  13.129   9.128  0.0369  0.1425  0.1211
  841loPI   C1B12445  15.729  13.393   6.956 -0.0894  0.1957 -0.1812
  841loPI   C2B12446  15.803  13.388   7.319  0.1205 -0.2465 -0.0737
  841loPI   C3B12447  15.836  13.395   7.778  0.0342 -0.1132 -0.2075
  841loPI   C4B12448  15.858  13.355   8.188 -0.1978 -0.0344 -0.2707
  842loPI    C112449  12.605  14.308   5.780 -0.0213 -0.1495  0.1827
  842loPI    C212450  12.592  13.916   5.704 -0.1300 -0.1117 -0.0021
  842loPI    C312451  12.398  14.172   5.466  0.0777  0.0692  0.0194
  842loPI   PO412452  12.576  14.351   6.024  0.1685 -0.1926 -0.1833
  842loPI   GL112453  12.546  14.355   6.454  0.1126 -0.0155 -0.3135
  842loPI   GL212454  12.805  14.363   6.659 -0.0257  0.1890 -0.0355
  842loPI   C1A12455  12.291  14.434   6.857  0.3074  0.1865 -0.1186
  842loPI   C2A12456  12.118  14.392   7.266 -0.2946 -0.0845 -0.2493
  842loPI   C3A12457  12.168  14.464   7.689  0.1352 -0.0576  0.1099
  842loPI   C4A12458  12.111  14.329   8.078  0.1544 -0.1042  0.1496
  842loPI   C5A12459  12.037  14.289   8.524  0.0356  0.1976  0.0760
  842loPI   C6A12460  12.275  14.415   8.830 -0.0459  0.1143  0.0407
  842loPI   C1B12461  12.746  14.326   7.092  0.0699  0.0059 -0.0538
  842loPI   C2B12462  12.722  14.280   7.505  0.1956  0.0365 -0.1201
  842loPI   C3B12463  12.583  14.270   7.922 -0.0411 -0.3045 -0.0667
  842loPI   C4B12464  12.589  14.273   8.291  0.1149  0.1630 -0.0189
  843loPI    C112465   3.239   2.333   5.908  0.0406  0.2233 -0.0792
  843loPI    C212466   2.959   2.247   5.636  0.0021 -0.3138  0.1176
  843loPI    C312467   3.344   2.172   5.557  0.0472  0.0073  0.0199
  843loPI   PO412468   3.118   2.264   6.123 -0.0635  0.0241 -0.0271
  843loPI   GL112469   3.005   2.153   6.487  0.2551 -0.1484  0.0690
  843loPI   GL212470   2.690   2.189   6.605 -0.3435 -0.0368 -0.1024
  843loPI   C1A12471   3.163   2.526   6.907 -0.1737 -0.0355 -0.0482
  843loPI   C2A12472   3.143   2.680   7.262  0.0995 -0.3226 -0.2197
  843loPI   C3A12473   3.098   2.661   7.727  0.0817 -0.3656  0.1121
  843loPI   C4A12474   3.067   2.859   8.019  0.1216  0.2577 -0.1121
  843loPI   C5A12475   3.159   2.660   8.474  0.1425 -0.0754  0.2154
  843loPI   C6A12476   3.348   2.456   8.860 -0.2079  0.3208 -0.2312
  843loPI   C1B12477   2.741   2.209   7.041 -0.0451 -0.0760  0.1219
  843loPI   C2B12478   2.716   2.311   7.471 -0.4257  0.2136  0.0169
  843loPI   C3B12479   2.753   2.292   7.877  0.1236  0.2246  0.0304
  843loPI   C4B12480   2.820   2.454   8.210  0.1169 -0.2631  0.1025
  844loPI    C112481   2.865  13.771   5.822  0.1639 -0.0222 -0.0557
  844loPI    C212482   2.888  13.417   6.006 -0.1211  0.0107  0.0474
  844loPI    C312483   3.000  13.451   5.624  0.2653 -0.1062  0.1456
  844loPI   PO412484   2.861  13.946   6.109 -0.2015  0.0579  0.3630
  844loPI   GL112485   2.824  14.016   6.478 -0.1616  0.1828  0.3205
  844loPI   GL212486   2.701  13.675   6.507 -0.1417 -0.1249 -0.1511
  844loPI   C1A12487   2.670  14.180   6.840 -0.3938  0.2754 -0.1738
  844loPI   C2A12488   2.803  14.232   7.228  0.0850  0.2363  0.2947
  844loPI   C3A12489   2.888  14.380   7.667  0.0596 -0.1059 -0.1847
  844loPI   C4A12490   2.816  14.208   8.120 -0.0948  0.1064 -0.3472
  844loPI   C5A12491   2.950  14.427   8.394 -0.3855 -0.1250  0.0238
  844loPI   C6A12492   2.632  14.557   8.781  0.1726 -0.1224 -0.0276
  844loPI   C1B12493   2.665  13.661   7.000  0.0494  0.1062 -0.1145
  844loPI   C2B12494   2.738  13.692   7.361  0.4481 -0.1472  0.0958
  844loPI   C3B12495   2.805  13.704   7.827 -0.0056 -0.3037  0.2812
  844loPI   C4B12496   2.888  13.673   8.220  0.1019 -0.0091  0.0916
  845loPI    C112497   8.758  12.973   5.965  0.0470  0.0324  0.2517
  845loPI    C212498   8.823  12.929   5.572 -0.1466  0.2980  0.1876
  845loPI    C312499   8.943  13.262   5.759 -0.1018  0.1950  0.3440
  845loPI   PO412500   8.875  12.822   6.159  0.1775 -0.3015  0.0774
  845loPI   GL112501   8.966  12.959   6.515 -0.0735  0.1120 -0.1537
  845loPI   GL212502   8.945  12.700   6.650 -0.1329  0.0844 -0.1673
  845loPI   C1A12503   8.977  13.147   6.912  0.0443 -0.1330  0.0817
  845loPI   C2A12504   8.942  13.252   7.345 -0.0494 -0.1525  0.4085
  845loPI   C3A12505   9.024  13.321   7.767  0.2731 -0.2976 -0.2350
  845loPI   C4A12506   9.007  13.389   8.137 -0.3444 -0.2696  0.2390
  845loPI   C5A12507   9.044  13.535   8.589  0.0980  0.2492  0.2061
  845loPI   C6A12508   8.858  13.882   8.916 -0.1364 -0.0910  0.1315
  845loPI   C1B12509   8.929  12.719   7.093 -0.3078  0.1115  0.1052
  845loPI   C2B12510   8.985  12.746   7.520 -0.0420  0.1190  0.2118
  845loPI   C3B12511   9.008  12.789   7.910 -0.1619 -0.5484  0.0969
  845loPI   C4B12512   8.989  12.841   8.305 -0.0170 -0.0985  0.1110
  846loPI    C112513   6.462  11.573   5.904  0.1709  0.1009  0.0080
  846loPI    C212514   6.152  11.485   5.666  0.1173 -0.0384  0.1279
  846loPI    C312515   6.485  11.644   5.511 -0.0705  0.2589  0.0201
  846loPI   PO412516   6.411  11.641   6.092 -0.0912 -0.3255  0.2118
  846loPI   GL112517   6.380  11.765   6.446  0.2158 -0.2312  0.0968
  846loPI   GL212518   6.683  11.550   6.516  0.2384  0.1849  0.0971
  846loPI   C1A12519   6.286  11.915   6.751 -0.0092  0.1809 -0.0132
  846loPI   C2A12520   6.235  11.952   7.217  0.2440 -0.0195  0.0785
  846loPI   C3A12521   6.311  11.981   7.632 -0.0412 -0.3258 -0.0594
  846loPI   C4A12522   6.290  12.057   8.031  0.1455 -0.2754 -0.1444
  846loPI   C5A12523   6.488  12.032   8.462 -0.0691  0.1177  0.0217
  846loPI   C6A12524   6.619  11.696   8.711  0.1075 -0.2598  0.3219
  846loPI   C1B12525   6.631  11.630   6.836  0.0355  0.1732 -0.0148
  846loPI   C2B12526   6.668  11.699   7.249 -0.1777 -0.2050  0.0785
  846loPI   C3B12527   6.722  11.705   7.701  0.0801  0.0269  0.1717
  846loPI   C4B12528   6.780  11.687   8.120 -0.1243 -0.0022  0.3553
  847loPI    C112529  16.304  12.995   6.116 -0.0278  0.0528  0.1006
  847loPI    C212530  16.496  13.330   6.012  0.2484 -0.1917 -0.1989
  847loPI    C312531  16.288  13.126   5.738 -0.1099 -0.1476  0.0331
  847loPI   PO412532  16.075  13.091   6.313  0.2214  0.1299 -0.1986
  847loPI   GL112533  16.013  13.373   6.577 -0.0072 -0.0186 -0.2128
  847loPI   GL212534  15.934  13.689   6.641 -0.4438 -0.0116  0.1682
  847loPI   C1A12535  16.261  13.333   6.887  0.0355  0.0744 -0.0414
  847loPI   C2A12536  16.295  13.349   7.387  0.0524  0.0645 -0.1918
  847loPI   C3A12537  16.352  13.285   7.789 -0.1030 -0.1911 -0.1769
  847loPI   C4A12538  16.347  13.309   8.244 -0.2413 -0.0132  0.0113
  847loPI   C5A12539  16.546  13.082   8.642  0.1951 -0.0130  0.1783
  847loPI   C6A12540  16.701  13.063   9.068  0.0305 -0.0838 -0.1659
  847loPI   C1B12541  16.120  13.758   7.106  0.1221 -0.3253  0.1488
  847loPI   C2B12542  16.089  13.789   7.591  0.0093  0.0800  0.2185
  847loPI   C3B12543  16.150  13.723   7.946  0.2317  0.1161 -0.2834
  847loPI   C4B12544  16.180  13.763   8.338  0.1024  0.1603  0.2083
  848loPI    C112545  14.285  13.403   5.866  0.2772  0.2513  0.0083
  848loPI    C212546  14.240  13.619   5.533 -0.0671 -0.1560 -0.2192
  848loPI    C312547  14.588  13.438   5.607  0.0629  0.0679 -0.2744
  848loPI   PO412548  14.121  13.571   6.084 -0.1012 -0.0824 -0.3260
  848loPI   GL112549  14.143  13.446   6.515 -0.0012 -0.1427  0.0584
  848loPI   GL212550  13.970  13.187   6.610 -0.1354 -0.0787 -0.1546
  848loPI   C1A12551  14.290  13.590   6.857  0.0650 -0.2775 -0.0633
  848loPI   C2A12552  14.286  13.539   7.371  0.0196 -0.2810 -0.3911
  848loPI   C3A12553  14.291  13.636   7.756  0.1124 -0.0128  0.1262
  848loPI   C4A12554  14.401  13.619   8.233 -0.0043  0.1484  0.2649
  848loPI   C5A12555  14.483  13.947   8.470 -0.1749 -0.1895  0.2349
  848loPI   C6A12556  14.424  14.022   8.853  0.2742 -0.1236  0.1462
  848loPI   C1B12557  13.911  13.083   7.064 -0.0163 -0.3311 -0.0584
  848loPI   C2B12558  13.907  13.061   7.517 -0.0159  0.1091  0.0466
  848loPI   C3B12559  13.964  13.120   7.947 -0.0106 -0.0962  0.2190
  848loPI   C4B12560  14.141  13.221   8.296 -0.4687 -0.3392  0.0695
  849loPI    C112561   8.698  17.136   5.782 -0.3341 -0.2606 -0.0188
  849loPI    C212562   8.457  17.238   5.480 -0.1932 -0.0824 -0.0728
  849loPI    C312563   8.817  17.408   5.515 -0.1593 -0.1918  0.1269
  849loPI   PO412564   8.535  17.105   5.991 -0.0032 -0.0027 -0.3805
  849loPI   GL112565   8.429  17.258   6.330  0.0320  0.1087 -0.1224
  849loPI   GL212566   8.635  17.033   6.515 -0.2655  0.0355 -0.1646
  849loPI   C1A12567   8.075  17.387   6.679 -0.0565  0.0844  0.1393
  849loPI   C2A12568   7.981  17.209   7.040 -0.1796  0.3481  0.0847
  849loPI   C3A12569   8.039  17.292   7.469 -0.0418  0.0206 -0.0466
  849loPI   C4A12570   8.018  17.377   7.944  0.2556  0.1020 -0.0308
  849loPI   C5A12571   8.207  17.369   8.276 -0.3217  0.0502  0.1647
  849loPI   C6A12572   8.588  17.378   8.492  0.0837 -0.3243  0.2208
  849loPI   C1B12573   8.468  16.986   6.868  0.0881 -0.3346 -0.0291
  849loPI   C2B12574   8.442  17.094   7.278  0.0908 -0.2756  0.3618
  849loPI   C3B12575   8.507  17.087   7.680 -0.0970  0.4131 -0.0230
  849loPI   C4B12576   8.532  17.038   8.073 -0.0820  0.0100  0.2449
  850loPI    C112577   4.134   0.078   6.025 -0.3695 -0.2530  0.0048
  850loPI    C212578   4.292  -0.281   5.945 -0.0521 -0.0784 -0.1691
  850loPI    C312579   4.368   0.030   5.705 -0.0488  0.1839  0.1636
  850loPI   PO412580   4.170   0.152   6.291 -0.0083  0.0621 -0.0287
  850loPI   GL112581   4.132   0.436   6.632  0.0028  0.0627  0.2586
  850loPI   GL212582   3.837   0.275   6.659 -0.0192  0.2255 -0.0024
  850loPI   C1A12583   4.001   0.600   6.983 -0.0265  0.2319  0.0018
  850loPI   C2A12584   3.917   0.792   7.415 -0.1506 -0.0056 -0.1085
  850loPI   C3A12585   3.824   0.755   7.904  0.1358  0.0759 -0.3037
  850loPI   C4A12586   3.753   0.732   8.361 -0.0365  0.1401 -0.1806
  850loPI   C5A12587   3.793   0.375   8.717 -0.0894 -0.0682 -0.0671
  850loPI   C6A12588   3.803   0.025   8.952  0.0736  0.2574 -0.3203
  850loPI   C1B12589   3.562   0.385   7.069 -0.0846  0.3260  0.0564
  850loPI   C2B12590   3.618   0.362   7.539  0.0144 -0.2063  0.1866
  850loPI   C3B12591   3.515   0.344   7.945  0.0233 -0.0819 -0.0758
  850loPI   C4B12592   3.458   0.250   8.381  0.1448  0.1637 -0.0141
  851loPI    C112593   6.513   2.880   5.595  0.0897 -0.0912  0.0856
  851loPI    C212594   6.814   2.616   5.599  0.1579 -0.0224 -0.2337
  851loPI    C312595   6.651   2.729   5.251 -0.0602  0.1433 -0.0808
  851loPI   PO412596   6.533   3.048   5.805 -0.1782 -0.1336  0.1876
  851loPI   GL112597   6.334   2.850   6.161  0.0209 -0.0206 -0.3215
  851loPI   GL212598   6.198   2.584   6.315  0.0411  0.1645  0.0106
  851loPI   C1A12599   6.323   3.090   6.542  0.0137 -0.0359  0.1986
  851loPI   C2A12600   6.399   3.069   6.878  0.0523  0.1741 -0.2473
  851loPI   C3A12601   6.386   3.161   7.369 -0.1673  0.0081  0.0755
  851loPI   C4A12602   6.376   3.163   7.691 -0.0516 -0.2263 -0.0635
  851loPI   C5A12603   6.303   3.084   8.174  0.0673 -0.3379 -0.1449
  851loPI   C6A12604   6.316   3.245   8.616  0.0814  0.5321  0.0492
  851loPI   C1B12605   6.122   2.686   6.721  0.0844 -0.1116 -0.1157
  851loPI   C2B12606   6.061   2.699   7.146 -0.2249 -0.1219  0.1471
  851loPI   C3B12607   6.120   2.714   7.606 -0.0333 -0.0965 -0.0462
  851loPI   C4B12608   6.075   2.642   8.059  0.1835 -0.1528 -0.0328
  852loPI    C112609  13.131   7.516   6.114 -0.0785  0.0668  0.1202
  852loPI    C212610  12.815   7.731   5.996 -0.0292  0.0373 -0.0685
  852loPI    C312611  13.137   7.703   5.760 -0.0068 -0.1853 -0.0138
  852loPI   PO412612  12.934   7.366   6.341  0.3558  0.0565  0.2225
  852loPI   GL112613  12.988   7.396   6.751  0.2078 -0.1464 -0.3108
  852loPI   GL212614  12.634   7.411   6.797 -0.0279  0.1503 -0.2250
  852loPI   C1A12615  13.013   7.286   7.307  0.1907 -0.0036  0.2120
  852loPI   C2A12616  13.028   7.210   7.720 -0.1006 -0.1106  0.0031
  852loPI   C3A12617  13.133   7.008   8.122 -0.1362 -0.2795 -0.2581
  852loPI   C4A12618  13.229   7.030   8.595 -0.1946 -0.0959 -0.3033
  852loPI   C5A12619  13.627   7.114   8.893 -0.2034 -0.1196  0.0661
  852loPI   C6A12620  14.063   7.242   9.041 -0.0981 -0.0597 -0.3995
  852loPI   C1B12621  12.492   7.207   7.227 -0.0499 -0.1073  0.1857
  852loPI   C2B12622  12.491   7.302   7.611  0.0135  0.0164 -0.0121
  852loPI   C3B12623  12.634   7.180   7.997  0.1547 -0.1381 -0.1271
  852loPI   C4B12624  12.653   7.073   8.475 -0.0320 -0.0234 -0.0587
  853loPI    C112625   2.588   9.051   5.776  0.2446 -0.1462  0.0049
  853loPI    C212626   2.631   8.818   5.454 -0.1929 -0.0981 -0.0934
  853loPI    C312627   2.358   9.111   5.455  0.2009  0.2792  0.1097
  853loPI   PO412628   2.518   8.872   5.970 -0.8457 -0.0881 -0.1100
  853loPI   GL112629   2.307   8.964   6.404  0.0554  0.2301  0.0609
  853loPI   GL212630   2.566   8.902   6.565  0.1358  0.0794 -0.1734
  853loPI   C1A12631   2.244   8.958   6.931 -0.0056 -0.2158  0.1871
  853loPI   C2A12632   2.224   8.843   7.367 -0.2193  0.0954  0.0207
  853loPI   C3A12633   2.266   8.900   7.811  0.1707  0.0764  0.1381
  853loPI   C4A12634   2.263   8.733   8.212  0.1685  0.1934  0.0638
  853loPI   C5A12635   2.377   8.554   8.552  0.2562 -0.0526 -0.0078
  853loPI   C6A12636   2.419   8.542   9.030  0.0721  0.3058  0.2578
  853loPI   C1B12637   2.767   8.869   6.972  0.0952  0.0307 -0.0818
  853loPI   C2B12638   2.753   8.819   7.303 -0.4388 -0.1281  0.0412
  853loPI   C3B12639   2.744   8.777   7.754  0.0834 -0.1701 -0.1127
  853loPI   C4B12640   2.756   8.710   8.169  0.1263 -0.1306  0.0166
  854loPI    C112641   4.417   5.552   5.845 -0.1103  0.1897  0.1777
  854loPI    C212642   4.419   5.892   5.634 -0.1528  0.0928  0.0196
  854loPI    C312643   4.388   5.540   5.447 -0.3866  0.0145  0.2006
  854loPI   PO412644   4.214   5.622   6.048  0.1454 -0.1112  0.0381
  854loPI   GL112645   3.965   5.724   6.375  0.1240 -0.3366 -0.0310
  854loPI   GL212646   3.736   5.757   6.500 -0.3448  0.3498 -0.0302
  854loPI   C1A12647   4.332   5.747   6.669 -0.1485  0.0559 -0.2901
  854loPI   C2A12648   4.344   5.692   7.115  0.0429 -0.1602  0.2033
  854loPI   C3A12649   4.350   5.669   7.511  0.0917 -0.4358 -0.0014
  854loPI   C4A12650   4.398   5.703   7.957  0.1935 -0.0894 -0.0658
  854loPI   C5A12651   4.430   5.655   8.430  0.2020  0.2286 -0.1282
  854loPI   C6A12652   4.679   5.257   8.590 -0.0173  0.0729  0.0493
  854loPI   C1B12653   3.821   5.741   6.913 -0.0929 -0.2368  0.1101
  854loPI   C2B12654   3.860   5.763   7.349 -0.3576  0.3136 -0.0545
  854loPI   C3B12655   3.919   5.830   7.777  0.2267  0.2347 -0.1737
  854loPI   C4B12656   3.917   5.857   8.314  0.0814 -0.1576  0.1750
  855loPI    C112657  12.539  17.260   6.219 -0.0060  0.3411 -0.2444
  855loPI    C212658  12.355  17.108   5.899  0.3827 -0.2844 -0.1873
  855loPI    C312659  12.640  17.385   5.853 -0.0507  0.1545 -0.3211
  855loPI   PO412660  12.308  17.271   6.386 -0.0472  0.1791 -0.0067
  855loPI   GL112661  12.203  17.057   6.721 -0.0649 -0.0537 -0.0792
  855loPI   GL212662  12.087  16.798   6.723 -0.2248  0.1372 -0.1209
  855loPI   C1A12663  12.227  17.202   7.073  0.3450 -0.0483 -0.2398
  855loPI   C2A12664  12.350  17.234   7.498 -0.2160  0.4481 -0.1238
  855loPI   C3A12665  12.357  17.252   7.899 -0.0069  0.0056  0.0564
  855loPI   C4A12666  12.296  17.071   8.305  0.0792 -0.0483 -0.1599
  855loPI   C5A12667  11.946  16.991   8.569 -0.0206 -0.0579 -0.2101
  855loPI   C6A12668  11.711  16.639   8.834  0.0053 -0.0584 -0.1214
  855loPI   C1B12669  11.960  16.720   7.144 -0.0372  0.0520  0.1583
  855loPI   C2B12670  11.924  16.799   7.574  0.2377  0.1585  0.1781
  855loPI   C3B12671  11.986  16.728   8.070 -0.3427 -0.0017 -0.1778
  855loPI   C4B12672  12.211  16.589   8.483 -0.0836  0.0517  0.0756
  856loPI    C112673   0.172   1.952   5.886  0.1454 -0.2329  0.2619
  856loPI    C212674  -0.166   1.792   5.744  0.1529 -0.0876  0.0764
  856loPI    C312675   0.162   1.803   5.516  0.1860  0.0827  0.1304
  856loPI   PO412676   0.060   1.871   6.179 -0.3074  0.0147 -0.3394
  856loPI   GL112677  -0.109   1.769   6.500 -0.0562  0.2224 -0.2031
  856loPI   GL212678  -0.302   1.963   6.596  0.0896  0.2084 -0.0898
  856loPI   C1A12679   0.114   1.696   7.006 -0.0461 -0.0660 -0.2158
  856loPI   C2A12680   0.145   1.741   7.420 -0.1049  0.0671  0.0209
  856loPI   C3A12681   0.222   1.765   7.780 -0.0036 -0.2950 -0.0412
  856loPI   C4A12682   0.283   1.936   8.291 -0.2341  0.0008 -0.0300
  856loPI   C5A12683   0.234   1.971   8.689  0.1967 -0.2222  0.0145
  856loPI   C6A12684   0.046   1.825   9.121  0.3243  0.0087  0.3329
  856loPI   C1B12685  -0.347   1.891   7.084 -0.2110 -0.3018  0.2606
  856loPI   C2B12686  -0.378   1.891   7.491 -0.0261  0.0395 -0.0078
  856loPI   C3B12687  -0.228   1.877   7.913  0.1855 -0.1415 -0.1443
  856loPI   C4B12688  -0.222   2.053   8.319 -0.0669  0.1694 -0.2943
  857loPI    C112689  12.942   3.607   5.947 -0.1117 -0.4431  0.2087
  857loPI    C212690  13.288   3.781   5.847 -0.4132  0.2293  0.2833
  857loPI    C312691  13.170   3.449   5.659  0.1026  0.1873  0.0157
  857loPI   PO412692  12.964   3.540   6.177  0.2741  0.1364 -0.0235
  857loPI   GL112693  12.948   3.549   6.579  0.1060  0.0838  0.1798
  857loPI   GL212694  12.832   3.210   6.511  0.0906 -0.1582 -0.4037
  857loPI   C1A12695  12.990   3.494   7.062  0.0801 -0.1629 -0.0160
  857loPI   C2A12696  12.983   3.526   7.494 -0.0455  0.2408 -0.1511
  857loPI   C3A12697  12.968   3.427   7.953 -0.0887 -0.0144 -0.1657
  857loPI   C4A12698  12.942   3.508   8.359  0.1605 -0.0834 -0.1289
  857loPI   C5A12699  12.703   3.493   8.688  0.2025 -0.1259  0.3183
  857loPI   C6A12700  12.306   3.722   8.839 -0.2056  0.4947 -0.3320
  857loPI   C1B12701  13.112   3.019   6.758  0.2199  0.0232  0.2148
  857loPI   C2B12702  13.096   3.028   7.225 -0.0218 -0.1261  0.1345
  857loPI   C3B12703  13.100   3.023   7.636  0.0251  0.1443 -0.1060
  857loPI   C4B12704  13.141   2.980   8.068 -0.3064 -0.2927 -0.3168
  858loPI    C112705   0.019   7.363   5.853  0.1426  0.0797 -0.0540
  858loPI    C212706   0.103   7.001   5.706  0.0171 -0.0012  0.0712
  858loPI    C312707   0.015   7.301   5.458 -0.0172 -0.0917 -0.0270
  858loPI   PO412708  -0.187   7.298   6.105  0.1032  0.0775  0.1053
  858loPI   GL112709  -0.096   7.343   6.515 -0.1892 -0.1703 -0.1762
  858loPI   GL212710  -0.173   7.681   6.467 -0.2938 -0.3651 -0.0104
  858loPI   C1A12711  -0.075   7.396   6.842  0.1400 -0.1963  0.3054
  858loPI   C2A12712  -0.044   7.348   7.351 -0.1366 -0.0874  0.1545
  858loPI   C3A12713  -0.051   7.478   7.818 -0.1822 -0.0657 -0.0958
  858loPI   C4A12714  -0.052   7.393   8.211  0.0662  0.4429  0.0517
  858loPI   C5A12715  -0.337   7.390   8.552  0.0752  0.2373  0.0823
  858loPI   C6A12716  -0.599   7.235   8.844 -0.2731  0.0568  0.2306
  858loPI   C1B12717  -0.241   7.897   6.778  0.1875 -0.0348  0.1147
  858loPI   C2B12718  -0.265   8.083   7.195 -0.0596 -0.0778  0.2314
  858loPI   C3B12719  -0.274   8.040   7.678 -0.1531  0.1411  0.0538
  858loPI   C4B12720  -0.122   7.892   8.088 -0.1263 -0.3798 -0.1099
  859loPI    C112721   3.163  12.195   6.182 -0.1399  0.1384  0.0984
  859loPI    C212722   3.117  12.055   5.810 -0.0183 -0.0078  0.1372
  859loPI    C312723   2.884  12.352   5.943 -0.2155 -0.1090  0.0214
  859loPI   PO412724   3.154  12.044   6.344  0.0489  0.1014  0.1921
  859loPI   GL112725   3.023  11.921   6.795 -0.1099  0.0198  0.1402
  859loPI   GL212726   3.416  11.794   6.815  0.1258 -0.0216  0.1437
  859loPI   C1A12727   2.926  11.899   7.215 -0.2695  0.3098  0.0406
  859loPI   C2A12728   3.029  11.942   7.614  0.0319 -0.1537 -0.2450
  859loPI   C3A12729   3.050  11.881   8.055 -0.0646  0.1487 -0.1702
  859loPI   C4A12730   2.933  11.651   8.422  0.1544  0.1146  0.1883
  859loPI   C5A12731   2.921  11.380   8.582 -0.0777 -0.1081 -0.2571
  859loPI   C6A12732   3.372  11.291   8.614 -0.1713 -0.0544  0.0864
  859loPI   C1B12733   3.566  11.855   7.287  0.0947  0.1970  0.0050
  859loPI   C2B12734   3.705  11.952   7.662  0.0654  0.1520  0.0133
  859loPI   C3B12735   3.771  12.090   8.050 -0.0039 -0.2150  0.3487
  859loPI   C4B12736   3.912  12.096   8.444  0.0967  0.1406  0.3699
  860loPI    C112737   9.333  13.155   6.138 -0.2348 -0.2739 -0.0725
  860loPI    C212738   9.314  12.858   5.871  0.0206 -0.1423 -0.2416
  860loPI    C312739   9.484  13.206   5.771 -0.1845  0.0271 -0.0131
  860loPI   PO412740   9.430  12.998   6.356  0.3697 -0.1369  0.0434
  860loPI   GL112741   9.450  12.941   6.814  0.1489 -0.0456 -0.2728
  860loPI   GL212742   9.756  12.883   7.031 -0.1400 -0.1101 -0.0523
  860loPI   C1A12743   9.395  13.177   7.102 -0.3370  0.2990  0.0692
  860loPI   C2A12744   9.395  13.481   7.455 -0.1897  0.0131  0.3194
  860loPI   C3A12745   9.495  13.565   7.913  0.1379  0.2451  0.1664
  860loPI   C4A12746   9.418  13.715   8.274  0.0351  0.1155  0.1764
  860loPI   C5A12747   9.528  13.660   8.661 -0.1436 -0.2899  0.2523
  860loPI   C6A12748   9.732  13.664   8.991  0.3181  0.0774  0.1597
  860loPI   C1B12749   9.599  12.971   7.469  0.2842  0.0324  0.1583
  860loPI   C2B12750   9.477  13.096   7.816 -0.0298 -0.4406 -0.0734
  860loPI   C3B12751   9.386  13.121   8.271 -0.1747 -0.2966  0.2467
  860loPI   C4B12752   9.378  13.162   8.665  0.3041  0.1355  0.1912
  861loPI    C112753   2.299   9.697   6.074  0.0891 -0.0245  0.1181
  861loPI    C212754   2.211   9.353   5.891 -0.1253  0.1342 -0.0832
  861loPI    C312755   2.508   9.582   5.754 -0.0326  0.0672  0.0044
  861loPI   PO412756   2.269   9.587   6.304 -0.0818  0.0447 -0.2234
  861loPI   GL112757   2.441   9.462   6.739  0.0062  0.1207  0.0078
  861loPI   GL212758   2.518   9.724   6.871 -0.2207  0.2543  0.2474
  861loPI   C1A12759   2.613   9.294   7.137  0.1689 -0.1836  0.1940
  861loPI   C2A12760   2.550   9.286   7.605 -0.1933  0.1389  0.0658
  861loPI   C3A12761   2.581   9.182   8.063  0.2391  0.1535 -0.0408
  861loPI   C4A12762   2.558   9.147   8.463 -0.3994  0.2591  0.0184
  861loPI   C5A12763   2.673   8.891   8.727  0.1415 -0.3524  0.0280
  861loPI   C6A12764   2.852   8.498   8.602 -0.2460  0.2736 -0.0733
  861loPI   C1B12765   2.417   9.719   7.340 -0.0596  0.0107  0.1293
  861loPI   C2B12766   2.470   9.771   7.787 -0.0868  0.1439 -0.0686
  861loPI   C3B12767   2.449   9.637   8.291  0.1235  0.0614  0.1302
  861loPI   C4B12768   2.343   9.483   8.768  0.0418  0.0679  0.0351
  862loPI    C112769   4.513  15.460   5.687  0.1728  0.1408 -0.2242
  862loPI    C212770   4.627  15.843   5.710  0.1151  0.1574 -0.2149
  862loPI    C312771   4.304  15.743   5.496  0.0692  0.1272 -0.1316
  862loPI   PO412772   4.546  15.412   5.968  0.2308 -0.3325  0.2437
  862loPI   GL112773   4.884  15.574   6.274 -0.3258  0.2201  0.1368
  862loPI   GL212774   4.616  15.822   6.352 -0.1002  0.2180  0.0030
  862loPI   C1A12775   4.869  15.483   6.670 -0.1022 -0.0293  0.0730
  862loPI   C2A12776   5.055  15.431   7.109  0.0182 -0.0662  0.0658
  862loPI   C3A12777   5.098  15.408   7.591  0.0425  0.1883 -0.1101
  862loPI   C4A12778   5.159  15.448   7.967 -0.2347  0.1386 -0.1369
  862loPI   C5A12779   5.075  15.403   8.388 -0.0795  0.0887  0.0533
  862loPI   C6A12780   5.083  15.681   8.690  0.1208 -0.0460 -0.3234
  862loPI   C1B12781   4.539  15.814   6.797  0.0750 -0.1292 -0.0601
  862loPI   C2B12782   4.607  15.695   7.178  0.0823 -0.0322  0.1287
  862loPI   C3B12783   4.705  15.751   7.533  0.0067 -0.1108 -0.3498
  862loPI   C4B12784   4.740  15.655   7.982  0.1293  0.1075  0.0606
  863loPI    C112785  10.756   0.255   5.969 -0.0063  0.2125 -0.0412
  863loPI    C212786  10.677  -0.036   5.706  0.0906  0.0863  0.0680
  863loPI    C312787  10.786   0.326   5.576  0.2889 -0.0192 -0.0635
  863loPI   PO412788  10.777   0.130   6.189 -0.2349 -0.1276 -0.2918
  863loPI   GL112789  10.996   0.203   6.541 -0.1364 -0.0562  0.0424
  863loPI   GL212790  11.344   0.194   6.584 -0.1200 -0.3688 -0.1360
  863loPI   C1A12791  10.722   0.138   6.901 -0.1069 -0.1278 -0.1682
  863loPI   C2A12792  10.575   0.295   7.271 -0.0576 -0.1680  0.0451
  863loPI   C3A12793  10.714   0.214   7.749  0.1136 -0.2349 -0.2058
  863loPI   C4A12794  10.782   0.104   8.210  0.2047 -0.0381  0.0693
  863loPI   C5A12795  10.527   0.314   8.464  0.2884  0.2507 -0.0569
  863loPI   C6A12796  10.571   0.753   8.634 -0.0439  0.0778  0.0266
  863loPI   C1B12797  11.239   0.107   7.010  0.1580  0.1753 -0.2203
  863loPI   C2B12798  11.308   0.088   7.536 -0.0357  0.0472  0.1660
  863loPI   C3B12799  11.353   0.052   7.926 -0.2438 -0.4200 -0.0700
  863loPI   C4B12800  11.200   0.139   8.420  0.0038  0.0075 -0.2222
  864loPI    C112801  14.321   7.263   6.198  0.0720 -0.1560 -0.2103
  864loPI    C212802  14.578   7.431   5.942 -0.1372  0.1593 -0.2192
  864loPI    C312803  14.320   7.155   5.813 -0.1101  0.1746 -0.3070
  864loPI   PO412804  14.118   7.497   6.319  0.2432  0.2240 -0.3455
  864loPI   GL112805  14.084   7.517   6.764  0.1148  0.0450 -0.3030
  864loPI   GL212806  13.790   7.646   6.851 -0.1948 -0.2779 -0.1906
  864loPI   C1A12807  14.384   7.517   7.048 -0.0173 -0.1126  0.1132
  864loPI   C2A12808  14.405   7.438   7.528 -0.1353 -0.0354 -0.0795
  864loPI   C3A12809  14.452   7.366   7.941 -0.0191  0.4268 -0.1903
  864loPI   C4A12810  14.392   7.315   8.375 -0.0841  0.1431  0.2357
  864loPI   C5A12811  14.335   7.563   8.701  0.1364  0.0488 -0.0612
  864loPI   C6A12812  14.653   7.826   8.951 -0.1405  0.1753 -0.0441
  864loPI   C1B12813  13.918   7.481   7.254 -0.0844 -0.1303  0.0078
  864loPI   C2B12814  13.932   7.446   7.695  0.0487 -0.1737  0.0153
  864loPI   C3B12815  13.967   7.451   8.063  0.1565  0.1218 -0.0805
  864loPI   C4B12816  13.906   7.318   8.441 -0.0117 -0.0014  0.2331
  865loPI    C112817   2.173   3.835   5.694 -0.2424 -0.0608 -0.1537
  865loPI    C212818   2.138   3.438   5.656 -0.0780 -0.1303  0.3417
  865loPI    C312819   2.325   3.651   5.373 -0.0134 -0.4271  0.1568
  865loPI   PO412820   2.010   3.811   5.932  0.0839  0.0125  0.3053
  865loPI   GL112821   2.303   3.680   6.327  0.5278 -0.0139  0.1882
  865loPI   GL212822   1.837   3.613   6.517  0.2705  0.0819  0.4097
  865loPI   C1A12823   2.175   3.812   6.823 -0.1124  0.0103  0.0094
  865loPI   C2A12824   2.238   3.876   7.248  0.3661 -0.0470  0.1177
  865loPI   C3A12825   2.230   3.754   7.707  0.1095 -0.0283 -0.2362
  865loPI   C4A12826   2.229   3.918   8.079  0.1500  0.3019  0.1036
  865loPI   C5A12827   2.257   3.927   8.544 -0.0813  0.1528 -0.0138
  865loPI   C6A12828   2.513   4.001   8.832 -0.3065  0.1268 -0.0649
  865loPI   C1B12829   1.454   3.547   6.849  0.0390  0.0261 -0.1982
  865loPI   C2B12830   1.429   3.504   7.261  0.2532  0.0932 -0.0758
  865loPI   C3B12831   1.401   3.507   7.682  0.1619  0.0011  0.1345
  865loPI   C4B12832   1.383   3.467   8.113  0.2053  0.1162  0.0158
  866loPI    C112833   9.368   2.252   5.788  0.0717  0.0763  0.2406
  866loPI    C212834   9.622   2.464   5.563  0.1888 -0.0508  0.2515
  866loPI    C312835   9.686   2.074   5.622 -0.0034 -0.0812  0.2640
  866loPI   PO412836   9.356   2.445   6.071  0.0088 -0.0580  0.1151
  866loPI   GL112837   9.424   2.639   6.492 -0.2250 -0.1460 -0.2112
  866loPI   GL212838   9.549   2.257   6.593 -0.1932 -0.1591 -0.1412
  866loPI   C1A12839   9.394   2.696   6.926 -0.0379 -0.1621 -0.0172
  866loPI   C2A12840   9.464   2.697   7.357  0.1640  0.0640  0.1128
  866loPI   C3A12841   9.494   2.688   7.855  0.0596  0.1383  0.3290
  866loPI   C4A12842   9.369   2.706   8.243 -0.1443  0.1268  0.1028
  866loPI   C5A12843   8.976   2.657   8.551 -0.0089  0.1192 -0.0990
  866loPI   C6A12844   8.573   2.479   8.526  0.1139  0.0727 -0.1633
  866loPI   C1B12845   9.601   2.247   7.108  0.1914  0.1670 -0.0428
  866loPI   C2B12846   9.670   2.271   7.560 -0.0924  0.0855  0.0639
  866loPI   C3B12847   9.690   2.248   7.986 -0.3058  0.0248  0.0470
  866loPI   C4B12848   9.886   2.182   8.347  0.1715 -0.1091 -0.1911
  867loPI    C112849  14.984   3.559   5.805  0.1725  0.0617  0.0286
  867loPI    C212850  15.201   3.806   5.576 -0.0667  0.1059 -0.1546
  867loPI    C312851  14.805   3.779   5.523 -0.0909 -0.0668  0.0921
  867loPI   PO412852  15.009   3.621   6.092 -0.2224 -0.0374  0.2609
  867loPI   GL112853  14.969   3.411   6.512  0.1605  0.1598 -0.1510
  867loPI   GL212854  14.760   3.537   6.536 -0.0216  0.1121 -0.4383
  867loPI   C1A12855  15.218   3.509   6.893  0.0261 -0.2389 -0.1237
  867loPI   C2A12856  15.437   3.469   7.312  0.4449 -0.2361  0.0999
  867loPI   C3A12857  15.448   3.496   7.681  0.1243 -0.0354  0.0535
  867loPI   C4A12858  15.348   3.526   8.085  0.1300  0.0223  0.1393
  867loPI   C5A12859  15.339   3.404   8.515 -0.2591  0.0838 -0.3219
  867loPI   C6A12860  15.364   3.418   8.968  0.2940  0.0346  0.0273
  867loPI   C1B12861  14.768   3.612   7.018 -0.0881 -0.2712  0.1535
  867loPI   C2B12862  14.854   3.618   7.430 -0.1068  0.1046 -0.2637
  867loPI   C3B12863  14.894   3.617   7.871  0.1781 -0.0692 -0.2685
  867loPI   C4B12864  14.818   3.738   8.328 -0.0497 -0.0959  0.0141
  868loPI    C112865  16.173  11.932   6.213 -0.1221 -0.0122  0.1735
  868loPI    C212866  15.910  12.209   6.094  0.1151  0.1960  0.1249
  868loPI    C312867  16.107  11.991   5.823 -0.0313  0.0152  0.1620
  868loPI   PO412868  16.238  12.078   6.441 -0.0071  0.3200  0.0383
  868loPI   GL112869  16.044  12.240   6.743 -0.0147  0.0913  0.0668
  868loPI   GL212870  15.714  12.147   6.866  0.0013 -0.0182 -0.0673
  868loPI   C1A12871  16.133  12.475   7.009 -0.2750  0.1224  0.1124
  868loPI   C2A12872  16.219  12.523   7.376 -0.0584  0.2250 -0.0958
  868loPI   C3A12873  16.231  12.485   7.679 -0.1466 -0.1288 -0.1467
  868loPI   C4A12874  16.390  12.301   8.010 -0.1340  0.0106 -0.0361
  868loPI   C5A12875  16.301  12.242   8.374 -0.1361 -0.0562  0.1701
  868loPI   C6A12876  16.233  12.093   8.757  0.2742 -0.0152  0.0871
  868loPI   C1B12877  15.717  12.444   7.236  0.2379 -0.0581  0.1315
  868loPI   C2B12878  15.737  12.537   7.675  0.1907  0.0203 -0.0513
  868loPI   C3B12879  15.895  12.425   8.037 -0.1117  0.3077  0.0740
  868loPI   C4B12880  15.851  12.383   8.495  0.1176 -0.1372  0.0792
  869loPI    C112881   7.870   3.527   5.806  0.0486 -0.3425 -0.0875
  869loPI    C212882   8.256   3.575   5.711  0.0746 -0.0209  0.1635
  869loPI    C312883   7.977   3.578   5.424  0.2371 -0.0272  0.0039
  869loPI   PO412884   7.881   3.332   5.928  0.2522 -0.0467 -0.0352
  869loPI   GL112885   7.885   3.187   6.258 -0.1032 -0.0447  0.0541
  869loPI   GL212886   7.951   2.955   6.437  0.0306 -0.1811  0.5475
  869loPI   C1A12887   7.719   3.333   6.605  0.3254 -0.0823  0.1451
  869loPI   C2A12888   7.760   3.390   7.035 -0.0692  0.0859  0.0247
  869loPI   C3A12889   7.746   3.445   7.474 -0.0535  0.0603  0.1452
  869loPI   C4A12890   7.679   3.439   7.874 -0.2208 -0.1663  0.2770
  869loPI   C5A12891   7.680   3.476   8.307  0.0950 -0.1579  0.1629
  869loPI   C6A12892   7.934   3.640   8.730 -0.0457  0.1962  0.0660
  869loPI   C1B12893   7.902   2.928   6.859 -0.1920  0.1642  0.1935
  869loPI   C2B12894   7.847   2.971   7.273  0.1764 -0.1900  0.2372
  869loPI   C3B12895   7.938   2.998   7.657 -0.4138 -0.4033  0.0026
  869loPI   C4B12896   7.940   2.890   8.195 -0.2409 -0.3562  0.1173
  870loPI    C112897   3.145   1.817   5.816 -0.0768  0.1580 -0.1550
  870loPI    C212898   3.050   1.576   5.510  0.0221 -0.0903  0.0060
  870loPI    C312899   3.433   1.661   5.585 -0.0010 -0.0421  0.0706
  870loPI   PO412900   3.079   1.800   6.016 -0.5572  0.0868  0.0203
  870loPI   GL112901   3.250   1.625   6.414  0.0314 -0.1910 -0.0034
  870loPI   GL212902   3.074   1.372   6.453  0.0822  0.2374  0.2288
  870loPI   C1A12903   3.166   1.785   6.756 -0.1474 -0.0264 -0.1111
  870loPI   C2A12904   3.095   1.896   7.171 -0.0400 -0.2690  0.0435
  870loPI   C3A12905   2.919   1.837   7.600  0.1686  0.1356  0.1176
  870loPI   C4A12906   2.976   1.801   8.021 -0.3446 -0.2422 -0.0203
  870loPI   C5A12907   3.044   1.817   8.466  0.0412 -0.1012 -0.2359
  870loPI   C6A12908   2.990   2.157   8.704  0.0604 -0.1904 -0.1996
  870loPI   C1B12909   3.302   1.274   6.835  0.0241 -0.3284  0.0020
  870loPI   C2B12910   3.310   1.415   7.218  0.3180 -0.0402  0.1292
  870loPI   C3B12911   3.169   1.350   7.690 -0.1157  0.2274  0.1862
  870loPI   C4B12912   3.134   1.269   8.140  0.3062 -0.1026  0.2727
  871loPI    C112913  15.994  11.365   6.323  0.2698  0.2343 -0.0120
  871loPI    C212914  15.958  11.559   5.975 -0.0937  0.0960 -0.0562
  871loPI    C312915  16.118  11.192   5.984  0.0033  0.1376 -0.0626
  871loPI   PO412916  16.133  11.445   6.467 -0.0959 -0.3567  0.1922
  871loPI   GL112917  16.330  11.347   6.845 -0.1814  0.2479 -0.1319
  871loPI   GL212918  16.392  10.999   6.908 -0.1421  0.3682  0.2715
  871loPI   C1A12919  16.160  11.404   7.212  0.2630  0.0334 -0.1198
  871loPI   C2A12920  16.240  11.411   7.705 -0.1512  0.0864 -0.3419
  871loPI   C3A12921  16.332  11.464   8.179 -0.1431 -0.2856  0.0478
  871loPI   C4A12922  16.423  11.652   8.575  0.0708 -0.2729 -0.1724
  871loPI   C5A12923  16.619  11.776   8.929 -0.0162  0.2126 -0.0787
  871loPI   C6A12924  16.812  11.699   9.296  0.0106  0.0437  0.1426
  871loPI   C1B12925  16.456  10.955   7.427 -0.1359  0.3736  0.0361
  871loPI   C2B12926  16.463  10.980   7.904 -0.0369 -0.0688  0.0865
  871loPI   C3B12927  16.549  10.981   8.308 -0.1364 -0.0149  0.1896
  871loPI   C4B12928  16.884  10.856   8.610 -0.0316 -0.0498  0.2246
  872loPI    C112929  12.961  14.041   6.037  0.0882 -0.1647 -0.0955
  872loPI    C212930  13.225  13.916   5.764 -0.0986 -0.2313 -0.2472
  872loPI    C312931  13.086  14.291   5.751 -0.0346 -0.2052 -0.1852
  872loPI   PO412932  12.934  14.031   6.271  0.0045  0.0690 -0.2414
  872loPI   GL112933  12.664  13.878   6.679  0.3935  0.1941 -0.0889
  872loPI   GL212934  12.934  13.780   6.800 -0.0579 -0.0766 -0.4244
  872loPI   C1A12935  12.352  13.925   7.017  0.0055  0.0258  0.0043
  872loPI   C2A12936  12.367  13.878   7.423 -0.1016  0.2065 -0.0895
  872loPI   C3A12937  12.338  13.842   7.888 -0.0284 -0.4557  0.2015
  872loPI   C4A12938  12.266  13.873   8.330  0.1027 -0.3375 -0.1319
  872loPI   C5A12939  12.099  13.760   8.678 -0.0777 -0.0738 -0.2035
  872loPI   C6A12940  11.944  13.979   8.957  0.2625  0.4069  0.0614
  872loPI   C1B12941  12.838  13.877   7.257  0.1877  0.3388 -0.4715
  872loPI   C2B12942  12.902  13.797   7.674  0.0587 -0.2443 -0.1103
  872loPI   C3B12943  12.801  13.846   8.133  0.2640  0.0450 -0.0641
  872loPI   C4B12944  13.015  13.744   8.477  0.2123  0.3646  0.0177
  873loPI    C112945   9.592   7.441   5.769  0.1735 -0.0555  0.0624
  873loPI    C212946   9.606   7.131   5.516  0.0608  0.0255 -0.0443
  873loPI    C312947   9.327   7.414   5.470  0.0821  0.0758  0.1308
  873loPI   PO412948   9.676   7.358   6.013 -0.0757  0.0073  0.2365
  873loPI   GL112949   9.856   7.351   6.538 -0.1239  0.2147 -0.0991
  873loPI   GL212950  10.125   7.177   6.640 -0.1881 -0.0623  0.0453
  873loPI   C1A12951   9.600   7.177   6.884  0.1096  0.3523 -0.2919
  873loPI   C2A12952   9.596   7.242   7.319  0.2583 -0.0524  0.2911
  873loPI   C3A12953   9.565   7.204   7.748  0.3614 -0.1029  0.2480
  873loPI   C4A12954   9.544   7.251   8.131  0.1411  0.2070 -0.3889
  873loPI   C5A12955   9.370   7.043   8.427  0.0139  0.0729  0.0142
  873loPI   C6A12956   9.001   7.089   8.673  0.1242 -0.1264 -0.0399
  873loPI   C1B12957  10.061   7.154   7.087  0.0174  0.1435 -0.0270
  873loPI   C2B12958  10.051   7.113   7.506  0.2307  0.0770 -0.2067
  873loPI   C3B12959  10.071   7.029   7.931 -0.2208  0.1337  0.1887
  873loPI   C4B12960  10.116   7.108   8.308  0.0844 -0.3785 -0.1895
  874loPI    C112961  16.113   6.904   5.959  0.0776 -0.0061  0.1734
  874loPI    C212962  16.402   7.075   5.741  0.1398  0.0399  0.2906
  874loPI    C312963  16.059   6.963   5.567  0.0788  0.3274  0.2206
  874loPI   PO412964  16.055   7.012   6.161  0.0054 -0.1079  0.0203
  874loPI   GL112965  16.130   7.165   6.549 -0.1645  0.1643 -0.1532
  874loPI   GL212966  15.843   7.173   6.597  0.0647  0.1658 -0.2319
  874loPI   C1A12967  16.375   7.129   6.842 -0.1877 -0.0654  0.3082
  874loPI   C2A12968  16.371   6.955   7.250  0.0356 -0.0380  0.1534
  874loPI   C3A12969  16.407   7.021   7.756 -0.2830  0.2034  0.1418
  874loPI   C4A12970  16.402   7.069   8.195 -0.0734  0.2455 -0.0830
  874loPI   C5A12971  16.555   6.846   8.607  0.1276  0.3709 -0.0698
  874loPI   C6A12972  16.552   6.633   9.015  0.0377 -0.1555 -0.3857
  874loPI   C1B12973  15.922   7.211   7.065  0.1834 -0.1381  0.0751
  874loPI   C2B12974  15.974   7.184   7.442  0.2476  0.1583 -0.2332
  874loPI   C3B12975  15.982   7.139   7.865  0.1898 -0.1178  0.0412
  874loPI   C4B12976  15.881   7.068   8.387  0.2458  0.1987 -0.1871
  875loPI    C112977   7.279   2.458   5.577  0.3611 -0.2464 -0.1542
  875loPI    C212978   7.176   2.084   5.479 -0.0132 -0.1694 -0.0695
  875loPI    C312979   7.067   2.390   5.245 -0.0350 -0.0798  0.0562
  875loPI   PO412980   7.207   2.480   5.846 -0.2730  0.0044  0.0855
  875loPI   GL112981   7.322   2.630   6.169 -0.0238 -0.0603 -0.1935
  875loPI   GL212982   7.100   2.390   6.367  0.1362 -0.0570  0.4069
  875loPI   C1A12983   7.505   2.770   6.593  0.0574 -0.0372  0.1038
  875loPI   C2A12984   7.354   2.943   7.009 -0.2138  0.0241  0.0748
  875loPI   C3A12985   7.328   3.003   7.389  0.2753  0.0123 -0.1677
  875loPI   C4A12986   7.339   3.096   7.749 -0.0656 -0.1724 -0.1201
  875loPI   C5A12987   7.402   2.993   8.190  0.0245  0.1120  0.0513
  875loPI   C6A12988   7.633   3.017   8.616  0.0094 -0.2994  0.2252
  875loPI   C1B12989   7.067   2.519   6.794 -0.0943  0.4284 -0.0596
  875loPI   C2B12990   7.046   2.562   7.274  0.0571  0.0635 -0.0839
  875loPI   C3B12991   7.143   2.638   7.727  0.2081 -0.0456  0.2481
  875loPI   C4B12992   7.088   2.633   8.202  0.0021 -0.1258 -0.1458
  876loPI    C112993   8.345  10.007   6.134  0.1018 -0.0802  0.0057
  876loPI    C212994   8.652  10.080   5.888  0.1139 -0.0337  0.0345
  876loPI    C312995   8.360   9.832   5.774  0.0670  0.0682 -0.0689
  876loPI   PO412996   8.314  10.238   6.266 -0.0505 -0.1298  0.0206
  876loPI   GL112997   8.051  10.420   6.506 -0.0987 -0.1509 -0.0621
  876loPI   GL212998   7.734  10.595   6.553 -0.0770  0.2734 -0.0095
  876loPI   C1A12999   8.317  10.468   6.840 -0.0162  0.2331 -0.1286
  876loPI   C2A13000   8.297  10.494   7.168 -0.2078 -0.2520 -0.1075
  876loPI   C3A13001   8.229  10.498   7.620  0.0318 -0.1245  0.1449
  876loPI   C4A13002   8.264  10.472   8.112 -0.2770  0.0460  0.3553
  876loPI   C5A13003   8.509  10.489   8.432 -0.0563  0.3054 -0.1205
  876loPI   C6A13004   8.974  10.456   8.496  0.0601 -0.1199 -0.2903
  876loPI   C1B13005   7.915  10.801   6.920  0.2589 -0.3236 -0.0494
  876loPI   C2B13006   7.963  10.786   7.382 -0.0430 -0.0228 -0.1685
  876loPI   C3B13007   7.936  10.906   7.781  0.1312  0.0434  0.0069
  876loPI   C4B13008   8.001  10.844   8.195 -0.4358 -0.2175  0.0983
  877loPI    C113009   8.653  11.128   6.066 -0.1996 -0.2464  0.0032
  877loPI    C213010   8.324  11.223   5.860 -0.1507 -0.3846 -0.1412
  877loPI    C313011   8.669  11.163   5.668  0.0343  0.0623  0.0364
  877loPI   PO413012   8.675  10.957   6.187  0.2151 -0.0450 -0.4106
  877loPI   GL113013   8.451  10.692   6.463  0.1418  0.1211  0.0666
  877loPI   GL213014   8.174  10.904   6.476 -0.2934 -0.1797  0.0573
  877loPI   C1A13015   8.473  10.967   6.840 -0.1055  0.4354 -0.0162
  877loPI   C2A13016   8.330  11.032   7.114 -0.0463  0.0582 -0.0716
  877loPI   C3A13017   8.358  11.033   7.545 -0.3757  0.2951  0.0602
  877loPI   C4A13018   8.448  10.968   7.876 -0.1102 -0.2033 -0.1135
  877loPI   C5A13019   8.581  10.965   8.318  0.2727  0.0623 -0.1821
  877loPI   C6A13020   8.340  11.105   8.676  0.3315  0.0062 -0.1926
  877loPI   C1B13021   8.026  11.237   6.784  0.0279 -0.1856  0.2258
  877loPI   C2B13022   7.964  11.331   7.270  0.4207  0.0707  0.0029
  877loPI   C3B13023   7.983  11.342   7.672  0.0476 -0.1334  0.0384
  877loPI   C4B13024   8.174  11.328   8.076  0.0411  0.1427  0.0171
  878loPI    C113025  10.944  15.799   5.900  0.0783  0.1723  0.1337
  878loPI    C213026  11.217  15.911   5.631  0.0091 -0.0991 -0.0537
  878loPI    C313027  11.098  15.529   5.648 -0.1008 -0.0535  0.2613
  878loPI   PO413028  10.973  15.945   6.167  0.1851 -0.0329  0.0993
  878loPI   GL113029  10.921  16.146   6.529  0.0726  0.1279 -0.2771
  878loPI   GL213030  11.238  16.211   6.703  0.3760  0.0812  0.0140
  878loPI   C1A13031  10.584  16.047   6.848  0.0714  0.1691 -0.2457
  878loPI   C2A13032  10.685  16.224   7.282  0.0889  0.2046  0.0441
  878loPI   C3A13033  10.737  16.126   7.704 -0.1837 -0.0577  0.1145
  878loPI   C4A13034  10.696  16.125   8.129 -0.0089 -0.2012 -0.1474
  878loPI   C5A13035  10.685  16.317   8.552  0.2959 -0.1676  0.1075
  878loPI   C6A13036  10.365  16.340   8.832 -0.2424  0.1402 -0.0912
  878loPI   C1B13037  11.148  16.022   7.067 -0.0023  0.0489 -0.0377
  878loPI   C2B13038  11.219  16.088   7.357  0.1187  0.3938 -0.0533
  878loPI   C3B13039  11.304  16.018   7.740  0.1440  0.2515  0.1822
  878loPI   C4B13040  11.359  16.055   8.258  0.0268  0.1759  0.0572
  879loPI    C113041  17.128  11.855   6.358 -0.0249 -0.0657 -0.0245
  879loPI    C213042  16.931  11.564   6.167 -0.0497  0.0419 -0.1644
  879loPI    C313043  17.057  11.886   5.965 -0.0373  0.1363 -0.0073
  879loPI   PO413044  17.008  11.883   6.577  0.2094 -0.0048 -0.2596
  879loPI   GL113045  16.791  11.780   7.010 -0.2090 -0.0774 -0.0132
  879loPI   GL213046  16.613  11.701   7.083  0.4838 -0.2283  0.0405
  879loPI   C1A13047  17.036  11.769   7.471 -0.3341 -0.2877  0.0485
  879loPI   C2A13048  17.128  11.866   7.944 -0.0312 -0.2170 -0.1787
  879loPI   C3A13049  17.171  11.920   8.396  0.1532  0.1096  0.0256
  879loPI   C4A13050  17.154  11.782   8.793 -0.2043 -0.1987 -0.0431
  879loPI   C5A13051  17.030  12.112   9.059  0.1649  0.0289  0.0550
  879loPI   C6A13052  17.295  12.422   9.191 -0.1142 -0.1964  0.3488
  879loPI   C1B13053  16.520  11.692   7.430  0.0612  0.1632 -0.3166
  879loPI   C2B13054  16.571  11.795   7.867 -0.4606 -0.2308 -0.4121
  879loPI   C3B13055  16.710  11.867   8.234  0.0770 -0.2122  0.1169
  879loPI   C4B13056  16.754  12.173   8.651 -0.2015  0.0738  0.0373
  880loPI    C113057  14.895   1.266   5.968 -0.2983 -0.0043  0.3234
  880loPI    C213058  14.730   0.965   6.173 -0.0212 -0.3487  0.0556
  880loPI    C313059  14.749   0.948   5.773 -0.0466  0.0524  0.0331
  880loPI   PO413060  15.120   1.329   6.100  0.0457  0.2743 -0.0854
  880loPI   GL113061  15.198   1.144   6.458  0.0777  0.2900 -0.1366
  880loPI   GL213062  15.440   0.871   6.507  0.2101 -0.1705  0.1235
  880loPI   C1A13063  15.158   1.240   6.890  0.3417  0.0151  0.2114
  880loPI   C2A13064  15.233   1.307   7.287  0.0307  0.0308  0.0086
  880loPI   C3A13065  15.313   1.252   7.748 -0.1536 -0.2539 -0.0512
  880loPI   C4A13066  15.283   1.315   8.181 -0.0526 -0.2177  0.1579
  880loPI   C5A13067  15.416   1.265   8.634 -0.0817  0.0610 -0.2121
  880loPI   C6A13068  15.587   1.295   9.054 -0.2131  0.2182  0.2648
  880loPI   C1B13069  15.432   0.769   7.038 -0.0655  0.0344 -0.1779
  880loPI   C2B13070  15.417   0.801   7.489  0.0079  0.1547  0.0238
  880loPI   C3B13071  15.320   0.787   7.836  0.2003 -0.0476 -0.3214
  880loPI   C4B13072  15.477   0.854   8.277  0.0668 -0.1601  0.0803
  881loPI    C113073  10.009  11.786   6.203  0.0335 -0.0361  0.1497
  881loPI    C213074  10.383  11.833   6.337  0.0413  0.2377  0.0385
  881loPI    C313075  10.263  12.024   6.007 -0.1419  0.0014 -0.0350
  881loPI   PO413076   9.955  11.733   6.489  0.1249  0.0721 -0.0813
  881loPI   GL113077  10.208  11.647   6.810  0.0832  0.0349  0.1706
  881loPI   GL213078  10.399  11.894   6.845 -0.3107 -0.0832 -0.4223
  881loPI   C1A13079   9.873  11.511   7.088 -0.1107  0.0655  0.1551
  881loPI   C2A13080   9.803  11.400   7.536 -0.0872  0.2664 -0.1137
  881loPI   C3A13081   9.821  11.290   7.944  0.0875 -0.0462  0.0776
  881loPI   C4A13082  10.002  11.351   8.265  0.1265  0.1829 -0.0018
  881loPI   C5A13083   9.834  11.352   8.724 -0.0298  0.0061  0.1545
  881loPI   C6A13084   9.970  11.257   9.064 -0.0759 -0.0621 -0.2957
  881loPI   C1B13085  10.081  11.986   7.209  0.0333 -0.3322  0.0799
  881loPI   C2B13086   9.976  11.850   7.596 -0.0638  0.3750 -0.0041
  881loPI   C3B13087   9.881  11.768   7.971  0.0503  0.2705 -0.1730
  881loPI   C4B13088   9.830  11.808   8.461 -0.0520 -0.1391  0.0140
  882loPI    C113089  10.642  12.530   6.285 -0.3563 -0.1916  0.0672
  882loPI    C213090  10.486  12.454   5.925  0.0622 -0.1764 -0.1232
  882loPI    C313091  10.883  12.457   5.974  0.0140  0.0239  0.2958
  882loPI   PO413092  10.561  12.345   6.530 -0.1051  0.1082 -0.1878
  882loPI   GL113093  10.648  12.356   7.023 -0.1148  0.2761 -0.2739
  882loPI   GL213094  10.969  12.422   6.839  0.1271  0.0483  0.2097
  882loPI   C1A13095  10.514  12.048   7.425  0.0420 -0.1138 -0.0349
  882loPI   C2A13096  10.390  12.128   7.751  0.0446 -0.3040  0.1333
  882loPI   C3A13097  10.624  12.149   8.176  0.0648  0.0399 -0.1284
  882loPI   C4A13098  10.875  12.257   8.457 -0.1842 -0.0118  0.0247
  882loPI   C5A13099  10.728  12.560   8.744  0.0964 -0.0920 -0.1286
  882loPI   C6A13100  10.819  12.945   9.023  0.1775  0.2155 -0.2127
  882loPI   C1B13101  11.056  12.269   7.253 -0.2798  0.1410  0.1945
  882loPI   C2B13102  11.039  12.342   7.670  0.2590 -0.0215  0.2122
  882loPI   C3B13103  11.122  12.033   7.968 -0.0595 -0.0891  0.0457
  882loPI   C4B13104  11.251  11.886   8.291  0.0460  0.3144 -0.0647
  883loPI    C113105   4.724   8.533   5.842 -0.0082 -0.0951 -0.2024
  883loPI    C213106   4.784   8.156   5.963 -0.0743 -0.0574 -0.0497
  883loPI    C313107   5.020   8.316   5.682  0.1103 -0.1318  0.0607
  883loPI   PO413108   4.745   8.705   6.167  0.0569  0.0201 -0.1344
  883loPI   GL113109   5.048   8.830   6.531 -0.1040  0.1368  0.0432
  883loPI   GL213110   4.649   8.935   6.572  0.1996 -0.1399 -0.1716
  883loPI   C1A13111   5.085   8.849   6.926 -0.0162 -0.0362 -0.0073
  883loPI   C2A13112   5.099   8.784   7.297  0.0031  0.2487 -0.1477
  883loPI   C3A13113   5.126   8.799   7.724 -0.0646 -0.3716 -0.1086
  883loPI   C4A13114   5.187   8.703   8.093 -0.3483  0.0665  0.3844
  883loPI   C5A13115   5.151   8.469   8.484  0.1477  0.0265 -0.2924
  883loPI   C6A13116   5.201   8.391   8.921 -0.0914  0.1000  0.0660
  883loPI   C1B13117   4.554   8.870   7.019  0.0174 -0.0928 -0.0938
  883loPI   C2B13118   4.610   8.842   7.525  0.1824  0.3251  0.0783
  883loPI   C3B13119   4.667   8.846   7.894  0.2659 -0.2247 -0.0652
  883loPI   C4B13120   4.717   8.839   8.385  0.1057  0.1096 -0.0106
  884loPI    C113121   2.994  10.193   6.133  0.0027 -0.1996  0.0654
  884loPI    C213122   2.881  10.423   5.826  0.1558 -0.0188  0.1430
  884loPI    C313123   2.634  10.143   5.967  0.1798 -0.2764 -0.3074
  884loPI   PO413124   3.031  10.307   6.347  0.0268  0.0770  0.3880
  884loPI   GL113125   3.008  10.372   6.714  0.2860 -0.0820 -0.1867
  884loPI   GL213126   2.848  10.135   6.854 -0.2392  0.0321 -0.0152
  884loPI   C1A13127   3.104  10.561   7.177  0.2336 -0.0294 -0.1335
  884loPI   C2A13128   3.074  10.596   7.636  0.1092 -0.3771 -0.0778
  884loPI   C3A13129   3.166  10.420   7.983 -0.2020  0.0860  0.0097
  884loPI   C4A13130   3.090  10.418   8.374  0.0855  0.0686  0.0797
  884loPI   C5A13131   3.265  10.352   8.792 -0.3277 -0.1437 -0.0675
  884loPI   C6A13132   3.282  10.122   9.196  0.1985 -0.0824 -0.0372
  884loPI   C1B13133   2.826  10.155   7.293  0.2513 -0.1803  0.1645
  884loPI   C2B13134   2.789  10.107   7.701 -0.0546 -0.0832  0.2190
  884loPI   C3B13135   2.736  10.080   8.123 -0.0436 -0.2376 -0.0406
  884loPI   C4B13136   2.732  10.084   8.548  0.0132  0.0110  0.1310
  885loPI    C113137  16.045  15.531   5.951 -0.0722 -0.0137  0.1415
  885loPI    C213138  15.889  15.622   5.595 -0.3338 -0.1252  0.2248
  885loPI    C313139  16.155  15.326   5.626 -0.0948  0.0699  0.0805
  885loPI   PO413140  16.153  15.681   6.130  0.1018 -0.0138 -0.4806
  885loPI   GL113141  16.295  15.637   6.491  0.0467  0.4458  0.1212
  885loPI   GL213142  16.583  15.814   6.469 -0.0710 -0.2630 -0.0977
  885loPI   C1A13143  16.300  15.966   6.839 -0.1857 -0.0542  0.1466
  885loPI   C2A13144  16.186  16.148   7.137 -0.2463 -0.1032 -0.2029
  885loPI   C3A13145  16.198  16.209   7.572 -0.0222 -0.1368 -0.1988
  885loPI   C4A13146  16.252  16.086   7.935  0.1500 -0.2831  0.2932
  885loPI   C5A13147  16.313  16.215   8.391 -0.0190 -0.1353 -0.1442
  885loPI   C6A13148  16.565  16.507   8.672  0.0824  0.1145 -0.0440
  885loPI   C1B13149  16.800  15.988   6.888  0.5227 -0.0131 -0.1272
  885loPI   C2B13150  16.698  16.054   7.286 -0.1002  0.2574  0.0735
  885loPI   C3B13151  16.782  15.996   7.670 -0.2006  0.0048  0.1148
  885loPI   C4B13152  16.730  16.070   8.106  0.1912  0.0039  0.1371
  886loPI    C113153   8.204   5.916   5.997  0.1660 -0.1307 -0.0528
  886loPI    C213154   8.035   6.057   5.663 -0.0799 -0.0425  0.1063
  886loPI    C313155   8.201   5.693   5.666 -0.1064 -0.0570 -0.1018
  886loPI   PO413156   8.297   6.101   6.083 -0.2094 -0.0281  0.2117
  886loPI   GL113157   8.249   6.138   6.511  0.0221 -0.3239 -0.0537
  886loPI   GL213158   8.433   6.437   6.494  0.1014  0.2101 -0.1364
  886loPI   C1A13159   8.134   6.084   6.910  0.1164  0.2346  0.1292
  886loPI   C2A13160   8.084   6.048   7.391 -0.0164 -0.0353  0.1029
  886loPI   C3A13161   8.149   6.050   7.794  0.3436 -0.0284  0.2114
  886loPI   C4A13162   8.136   6.041   8.185  0.2357  0.0267  0.0056
  886loPI   C5A13163   7.960   5.711   8.422 -0.2072 -0.0302  0.0351
  886loPI   C6A13164   7.645   5.581   8.513  0.1293 -0.1273  0.0277
  886loPI   C1B13165   8.471   6.525   6.963  0.0512 -0.0672 -0.0418
  886loPI   C2B13166   8.424   6.464   7.461 -0.0398  0.0145  0.0138
  886loPI   C3B13167   8.410   6.458   7.894 -0.1487 -0.1433 -0.2541
  886loPI   C4B13168   8.439   6.462   8.313 -0.0264 -0.3643 -0.3123
  887loPI    C113169   3.593   5.950   5.759 -0.0754 -0.1001 -0.1319
  887loPI    C213170   3.924   5.769   5.626 -0.1762 -0.2184 -0.2243
  887loPI    C313171   3.702   5.989   5.376 -0.0908 -0.0205 -0.1283
  887loPI   PO413172   3.721   6.068   6.015 -0.1565 -0.1325 -0.0079
  887loPI   GL113173   3.468   6.331   6.319  0.0012 -0.0590 -0.1426
  887loPI   GL213174   3.290   6.004   6.382 -0.0989  0.1054 -0.0362
  887loPI   C1A13175   3.581   6.306   6.798  0.1798  0.2105 -0.1156
  887loPI   C2A13176   3.773   6.359   7.161 -0.0426 -0.0595 -0.1453
  887loPI   C3A13177   3.750   6.414   7.612 -0.1164  0.1711 -0.2058
  887loPI   C4A13178   3.703   6.249   8.024  0.3238 -0.1400 -0.1074
  887loPI   C5A13179   3.530   6.167   8.399 -0.0579 -0.0234 -0.0704
  887loPI   C6A13180   3.080   6.015   8.531  0.2255 -0.2180  0.2403
  887loPI   C1B13181   3.318   5.897   6.795 -0.0220 -0.2979  0.0278
  887loPI   C2B13182   3.382   5.947   7.170 -0.2258 -0.0161 -0.0092
  887loPI   C3B13183   3.432   5.939   7.560 -0.2922 -0.3109 -0.3332
  887loPI   C4B13184   3.374   5.900   8.002 -0.4304 -0.0209 -0.1599
  888loPI    C113185  13.970  11.690   5.904 -0.0706  0.1601  0.1978
  888loPI    C213186  13.581  11.685   5.808  0.0224  0.1767 -0.1966
  888loPI    C313187  13.795  11.347   5.797  0.0686  0.2056 -0.1896
  888loPI   PO413188  13.935  11.812   6.183  0.1042 -0.0768 -0.0864
  888loPI   GL113189  14.058  11.880   6.675 -0.0646 -0.0689  0.0568
  888loPI   GL213190  13.849  12.198   6.627  0.3289 -0.1673 -0.0100
  888loPI   C1A13191  14.088  11.649   6.992 -0.0259 -0.0064 -0.0447
  888loPI   C2A13192  14.087  11.793   7.447  0.0346 -0.2117  0.2310
  888loPI   C3A13193  14.067  11.782   7.875 -0.0795  0.0309  0.0323
  888loPI   C4A13194  14.005  11.860   8.327 -0.0910  0.1202 -0.2990
  888loPI   C5A13195  13.805  11.932   8.723  0.0177 -0.0709  0.0707
  888loPI   C6A13196  13.578  11.879   9.006  0.3136 -0.0852 -0.0841
  888loPI   C1B13197  13.904  12.173   7.131 -0.0492  0.2207  0.0627
  888loPI   C2B13198  13.889  12.209   7.570  0.1052  0.1279  0.0459
  888loPI   C3B13199  13.867  12.270   8.029  0.0188  0.0562  0.0617
  888loPI   C4B13200  13.927  12.364   8.497 -0.4150 -0.2862 -0.0169
  889loPI    C113201  15.050   8.575   6.070  0.2306  0.1140 -0.2824
  889loPI    C213202  14.846   8.858   5.874  0.0181 -0.0040 -0.2345
  889loPI    C313203  15.007   8.551   5.674  0.1538  0.0908 -0.2727
  889loPI   PO413204  15.134   8.681   6.288  0.1007 -0.1821  0.1150
  889loPI   GL113205  15.206   8.862   6.793 -0.0447  0.2800 -0.2264
  889loPI   GL213206  14.877   8.914   6.832 -0.0568 -0.0114  0.2229
  889loPI   C1A13207  15.395   8.848   7.138  0.0727  0.0554 -0.0950
  889loPI   C2A13208  15.408   8.822   7.548  0.0512 -0.1762  0.0459
  889loPI   C3A13209  15.344   8.676   7.990  0.0961 -0.0406 -0.0010
  889loPI   C4A13210  15.428   8.463   8.471 -0.0336  0.3961 -0.2271
  889loPI   C5A13211  15.606   8.642   8.830 -0.1476  0.0453 -0.2111
  889loPI   C6A13212  15.770   8.767   9.168  0.1367  0.0409 -0.0112
  889loPI   C1B13213  14.923   8.896   7.223  0.0750 -0.1640 -0.0078
  889loPI   C2B13214  14.864   8.874   7.633 -0.1353  0.1600  0.0132
  889loPI   C3B13215  14.876   8.778   8.088  0.0016  0.0455  0.2655
  889loPI   C4B13216  14.783   8.633   8.480 -0.0635 -0.1101  0.0785
  890loPI    C113217   6.583  10.502   5.902  0.1647  0.0221  0.1620
  890loPI    C213218   6.920  10.706   5.832 -0.0474  0.3618  0.1054
  890loPI    C313219   6.706  10.562   5.526  0.0801  0.0849  0.1438
  890loPI   PO413220   6.562  10.705   6.155  0.1505 -0.0339  0.0407
  890loPI   GL113221   6.567  10.594   6.649 -0.2334 -0.1927 -0.1367
  890loPI   GL213222   6.332  10.425   6.778  0.1296 -0.0175  0.1885
  890loPI   C1A13223   6.667  10.692   7.041  0.0622  0.0042 -0.0884
  890loPI   C2A13224   6.609  10.745   7.348  0.3719  0.1699 -0.1961
  890loPI   C3A13225   6.663  10.705   7.825 -0.1441  0.1393 -0.0306
  890loPI   C4A13226   6.577  10.821   8.291 -0.2733 -0.0617  0.1687
  890loPI   C5A13227   6.852  10.754   8.697  0.3039  0.0087 -0.1855
  890loPI   C6A13228   7.018  10.746   9.064  0.1377 -0.2583 -0.0044
  890loPI   C1B13229   6.359  10.323   7.125 -0.2095 -0.1064 -0.0057
  890loPI   C2B13230   6.405  10.298   7.623  0.0513  0.1187 -0.1247
  890loPI   C3B13231   6.262  10.376   8.045 -0.2346  0.0178 -0.3320
  890loPI   C4B13232   5.893  10.416   8.185 -0.0371  0.1632 -0.0214
  891loPI    C113233   4.570  10.049   5.953  0.1087  0.2761  0.0508
  891loPI    C213234   4.173   9.997   5.967  0.1243  0.1511  0.0352
  891loPI    C313235   4.337  10.212   5.672  0.0988 -0.1002 -0.1659
  891loPI   PO413236   4.581  10.154   6.188 -0.1434  0.1871  0.1174
  891loPI   GL113237   4.543  10.352   6.662 -0.0917 -0.0834 -0.0127
  891loPI   GL213238   4.420  10.132   6.658 -0.2001  0.2749 -0.1001
  891loPI   C1A13239   4.770  10.234   7.113 -0.0838  0.0366  0.0659
  891loPI   C2A13240   4.695  10.274   7.566  0.0562  0.1142 -0.2729
  891loPI   C3A13241   4.638  10.176   7.933 -0.0608 -0.0432  0.1067
  891loPI   C4A13242   4.557  10.298   8.372 -0.3286  0.0147 -0.1497
  891loPI   C5A13243   4.597  10.640   8.656  0.0299  0.0607  0.0280
  891loPI   C6A13244   4.915  10.837   8.894 -0.1214  0.0478  0.1927
  891loPI   C1B13245   4.303   9.871   7.024  0.1187 -0.1124 -0.0122
  891loPI   C2B13246   4.344   9.888   7.442  0.3787 -0.0098  0.0829
  891loPI   C3B13247   4.231   9.778   7.810  0.1521  0.0101  0.0206
  891loPI   C4B13248   4.295   9.782   8.155  0.3403  0.1965  0.2053
  892loPI    C113249  13.915   0.397   6.263 -0.2875 -0.1883 -0.0596
  892loPI    C213250  14.004   0.614   5.939 -0.1048 -0.2497 -0.0518
  892loPI    C313251  14.121   0.232   5.962 -0.1165 -0.2454  0.0869
  892loPI   PO413252  13.928   0.665   6.495 -0.2186  0.0401 -0.0389
  892loPI   GL113253  14.107   0.762   6.871 -0.0468  0.1565 -0.3175
  892loPI   GL213254  14.386   0.794   6.760  0.1980 -0.1301 -0.1580
  892loPI   C1A13255  14.027   0.666   7.201  0.2737  0.1762  0.1588
  892loPI   C2A13256  14.043   0.575   7.677  0.1472  0.0148 -0.0100
  892loPI   C3A13257  14.082   0.536   8.140  0.0457  0.1032 -0.0397
  892loPI   C4A13258  14.176   0.754   8.450  0.1208 -0.0647  0.0823
  892loPI   C5A13259  14.145   0.680   8.802 -0.1225  0.1207 -0.0122
  892loPI   C6A13260  14.022   0.425   9.179  0.0455 -0.0302 -0.1330
  892loPI   C1B13261  14.379   0.964   7.233  0.0692 -0.1003 -0.1255
  892loPI   C2B13262  14.366   0.957   7.627 -0.0914  0.0857  0.0161
  892loPI   C3B13263  14.420   0.986   8.053 -0.0896  0.2222 -0.0054
  892loPI   C4B13264  14.515   1.093   8.493  0.3524 -0.2075  0.0775
  893loPI    C113265  17.168   0.974   6.040  0.0146  0.1976  0.0370
  893loPI    C213266  16.818   1.042   6.222 -0.0068  0.0544  0.0504
  893loPI    C313267  16.835   1.016   5.823  0.0255  0.2804  0.0359
  893loPI   PO413268  17.296   0.754   6.269  0.2628 -0.2705 -0.1045
  893loPI   GL113269  17.391   0.820   6.713 -0.0122 -0.0714  0.1942
  893loPI   GL213270  17.450   0.465   6.761 -0.2346 -0.3156 -0.2522
  893loPI   C1A13271  17.400   0.874   7.092 -0.1681  0.2712 -0.2561
  893loPI   C2A13272  17.362   0.887   7.517  0.0722  0.0525  0.1997
  893loPI   C3A13273  17.319   0.907   7.927  0.0100  0.1311 -0.2579
  893loPI   C4A13274  17.395   0.903   8.370 -0.0822 -0.0943  0.2655
  893loPI   C5A13275  17.332   0.800   8.752 -0.0336 -0.2671 -0.0067
  893loPI   C6A13276  17.453   0.974   9.203  0.0412  0.0391  0.0294
  893loPI   C1B13277  17.564   0.360   7.240 -0.0058 -0.3356  0.2381
  893loPI   C2B13278  17.481   0.437   7.687 -0.1961  0.1348 -0.1243
  893loPI   C3B13279  17.511   0.492   8.108 -0.0501 -0.1219  0.3022
  893loPI   C4B13280  17.485   0.367   8.549 -0.1179 -0.1151 -0.1567
  894loPI    C113281   6.859  17.005   5.885  0.0592 -0.2549 -0.3064
  894loPI    C213282   7.171  17.151   5.681  0.0764  0.0466 -0.0718
  894loPI    C313283   6.801  17.281   5.602  0.0770  0.1234  0.0484
  894loPI   PO413284   6.959  17.066   6.135 -0.2570 -0.1168 -0.1039
  894loPI   GL113285   6.900  16.974   6.560 -0.1743  0.0027  0.1859
  894loPI   GL213286   7.123  16.744   6.549 -0.1494  0.3988  0.0600
  894loPI   C1A13287   6.671  17.038   6.867 -0.0747  0.0012 -0.1501
  894loPI   C2A13288   6.708  17.111   7.284  0.2011  0.4174 -0.1091
  894loPI   C3A13289   6.681  17.155   7.691  0.2042  0.0001 -0.2295
  894loPI   C4A13290   6.558  17.324   7.963 -0.0882 -0.0780 -0.1836
  894loPI   C5A13291   6.404  17.147   8.363  0.2520  0.0456 -0.2748
  894loPI   C6A13292   6.619  17.248   8.680  0.1269 -0.3958  0.1104
  894loPI   C1B13293   7.137  16.832   7.048  0.2794 -0.3198  0.2813
  894loPI   C2B13294   7.080  16.829   7.476  0.1425  0.0041 -0.1811
  894loPI   C3B13295   7.126  16.923   7.872 -0.2541  0.3456  0.0566
  894loPI   C4B13296   6.904  17.058   8.267 -0.1046  0.0934  0.1746
  895loPI    C113297   8.137  11.867   5.771 -0.0684  0.0849 -0.0201
  895loPI    C213298   8.093  11.596   5.481 -0.4347 -0.1091  0.2089
  895loPI    C313299   8.454  11.665   5.636 -0.2675 -0.1440 -0.1542
  895loPI   PO413300   8.034  11.875   5.977 -0.0024  0.1989  0.1085
  895loPI   GL113301   8.195  12.087   6.465  0.2416  0.3397  0.2568
  895loPI   GL213302   8.186  11.734   6.593 -0.2661 -0.4448  0.0833
  895loPI   C1A13303   8.041  12.208   6.895  0.1180  0.1803 -0.0624
  895loPI   C2A13304   8.029  12.334   7.371  0.1200 -0.0733  0.0682
  895loPI   C3A13305   8.091  12.327   7.790  0.2730 -0.0537 -0.0882
  895loPI   C4A13306   8.114  12.474   8.233  0.3195 -0.0449 -0.0656
  895loPI   C5A13307   8.082  12.495   8.657 -0.0299  0.3684 -0.1127
  895loPI   C6A13308   7.709  12.621   8.815  0.1001 -0.3186  0.0322
  895loPI   C1B13309   7.964  11.705   6.938  0.2330  0.0007 -0.1673
  895loPI   C2B13310   8.009  11.786   7.384 -0.0434  0.2218  0.0342
  895loPI   C3B13311   8.084  11.841   7.858  0.0888 -0.1832 -0.1716
  895loPI   C4B13312   8.126  11.899   8.363  0.1760  0.0271  0.1801
  896loPI    C113313  15.556  15.414   5.990 -0.3528  0.0631  0.0434
  896loPI    C213314  15.571  15.215   5.643 -0.3557 -0.0261  0.0942
  896loPI    C313315  15.309  15.513   5.691 -0.1852  0.1525 -0.0669
  896loPI   PO413316  15.658  15.307   6.142 -0.2035  0.3029 -0.3977
  896loPI   GL113317  15.851  15.264   6.572  0.0567  0.0818  0.2118
  896loPI   GL213318  16.142  15.158   6.715 -0.2974  0.0865  0.1091
  896loPI   C1A13319  15.588  15.234   6.987 -0.0466 -0.0077  0.0337
  896loPI   C2A13320  15.538  15.225   7.408 -0.0583  0.0215  0.0349
  896loPI   C3A13321  15.584  15.297   7.828 -0.2941  0.1199  0.0543
  896loPI   C4A13322  15.639  15.264   8.200  0.0777 -0.2144  0.1336
  896loPI   C5A13323  15.692  15.295   8.645 -0.1354  0.0909  0.0722
  896loPI   C6A13324  15.919  15.405   9.020 -0.0130  0.0161  0.2574
  896loPI   C1B13325  16.058  15.113   7.148  0.0628  0.0488 -0.0492
  896loPI   C2B13326  16.053  15.125   7.478  0.0784 -0.2695  0.3045
  896loPI   C3B13327  16.121  15.273   7.780 -0.0270 -0.0546 -0.3682
  896loPI   C4B13328  16.105  15.224   8.223 -0.2623  0.0305  0.0990
  897loPI    C113329  11.090   5.645   5.660 -0.1448 -0.2147 -0.0100
  897loPI    C213330  10.873   5.785   5.354  0.0798 -0.1546 -0.1441
  897loPI    C313331  11.157   6.013   5.519 -0.0735 -0.1677  0.1446
  897loPI   PO413332  10.832   5.493   5.781  0.2577 -0.1517 -0.0657
  897loPI   GL113333  10.790   5.499   6.145 -0.0366 -0.2235  0.0975
  897loPI   GL213334  10.772   5.671   6.334  0.1065  0.0743 -0.1162
  897loPI   C1A13335  10.834   5.257   6.551  0.1384  0.5863 -0.1120
  897loPI   C2A13336  10.997   5.247   6.962 -0.2300  0.0273 -0.0080
  897loPI   C3A13337  11.005   5.203   7.394 -0.1959 -0.5965  0.2058
  897loPI   C4A13338  10.890   5.182   7.788 -0.4384  0.1270 -0.2205
  897loPI   C5A13339  11.109   5.275   8.190  0.1063 -0.0412 -0.0597
  897loPI   C6A13340  11.301   5.662   8.335 -0.0239 -0.3048 -0.0904
  897loPI   C1B13341  10.761   5.726   6.817  0.2304  0.0588  0.0608
  897loPI   C2B13342  10.812   5.667   7.285  0.1197 -0.1223 -0.2122
  897loPI   C3B13343  10.760   5.668   7.627 -0.0508 -0.0399 -0.0429
  897loPI   C4B13344  10.821   5.629   8.062 -0.0116 -0.0871 -0.0012
  898loPI    C113345  10.919   4.796   5.512 -0.1509 -0.0087 -0.0617
  898loPI    C213346  10.569   4.821   5.318 -0.2188 -0.2495  0.0264
  898loPI    C313347  10.888   4.660   5.137 -0.1349  0.0264 -0.0757
  898loPI   PO413348  10.848   4.684   5.770  0.0936  0.5637  0.2446
  898loPI   GL113349  11.047   4.460   6.084  0.0649 -0.3151 -0.0458
  898loPI   GL213350  11.339   4.678   5.959 -0.0831 -0.2305 -0.1694
  898loPI   C1A13351  10.846   4.304   6.431 -0.1124  0.0451  0.2714
  898loPI   C2A13352  10.805   4.301   6.938 -0.1940 -0.0798  0.0753
  898loPI   C3A13353  10.874   4.380   7.287 -0.2773 -0.1336  0.1491
  898loPI   C4A13354  10.807   4.365   7.641 -0.4433  0.3800 -0.1541
  898loPI   C5A13355  10.667   4.366   8.043  0.1634 -0.0925 -0.2013
  898loPI   C6A13356  10.669   4.322   8.383  0.0939 -0.1964 -0.1496
  898loPI   C1B13357  11.452   4.665   6.399  0.0740  0.1634  0.0767
  898loPI   C2B13358  11.549   4.706   6.778  0.1543 -0.1918  0.1391
  898loPI   C3B13359  11.684   4.622   7.243 -0.0752  0.1607 -0.1469
  898loPI   C4B13360  11.601   4.682   7.635  0.1534  0.3651  0.3041
  899loPI    C113361   9.938   5.444   5.496  0.0779 -0.1407 -0.0615
  899loPI    C213362   9.761   5.661   5.211 -0.0396 -0.0895  0.0497
  899loPI    C313363  10.058   5.411   5.115  0.2455  0.2768 -0.0510
  899loPI   PO413364   9.795   5.395   5.728 -0.2606 -0.2156 -0.0250
  899loPI   GL113365   9.722   5.181   6.085  0.2046 -0.2160 -0.0162
  899loPI   GL213366  10.031   5.025   6.040  0.4279  0.0686  0.1503
  899loPI   C1A13367   9.821   5.354   6.507 -0.1596 -0.2902 -0.0022
  899loPI   C2A13368   9.819   5.373   6.909 -0.2963 -0.1213 -0.0245
  899loPI   C3A13369   9.810   5.358   7.325  0.1083  0.0856  0.1426
  899loPI   C4A13370   9.894   5.348   7.770 -0.0605 -0.0713  0.2152
  899loPI   C5A13371   9.923   5.449   8.224 -0.1296 -0.0658 -0.1904
  899loPI   C6A13372  10.015   5.406   8.684  0.1641 -0.0912 -0.1193
  899loPI   C1B13373  10.071   4.929   6.480 -0.0472  0.2419 -0.1372
  899loPI   C2B13374  10.111   4.799   6.980 -0.2075 -0.1400  0.1010
  899loPI   C3B13375  10.044   4.857   7.357  0.1467 -0.1650  0.0729
  899loPI   C4B13376  10.065   4.894   7.815 -0.0684 -0.0645  0.0118
  900loPI    C113377   5.854  12.685   6.032  0.0051 -0.1432  0.0275
  900loPI    C213378   5.712  12.341   5.883 -0.0309 -0.0590 -0.1353
  900loPI    C313379   6.021  12.523   5.706  0.0345 -0.0441 -0.0069
  900loPI   PO413380   5.546  12.851   6.123  0.0840  0.0035  0.1380
  900loPI   GL113381   5.606  12.845   6.533  0.3053 -0.1421 -0.0382
  900loPI   GL213382   5.722  12.670   6.665 -0.3087  0.1404 -0.0787
  900loPI   C1A13383   5.532  13.026   6.960  0.0038  0.2829  0.0005
  900loPI   C2A13384   5.535  13.105   7.406 -0.2513  0.0013 -0.0951
  900loPI   C3A13385   5.514  13.124   7.844  0.0322 -0.2402 -0.0929
  900loPI   C4A13386   5.550  13.156   8.359 -0.2218  0.2759  0.0470
  900loPI   C5A13387   5.716  13.295   8.692 -0.1521 -0.0918 -0.1197
  900loPI   C6A13388   5.731  13.115   9.094 -0.2628  0.2097  0.2840
  900loPI   C1B13389   5.845  12.726   7.050  0.1844  0.2211  0.1736
  900loPI   C2B13390   5.912  12.804   7.560 -0.2447  0.0953 -0.1725
  900loPI   C3B13391   5.956  12.932   7.950 -0.0286 -0.1049  0.0332
  900loPI   C4B13392   6.023  12.843   8.365 -0.1899 -0.0380  0.2759
  901loPI    C113393  12.214  11.317   5.964 -0.0907 -0.1113  0.0476
  901loPI    C213394  12.151  11.704   5.886 -0.0935 -0.1069  0.0714
  901loPI    C313395  12.025  11.426   5.628  0.0300 -0.0858 -0.0127
  901loPI   PO413396  12.162  11.348   6.275 -0.1709 -0.0024 -0.1927
  901loPI   GL113397  12.023  11.380   6.684  0.0277  0.2036 -0.0346
  901loPI   GL213398  12.315  11.570   6.718 -0.1371 -0.2999  0.3493
  901loPI   C1A13399  12.226  11.242   7.093 -0.0444 -0.1208 -0.1963
  901loPI   C2A13400  12.153  11.138   7.561  0.0557  0.0091  0.0163
  901loPI   C3A13401  11.933  10.917   7.935 -0.3962  0.1092  0.0379
  901loPI   C4A13402  11.771  10.959   8.421  0.0117  0.3032  0.1046
  901loPI   C5A13403  11.730  10.820   8.824  0.1202 -0.0637 -0.1074
  901loPI   C6A13404  11.475  10.622   9.134  0.1482  0.1899  0.1887
  901loPI   C1B13405  12.227  11.734   7.054 -0.1293  0.0925 -0.0101
  901loPI   C2B13406  12.238  11.688   7.503 -0.1288 -0.0110 -0.0689
  901loPI   C3B13407  12.173  11.673   7.915  0.3485  0.0168  0.0660
  901loPI   C4B13408  12.155  11.309   8.170 -0.5021  0.1329 -0.1647
  902loPI    C113409   5.195   7.315   5.705 -0.2498  0.0438  0.3265
  902loPI    C213410   4.927   7.198   5.432  0.0893 -0.0534  0.0280
  902loPI    C313411   5.215   7.457   5.332 -0.0265  0.2322  0.4074
  902loPI   PO413412   5.066   7.404   5.861 -0.4941  0.4020 -0.0366
  902loPI   GL113413   5.088   7.243   6.217 -0.0610  0.0799 -0.1462
  902loPI   GL213414   5.223   7.493   6.341  0.1147 -0.2369  0.1534
  902loPI   C1A13415   4.860   7.065   6.538  0.0132  0.0585 -0.1329
  902loPI   C2A13416   4.810   6.967   6.921  0.0063  0.0157 -0.0078
  902loPI   C3A13417   4.913   7.049   7.341 -0.0956  0.1598 -0.1040
  902loPI   C4A13418   4.767   6.994   7.787  0.1240 -0.0930  0.0283
  902loPI   C5A13419   4.777   6.996   8.230  0.3174 -0.0191  0.1464
  902loPI   C6A13420   4.759   6.869   8.671  0.1351  0.0204 -0.1698
  902loPI   C1B13421   5.217   7.367   6.909  0.1497 -0.0692  0.0874
  902loPI   C2B13422   5.281   7.455   7.297  0.2094  0.2444 -0.0092
  902loPI   C3B13423   5.134   7.335   7.761  0.0302 -0.0286 -0.3346
  902loPI   C4B13424   5.248   7.295   8.110  0.1955  0.2970 -0.2185
  903loPI    C113425  14.981  15.621   6.075  0.0193  0.0255 -0.0918
  903loPI    C213426  15.283  15.780   6.283 -0.0407  0.0289 -0.0069
  903loPI    C313427  15.186  15.931   5.926 -0.0864  0.1730  0.0658
  903loPI   PO413428  14.860  15.491   6.255 -0.1470 -0.2818  0.1405
  903loPI   GL113429  14.639  15.454   6.556  0.0911 -0.2160  0.0434
  903loPI   GL213430  14.450  15.616   6.662  0.0925 -0.2491 -0.1110
  903loPI   C1A13431  14.931  15.311   6.889 -0.1695 -0.4413  0.3970
  903loPI   C2A13432  15.052  15.381   7.355 -0.0097  0.1597  0.4107
  903loPI   C3A13433  15.001  15.400   7.805  0.2459 -0.1244 -0.3169
  903loPI   C4A13434  15.109  15.288   8.186 -0.0626 -0.1607 -0.0505
  903loPI   C5A13435  15.216  15.242   8.676  0.1059  0.0112 -0.1156
  903loPI   C6A13436  14.958  15.415   9.071 -0.0328 -0.0282  0.0584
  903loPI   C1B13437  14.282  15.486   6.978  0.1751  0.1489 -0.0680
  903loPI   C2B13438  14.359  15.450   7.438  0.0688 -0.2109 -0.0595
  903loPI   C3B13439  14.383  15.393   7.843 -0.0541 -0.2342 -0.1489
  903loPI   C4B13440  14.601  15.493   8.182 -0.0430  0.0361  0.4473
  904loPI    C113441   1.318   2.916   5.795  0.1050 -0.2373 -0.0596
  904loPI    C213442   1.424   3.247   5.596  0.1266 -0.2496 -0.0685
  904loPI    C313443   1.542   2.888   5.464  0.1852 -0.2542 -0.0043
  904loPI   PO413444   1.294   3.070   6.054  0.2093  0.1141  0.0405
  904loPI   GL113445   1.192   2.973   6.462 -0.0317  0.2644  0.1091
  904loPI   GL213446   1.197   2.650   6.500  0.3008  0.0134 -0.1459
  904loPI   C1A13447   1.088   3.085   6.877  0.0048 -0.1187  0.1097
  904loPI   C2A13448   1.076   3.165   7.295 -0.1221 -0.0337  0.1780
  904loPI   C3A13449   1.097   3.109   7.731  0.1921 -0.1149 -0.1183
  904loPI   C4A13450   1.062   3.055   8.172 -0.2536 -0.1179 -0.0875
  904loPI   C5A13451   1.190   3.132   8.563  0.1357  0.1873  0.0921
  904loPI   C6A13452   1.182   3.276   9.090 -0.0615  0.1266 -0.0686
  904loPI   C1B13453   1.218   2.514   6.926  0.1778  0.2215 -0.0378
  904loPI   C2B13454   1.260   2.416   7.372 -0.0605 -0.0436  0.3895
  904loPI   C3B13455   1.221   2.479   7.774 -0.0587 -0.2322  0.0865
  904loPI   C4B13456   1.340   2.530   8.137 -0.0580  0.3298  0.0565
  905loPI    C113457  14.183   1.928   5.886 -0.1355  0.1254 -0.1112
  905loPI    C213458  14.388   2.243   5.748 -0.1054  0.1261 -0.0652
  905loPI    C313459  14.063   2.115   5.553 -0.1086  0.1758 -0.0927
  905loPI   PO413460  14.190   1.941   6.230  0.0195 -0.0801 -0.1091
  905loPI   GL113461  14.079   1.759   6.577 -0.0559  0.0851 -0.1657
  905loPI   GL213462  14.395   1.705   6.666  0.0050  0.2657 -0.0091
  905loPI   C1A13463  14.026   1.892   7.037 -0.0158  0.1148 -0.1483
  905loPI   C2A13464  14.130   1.887   7.463  0.1138  0.0578 -0.0909
  905loPI   C3A13465  14.086   1.873   7.873  0.0234  0.1719 -0.0322
  905loPI   C4A13466  14.007   1.900   8.286  0.0898  0.0510  0.1958
  905loPI   C5A13467  13.740   1.994   8.664  0.0865  0.2697 -0.0450
  905loPI   C6A13468  13.778   2.047   9.233  0.0928 -0.0357  0.3413
  905loPI   C1B13469  14.572   1.874   7.103  0.2569 -0.0398  0.1405
  905loPI   C2B13470  14.560   1.872   7.543  0.1667  0.1639  0.0406
  905loPI   C3B13471  14.575   1.843   8.069  0.1858 -0.0129 -0.1803
  905loPI   C4B13472  14.734   1.779   8.412  0.0495  0.1650 -0.2243
  906loPI    C113473   5.216   7.913   5.883  0.0844 -0.0129  0.0332
  906loPI    C213474   5.528   7.664   5.917  0.0747 -0.0285  0.0077
  906loPI    C313475   5.445   7.833   5.564  0.0399 -0.0434  0.0087
  906loPI   PO413476   5.232   7.990   6.245  0.1705 -0.0258  0.1817
  906loPI   GL113477   4.993   7.929   6.694  0.1189  0.2146 -0.0005
  906loPI   GL213478   5.178   8.239   6.693  0.1646  0.4402 -0.0213
  906loPI   C1A13479   5.054   7.876   7.095  0.0146 -0.1480  0.0779
  906loPI   C2A13480   4.976   7.879   7.473  0.0231 -0.1429 -0.0287
  906loPI   C3A13481   5.063   7.848   7.845  0.0744 -0.2720  0.0260
  906loPI   C4A13482   5.056   7.900   8.314  0.0074 -0.0741 -0.1336
  906loPI   C5A13483   4.926   7.981   8.747  0.0365  0.3134 -0.0399
  906loPI   C6A13484   5.070   7.910   9.119 -0.1819 -0.0542 -0.2226
  906loPI   C1B13485   5.278   8.339   7.145  0.3931 -0.1635  0.0664
  906loPI   C2B13486   5.271   8.277   7.653 -0.2850 -0.0830  0.0216
  906loPI   C3B13487   5.367   8.207   8.048  0.1685  0.2079  0.0014
  906loPI   C4B13488   5.556   8.191   8.460 -0.2227 -0.0596  0.0126
  907loPI    C113489   1.073  15.367   6.099 -0.1271  0.2132  0.1118
  907loPI    C213490   1.424  15.347   6.290 -0.1155 -0.1757  0.0583
  907loPI    C313491   1.412  15.442   5.902 -0.0955  0.1091  0.1255
  907loPI   PO413492   0.930  15.583   6.236  0.1470 -0.0209  0.2566
  907loPI   GL113493   0.920  15.807   6.497 -0.0291  0.0710  0.0048
  907loPI   GL213494   0.933  16.074   6.457  0.1807 -0.0067  0.0465
  907loPI   C1A13495   0.902  15.811   6.945  0.0775 -0.3430  0.1785
  907loPI   C2A13496   0.989  15.780   7.435 -0.0241 -0.2237 -0.2504
  907loPI   C3A13497   0.921  15.858   7.891  0.3204 -0.1592 -0.0608
  907loPI   C4A13498   1.038  15.899   8.246  0.0459  0.2238  0.0308
  907loPI   C5A13499   0.976  15.932   8.669 -0.3230  0.2202 -0.0343
  907loPI   C6A13500   0.635  15.978   8.880  0.2133 -0.0966 -0.0594
  907loPI   C1B13501   1.231  16.127   6.771 -0.0721  0.1790  0.0802
  907loPI   C2B13502   1.313  16.210   7.212 -0.0488  0.2562  0.2143
  907loPI   C3B13503   1.242  16.228   7.597 -0.1563 -0.0604  0.2211
  907loPI   C4B13504   1.326  16.238   8.017  0.0722 -0.0762  0.0540
  908loPI    C113505   3.933   4.800   5.737  0.0497  0.0069  0.0257
  908loPI    C213506   3.712   4.983   5.458  0.2818  0.1050 -0.0969
  908loPI    C313507   3.908   4.646   5.369  0.0386 -0.0826  0.0636
  908loPI   PO413508   3.796   4.708   5.999 -0.0222  0.1102 -0.0426
  908loPI   GL113509   3.656   4.823   6.372  0.0438  0.3094  0.0746
  908loPI   GL213510   3.728   5.215   6.444 -0.1491  0.0198 -0.0599
  908loPI   C1A13511   3.894   4.844   6.748  0.1818 -0.2040  0.1272
  908loPI   C2A13512   3.843   4.791   7.182 -0.4862 -0.0644 -0.0345
  908loPI   C3A13513   3.709   4.909   7.638  0.1259  0.0314 -0.2170
  908loPI   C4A13514   3.795   5.021   8.080 -0.0898 -0.0993 -0.0708
  908loPI   C5A13515   3.867   4.994   8.511  0.0247  0.1265 -0.0399
  908loPI   C6A13516   4.070   4.754   8.874  0.2538 -0.1394 -0.1050
  908loPI   C1B13517   3.927   5.288   6.863  0.0431  0.1762 -0.0379
  908loPI   C2B13518   4.015   5.286   7.297 -0.0002  0.4287  0.2017
  908loPI   C3B13519   4.049   5.341   7.754  0.3696  0.1842  0.2698
  908loPI   C4B13520   4.169   5.302   8.134 -0.0254  0.0910 -0.1231
  909loPI    C113521   7.132   2.947   5.749 -0.2911  0.1088 -0.0133
  909loPI    C213522   6.937   3.167   5.477 -0.0398 -0.0386 -0.3184
  909loPI    C313523   7.221   2.910   5.361  0.2630  0.0927  0.1079
  909loPI   PO413524   7.079   3.156   5.981  0.0492  0.1325 -0.2953
  909loPI   GL113525   7.306   3.150   6.307 -0.1415  0.2263  0.1969
  909loPI   GL213526   7.041   3.018   6.444 -0.0356 -0.1011 -0.2042
  909loPI   C1A13527   7.110   3.471   6.614 -0.1345  0.1084  0.0154
  909loPI   C2A13528   7.251   3.473   7.048 -0.2513  0.1595 -0.0208
  909loPI   C3A13529   7.180   3.531   7.542  0.0949 -0.1214  0.1163
  909loPI   C4A13530   7.161   3.519   7.947  0.0469 -0.2706  0.0516
  909loPI   C5A13531   7.142   3.469   8.351 -0.1389 -0.0871 -0.0018
  909loPI   C6A13532   7.320   3.465   8.726 -0.2791 -0.1216  0.2349
  909loPI   C1B13533   6.904   3.007   6.800  0.0393 -0.1959 -0.0888
  909loPI   C2B13534   6.871   3.145   7.250 -0.1872  0.1577 -0.0500
  909loPI   C3B13535   6.845   3.031   7.534 -0.1736  0.0298  0.0758
  909loPI   C4B13536   6.891   3.072   7.995  0.0099 -0.2814  0.1629
  910loPI    C113537   2.947   0.180   6.071 -0.3458 -0.0219  0.1639
  910loPI    C213538   2.878   0.521   6.268  0.0970  0.1849 -0.0246
  910loPI    C313539   2.772   0.487   5.884 -0.0850  0.0522  0.0361
  910loPI   PO413540   3.080   0.075   6.161 -0.1847 -0.0734  0.3030
  910loPI   GL113541   3.173  -0.110   6.539 -0.1857  0.0319 -0.2202
  910loPI   GL213542   2.986  -0.384   6.661 -0.0684 -0.1898  0.2749
  910loPI   C1A13543   3.274  -0.012   6.971  0.3527  0.2949  0.2230
  910loPI   C2A13544   3.298  -0.068   7.335 -0.1479  0.0159 -0.1067
  910loPI   C3A13545   3.233   0.001   7.750 -0.0641  0.0347 -0.0974
  910loPI   C4A13546   3.194  -0.095   8.182  0.3519 -0.0786  0.1659
  910loPI   C5A13547   3.320  -0.405   8.459 -0.0089 -0.3347  0.0685
  910loPI   C6A13548   3.373  -0.137   8.801 -0.0191  0.2576 -0.2961
  910loPI   C1B13549   2.896  -0.427   7.031  0.4510 -0.1895  0.1482
  910loPI   C2B13550   2.969  -0.451   7.434  0.0621 -0.1363 -0.1499
  910loPI   C3B13551   2.980  -0.429   7.841  0.0083  0.3728  0.1133
  910loPI   C4B13552   3.381  -0.501   7.981 -0.0645  0.0343  0.2125
  911loPI    C113553   7.695   5.715   5.708  0.0280  0.0535 -0.0213
  911loPI    C213554   7.859   5.365   5.604  0.1230  0.0719  0.0649
  911loPI    C313555   7.498   5.466   5.464  0.0182 -0.1381  0.1789
  911loPI   PO413556   7.769   5.728   5.920 -0.1138  0.0544 -0.0396
  911loPI   GL113557   7.689   5.881   6.309 -0.1336 -0.0577 -0.0610
  911loPI   GL213558   7.940   5.743   6.434  0.1870  0.2430 -0.1563
  911loPI   C1A13559   7.694   6.098   6.648  0.0517  0.1644  0.0269
  911loPI   C2A13560   7.627   6.231   7.004 -0.0031  0.4932  0.2026
  911loPI   C3A13561   7.564   6.094   7.487  0.3452  0.0211  0.1961
  911loPI   C4A13562   7.610   6.098   7.889 -0.0625 -0.0819 -0.0919
  911loPI   C5A13563   7.636   6.146   8.336  0.1266  0.2796 -0.2238
  911loPI   C6A13564   7.824   6.377   8.651 -0.2236 -0.0030 -0.2992
  911loPI   C1B13565   7.886   5.650   6.865 -0.0199  0.0963  0.2184
  911loPI   C2B13566   7.792   5.637   7.243  0.1016  0.0590 -0.1682
  911loPI   C3B13567   7.740   5.643   7.613  0.0983 -0.2604 -0.2219
  911loPI   C4B13568   7.778   5.571   8.016 -0.0563  0.1072 -0.1822
  912loPI    C113569  11.881   3.028   5.637 -0.2292  0.1401 -0.1436
  912loPI    C213570  12.240   3.190   5.568 -0.0628 -0.1617 -0.0083
  912loPI    C313571  12.159   2.821   5.436 -0.2038 -0.2272  0.2557
  912loPI   PO413572  11.848   2.993   5.936 -0.1519 -0.1824 -0.0891
  912loPI   GL113573  11.668   3.234   6.374  0.3218 -0.2991 -0.0011
  912loPI   GL213574  11.832   2.956   6.463  0.1924  0.2283 -0.1700
  912loPI   C1A13575  11.609   3.339   6.792 -0.2448 -0.0774  0.0809
  912loPI   C2A13576  11.592   3.332   7.165 -0.1867  0.1927  0.2250
  912loPI   C3A13577  11.632   3.343   7.594 -0.0240  0.2554 -0.1459
  912loPI   C4A13578  11.643   3.280   7.952 -0.0062 -0.1658 -0.3466
  912loPI   C5A13579  11.672   3.107   8.416 -0.0260 -0.0651  0.1801
  912loPI   C6A13580  11.853   2.774   8.735  0.1582  0.1660  0.3455
  912loPI   C1B13581  11.788   2.875   6.921 -0.1987  0.2393 -0.3393
  912loPI   C2B13582  11.702   2.869   7.398 -0.0790  0.0347  0.1406
  912loPI   C3B13583  11.756   2.799   7.853  0.3184 -0.0852  0.2843
  912loPI   C4B13584  11.790   2.665   8.239 -0.3331 -0.0258 -0.2350
  913loPI    C113585  10.337   9.584   6.226 -0.0304  0.4645 -0.0964
  913loPI    C213586  10.508   9.630   5.868  0.0791 -0.1592 -0.1342
  913loPI    C313587  10.173   9.414   5.903 -0.1622  0.2396  0.0857
  913loPI   PO413588  10.497   9.419   6.358  0.0824  0.1662 -0.1073
  913loPI   GL113589  10.340   9.244   6.658  0.2278  0.0215  0.0695
  913loPI   GL213590   9.978   9.360   6.432  0.0389  0.1651  0.3770
  913loPI   C1A13591  10.453   9.009   7.156 -0.2696  0.1706  0.1595
  913loPI   C2A13592  10.357   9.000   7.574 -0.0226  0.1902  0.3350
  913loPI   C3A13593  10.339   8.797   7.945  0.0288  0.0672  0.1119
  913loPI   C4A13594  10.239   8.913   8.350 -0.1913 -0.0953 -0.0103
  913loPI   C5A13595  10.039   9.200   8.466  0.2747  0.1774 -0.1904
  913loPI   C6A13596   9.570   9.410   8.602  0.2796 -0.1841  0.1287
  913loPI   C1B13597   9.855   9.321   6.765 -0.2034 -0.2135 -0.2849
  913loPI   C2B13598   9.872   9.047   7.098 -0.3135  0.0962 -0.0414
  913loPI   C3B13599   9.880   9.040   7.536  0.0137 -0.0771 -0.2789
  913loPI   C4B13600   9.752   9.023   7.984  0.1520  0.2123 -0.1266
  914loPI    C113601   0.538  13.840   6.003 -0.0908 -0.0789  0.0471
  914loPI    C213602   0.819  13.614   5.830 -0.1350 -0.0942 -0.0047
  914loPI    C313603   0.513  13.755   5.614 -0.0731  0.0695  0.0128
  914loPI   PO413604   0.679  13.950   6.195  0.0348 -0.0122  0.4598
  914loPI   GL113605   0.717  14.045   6.567  0.0343  0.2897  0.0459
  914loPI   GL213606   0.526  14.310   6.688  0.1248  0.0830 -0.0761
  914loPI   C1A13607   0.678  13.892   6.996  0.2493  0.1169  0.2561
  914loPI   C2A13608   0.648  13.942   7.486  0.2070 -0.1243  0.0193
  914loPI   C3A13609   0.683  14.092   7.945 -0.1422  0.3158 -0.2673
  914loPI   C4A13610   0.623  14.140   8.407  0.1143 -0.0622  0.2732
  914loPI   C5A13611   0.502  14.320   8.817  0.0384  0.2012  0.0074
  914loPI   C6A13612   0.554  14.764   8.926  0.3672 -0.1868  0.0904
  914loPI   C1B13613   0.513  14.380   7.181  0.0602  0.0279 -0.3350
  914loPI   C2B13614   0.531  14.452   7.558 -0.2499  0.0278 -0.1892
  914loPI   C3B13615   0.445  14.568   7.997 -0.1318  0.0158 -0.0240
  914loPI   C4B13616   0.529  14.664   8.409  0.2408  0.1312 -0.0723
  915loPI    C113617  14.732   2.033   6.008 -0.1858  0.0332 -0.0059
  915loPI    C213618  14.986   1.765   5.853 -0.0139  0.0951  0.1630
  915loPI    C313619  14.905   2.103   5.655 -0.0803  0.0082  0.0403
  915loPI   PO413620  14.782   2.095   6.283  0.0392 -0.0253 -0.2833
  915loPI   GL113621  14.768   1.981   6.675 -0.0562  0.0529 -0.0901
  915loPI   GL213622  14.930   1.678   6.692  0.0197 -0.1510 -0.0519
  915loPI   C1A13623  14.899   2.200   6.994 -0.1592  0.0688 -0.1689
  915loPI   C2A13624  14.914   2.248   7.454  0.0527  0.3182  0.1612
  915loPI   C3A13625  14.958   2.181   7.875 -0.0192 -0.1532  0.3053
  915loPI   C4A13626  14.817   2.294   8.222 -0.2660  0.2938  0.1186
  915loPI   C5A13627  14.634   2.272   8.693 -0.0784  0.1791 -0.1098
  915loPI   C6A13628  14.716   2.368   9.142 -0.1179  0.1039 -0.2430
  915loPI   C1B13629  14.744   1.417   7.052 -0.0101  0.1125  0.2465
  915loPI   C2B13630  14.677   1.408   7.470 -0.1786 -0.2523  0.2124
  915loPI   C3B13631  14.737   1.330   7.849  0.2019  0.3000 -0.0376
  915loPI   C4B13632  14.777   1.319   8.131 -0.1427 -0.1369 -0.1264
  916loPI    C113633  12.985   0.352   6.213 -0.3081  0.2751  0.1337
  916loPI    C213634  12.975   0.496   5.840 -0.2186  0.0015  0.0224
  916loPI    C313635  13.153   0.146   5.914 -0.0552  0.1498  0.3572
  916loPI   PO413636  13.061   0.556   6.351 -0.0212 -0.2413  0.3357
  916loPI   GL113637  12.922   0.838   6.673 -0.1956 -0.0981 -0.3783
  916loPI   GL213638  12.825   1.191   6.682 -0.1669 -0.1772 -0.2785
  916loPI   C1A13639  12.955   0.779   7.133  0.2679 -0.0232 -0.0568
  916loPI   C2A13640  12.984   0.755   7.586  0.2174  0.1562  0.0903
  916loPI   C3A13641  13.069   0.687   7.998  0.2595  0.0918  0.0118
  916loPI   C4A13642  12.996   0.572   8.406 -0.0451 -0.3646 -0.0554
  916loPI   C5A13643  13.352   0.617   8.713  0.1266  0.4000 -0.1735
  916loPI   C6A13644  13.675   0.922   8.886  0.2775 -0.0802  0.4698
  916loPI   C1B13645  12.771   1.243   7.078  0.2281  0.3068  0.0317
  916loPI   C2B13646  12.798   1.248   7.575  0.2863  0.2126  0.0584
  916loPI   C3B13647  12.867   1.123   7.936 -0.2326 -0.0229 -0.1168
  916loPI   C4B13648  12.842   1.258   8.368  0.1077 -0.5373  0.0130
  917loPI    C113649   3.790   0.449   6.127 -0.0213 -0.0818 -0.0539
  917loPI    C213650   4.031   0.498   5.811 -0.1624  0.0647 -0.1402
  917loPI    C313651   3.704   0.270   5.780 -0.0907 -0.0510 -0.0527
  917loPI   PO413652   3.845   0.639   6.255  0.0705 -0.4415 -0.1401
  917loPI   GL113653   3.591   0.695   6.504  0.1580 -0.0898 -0.0145
  917loPI   GL213654   3.348   0.433   6.456 -0.1291 -0.1602 -0.4382
  917loPI   C1A13655   3.403   0.797   6.802 -0.3284  0.2788  0.3629
  917loPI   C2A13656   3.456   0.812   7.255 -0.0381 -0.2326  0.2933
  917loPI   C3A13657   3.335   0.798   7.721  0.3256  0.1747  0.0396
  917loPI   C4A13658   3.281   0.810   8.203 -0.0653 -0.0941  0.1056
  917loPI   C5A13659   3.267   0.851   8.614  0.1376  0.0006  0.1999
  917loPI   C6A13660   3.465   0.910   8.870 -0.0217 -0.1316  0.0943
  917loPI   C1B13661   3.030   0.459   6.746  0.0358 -0.1471  0.2320
  917loPI   C2B13662   3.142   0.416   7.242  0.2274 -0.0377 -0.0572
  917loPI   C3B13663   3.012   0.470   7.647  0.2217  0.2403  0.0050
  917loPI   C4B13664   3.022   0.365   8.121  0.2077 -0.0397 -0.3417
  918loPI    C113665  12.031   4.987   5.513  0.0628 -0.0446  0.1109
  918loPI    C213666  12.224   5.217   5.248  0.0883 -0.2140 -0.0194
  918loPI    C313667  11.869   5.057   5.154  0.1514 -0.3698  0.0045
  918loPI   PO413668  12.215   4.937   5.673  0.0343  0.1408 -0.1292
  918loPI   GL113669  12.359   4.881   6.107  0.0870  0.1009  0.0279
  918loPI   GL213670  12.551   5.182   6.180  0.1001 -0.1637 -0.1708
  918loPI   C1A13671  12.175   4.726   6.485  0.0208  0.2318  0.0032
  918loPI   C2A13672  12.099   4.581   6.949  0.2276 -0.1594  0.0023
  918loPI   C3A13673  12.096   4.567   7.488  0.1612 -0.3680 -0.0471
  918loPI   C4A13674  12.258   4.565   7.918 -0.0055  0.1447  0.3445
  918loPI   C5A13675  12.574   4.425   8.149 -0.1984 -0.0953  0.0197
  918loPI   C6A13676  12.507   4.350   8.611  0.0663 -0.0488 -0.1680
  918loPI   C1B13677  12.418   5.126   6.617  0.0800  0.0572  0.0699
  918loPI   C2B13678  12.415   5.078   7.029  0.0336  0.0933  0.2368
  918loPI   C3B13679  12.406   4.984   7.383 -0.2338  0.1184  0.1728
  918loPI   C4B13680  12.509   5.006   7.872 -0.2003 -0.0499  0.0902
  919loPI    C113681   6.435  14.341   5.399  0.0575  0.1102 -0.0279
  919loPI    C213682   6.651  14.638   5.241  0.1545  0.0406 -0.0277
  919loPI    C313683   6.520  14.340   5.008  0.0564  0.0835 -0.0281
  919loPI   PO413684   6.516  14.386   5.652  0.1639 -0.0222 -0.0867
  919loPI   GL113685   6.267  14.447   6.125  0.0137 -0.4406 -0.0087
  919loPI   GL213686   5.985  14.392   6.173  0.2576  0.2051  0.0088
  919loPI   C1A13687   6.483  14.448   6.569  0.0304 -0.0834  0.0475
  919loPI   C2A13688   6.423  14.475   7.003 -0.2480  0.0548 -0.1154
  919loPI   C3A13689   6.376  14.558   7.450 -0.0035 -0.3339 -0.0407
  919loPI   C4A13690   6.435  14.708   7.893 -0.1125  0.0195  0.2924
  919loPI   C5A13691   6.304  14.759   8.311 -0.0913  0.2538  0.0821
  919loPI   C6A13692   6.327  14.528   8.726  0.2213 -0.4840  0.1375
  919loPI   C1B13693   5.996  14.243   6.600 -0.3108  0.0487 -0.4162
  919loPI   C2B13694   5.997  14.291   7.002 -0.0002 -0.1537  0.1054
  919loPI   C3B13695   5.977  14.330   7.467  0.1283 -0.2389 -0.0642
  919loPI   C4B13696   6.018  14.500   7.947  0.3819  0.2866  0.0022
  920loPI    C113697  11.686  10.569   5.845  0.0518  0.0900 -0.0455
  920loPI    C213698  11.817  10.305   5.575 -0.1426 -0.1236  0.0655
  920loPI    C313699  11.441  10.440   5.555 -0.0903  0.0278  0.1005
  920loPI   PO413700  11.854  10.458   6.128  0.2585  0.0786  0.2018
  920loPI   GL113701  12.188  10.478   6.463  0.1323 -0.0561 -0.0619
  920loPI   GL213702  12.438  10.545   6.618 -0.0289 -0.3280  0.1391
  920loPI   C1A13703  11.966  10.270   6.756  0.2801  0.2302 -0.4053
  920loPI   C2A13704  11.937  10.096   7.136 -0.0434 -0.1644 -0.2167
  920loPI   C3A13705  11.861  10.057   7.543 -0.2466  0.1305 -0.4145
  920loPI   C4A13706  11.869  10.085   7.947 -0.0119 -0.0043  0.1597
  920loPI   C5A13707  11.810  10.093   8.351 -0.2231 -0.3022  0.2013
  920loPI   C6A13708  11.652  10.361   8.712 -0.0345  0.1453 -0.1340
  920loPI   C1B13709  12.750  10.446   6.998  0.1531  0.0599 -0.1808
  920loPI   C2B13710  12.668  10.449   7.457  0.0362 -0.0412  0.0952
  920loPI   C3B13711  12.637  10.426   7.829  0.1962  0.0360  0.0121
  920loPI   C4B13712  12.637  10.345   8.340 -0.2235 -0.1776 -0.2053
  921loPI    C113713  11.639   2.570   5.596 -0.0383  0.0035 -0.0712
  921loPI    C213714  11.587   2.230   5.392  0.0399  0.0419 -0.1559
  921loPI    C313715  11.796   2.530   5.230  0.0623  0.0904 -0.0380
  921loPI   PO413716  11.370   2.610   5.735 -0.2500 -0.2438 -0.0206
  921loPI   GL113717  11.344   2.904   6.146 -0.0946  0.0947 -0.0547
  921loPI   GL213718  11.304   2.573   6.289 -0.0706  0.1299  0.0618
  921loPI   C1A13719  11.368   2.953   6.632 -0.1682  0.2850 -0.1018
  921loPI   C2A13720  11.269   2.942   7.110  0.1801 -0.1833  0.0590
  921loPI   C3A13721  11.258   2.871   7.610 -0.0878 -0.0892  0.0335
  921loPI   C4A13722  11.281   2.851   7.901 -0.1336 -0.0837 -0.1607
  921loPI   C5A13723  11.218   2.805   8.364 -0.2723  0.1955  0.1872
  921loPI   C6A13724  11.179   3.085   8.665 -0.5137 -0.1384  0.1259
  921loPI   C1B13725  11.407   2.452   6.785 -0.3633 -0.2084 -0.0106
  921loPI   C2B13726  11.391   2.485   7.127 -0.1959 -0.2089 -0.0567
  921loPI   C3B13727  11.427   2.403   7.595  0.0298 -0.1073 -0.0781
  921loPI   C4B13728  11.396   2.376   7.987  0.2767 -0.3051 -0.0366
  922loPI    C113729   4.614   1.219   5.983 -0.0460  0.0949 -0.0417
  922loPI    C213730   4.477   0.947   5.723 -0.1024 -0.0096  0.0960
  922loPI    C313731   4.342   1.324   5.708 -0.0460  0.0047 -0.0763
  922loPI   PO413732   4.553   1.163   6.210 -0.1167  0.1338 -0.4080
  922loPI   GL113733   4.331   1.084   6.608 -0.1594  0.0288 -0.1100
  922loPI   GL213734   4.277   1.461   6.491 -0.1460 -0.2998 -0.0797
  922loPI   C1A13735   4.259   1.068   7.081  0.1145 -0.0423 -0.1152
  922loPI   C2A13736   4.211   1.253   7.507 -0.1558  0.0557  0.1313
  922loPI   C3A13737   4.168   1.157   7.960  0.0702 -0.1328 -0.1453
  922loPI   C4A13738   4.035   1.268   8.380  0.2479  0.0903 -0.1135
  922loPI   C5A13739   4.128   0.938   8.709 -0.0441 -0.0152 -0.0498
  922loPI   C6A13740   4.585   0.828   8.889  0.1267  0.1412 -0.2089
  922loPI   C1B13741   4.117   1.504   6.933 -0.0350  0.0622 -0.0584
  922loPI   C2B13742   4.111   1.725   7.420 -0.3570  0.0490 -0.0368
  922loPI   C3B13743   3.943   1.721   7.829 -0.0017  0.0847  0.0753
  922loPI   C4B13744   3.824   1.719   8.325 -0.2944  0.0381  0.0177
  923loPI    C113745   4.992  10.427   6.017 -0.0703 -0.2127 -0.0538
  923loPI    C213746   4.938  10.820   5.959 -0.1611 -0.1806  0.2348
  923loPI    C313747   4.677  10.558   5.808 -0.1127 -0.1295  0.0608
  923loPI   PO413748   5.042  10.370   6.289 -0.2458 -0.3927 -0.1875
  923loPI   GL113749   5.034  10.226   6.624  0.1644  0.1177  0.2265
  923loPI   GL213750   4.919  10.006   6.699 -0.3558 -0.1063 -0.1402
  923loPI   C1A13751   5.320  10.250   6.981 -0.0159 -0.1001 -0.0703
  923loPI   C2A13752   5.376  10.279   7.455  0.0326  0.0511 -0.3606
  923loPI   C3A13753   5.152  10.209   7.816 -0.0118  0.2565  0.0770
  923loPI   C4A13754   5.086  10.173   8.339 -0.1696 -0.1505 -0.0132
  923loPI   C5A13755   5.032  10.326   8.747  0.0213  0.2075  0.3318
  923loPI   C6A13756   5.347  10.516   8.990 -0.0290 -0.1067 -0.0673
  923loPI   C1B13757   4.748   9.709   6.995 -0.0925 -0.0207 -0.0949
  923loPI   C2B13758   4.783   9.715   7.439  0.0170 -0.1063 -0.3213
  923loPI   C3B13759   4.733   9.690   7.787 -0.1235 -0.0024 -0.1087
  923loPI   C4B13760   4.714   9.808   8.318 -0.0331  0.0931  0.1425
  924loPI    C113761   2.225   5.777   5.707  0.0530 -0.1441  0.1109
  924loPI    C213762   2.301   5.400   5.598  0.1698 -0.0861 -0.0117
  924loPI    C313763   2.253   5.683   5.319 -0.2091 -0.0640  0.0701
  924loPI   PO413764   2.354   5.788   5.912  0.1049  0.0354  0.2106
  924loPI   GL113765   2.629   5.538   6.169  0.2572  0.0827  0.2395
  924loPI   GL213766   2.751   5.870   6.244  0.0188  0.1444  0.0723
  924loPI   C1A13767   2.539   5.574   6.618  0.0042 -0.0423 -0.2230
  924loPI   C2A13768   2.517   5.580   7.102 -0.0212 -0.2489  0.4098
  924loPI   C3A13769   2.606   5.624   7.464  0.0270 -0.0593 -0.0715
  924loPI   C4A13770   2.552   5.574   7.878 -0.0196 -0.1269  0.0533
  924loPI   C5A13771   2.589   5.656   8.234  0.0729 -0.2560  0.1146
  924loPI   C6A13772   2.481   5.815   8.628  0.3142 -0.0061 -0.3251
  924loPI   C1B13773   2.818   5.979   6.681  0.1668  0.0730 -0.0024
  924loPI   C2B13774   2.901   5.995   7.143  0.0391  0.3466  0.3276
  924loPI   C3B13775   2.920   6.009   7.596  0.1344  0.0995 -0.1689
  924loPI   C4B13776   2.818   6.015   8.045 -0.2158  0.1394  0.0232
  925loPI    C113777  16.492   8.140   5.926  0.1905  0.1875  0.1295
  925loPI    C213778  16.767   7.970   5.691  0.1018  0.0821  0.1012
  925loPI    C313779  16.428   8.110   5.532  0.0229 -0.0281  0.1717
  925loPI   PO413780  16.409   8.033   6.113 -0.2321 -0.1021 -0.2864
  925loPI   GL113781  16.507   8.105   6.561  0.0688  0.0295 -0.1536
  925loPI   GL213782  16.186   8.068   6.591 -0.0845  0.0134  0.3690
  925loPI   C1A13783  16.605   8.188   6.962 -0.2588  0.0078 -0.0136
  925loPI   C2A13784  16.605   8.184   7.417  0.3323 -0.3190  0.0364
  925loPI   C3A13785  16.588   8.103   7.863  0.0799  0.1238 -0.2258
  925loPI   C4A13786  16.551   7.871   8.214 -0.1260 -0.1257  0.0661
  925loPI   C5A13787  16.400   7.645   8.655 -0.2040  0.1453  0.0310
  925loPI   C6A13788  16.088   7.343   8.812 -0.0958 -0.2054  0.1911
  925loPI   C1B13789  16.058   8.226   6.956 -0.1564  0.2934 -0.0346
  925loPI   C2B13790  16.039   8.252   7.362  0.0971 -0.1657 -0.1538
  925loPI   C3B13791  16.017   8.046   7.796  0.0511 -0.0218 -0.1166
  925loPI   C4B13792  16.049   7.966   8.246 -0.0874 -0.0124  0.1667
  926loPI    C113793   3.045  12.839   6.103 -0.2334  0.1243  0.3133
  926loPI    C213794   2.679  12.863   5.942 -0.1368 -0.0577  0.0604
  926loPI    C313795   2.999  12.971   5.728 -0.0244 -0.0904  0.2102
  926loPI   PO413796   3.031  12.685   6.325  0.0974  0.3876  0.1303
  926loPI   GL113797   3.178  12.491   6.658 -0.0389  0.2242  0.0864
  926loPI   GL213798   3.416  12.801   6.715 -0.2062 -0.0609  0.1755
  926loPI   C1A13799   3.233  12.329   7.025 -0.0964  0.0138  0.2313
  926loPI   C2A13800   3.373  12.270   7.452 -0.1339  0.1468  0.1546
  926loPI   C3A13801   3.379  12.352   7.784  0.1468  0.1200 -0.2462
  926loPI   C4A13802   3.356  12.404   8.195  0.0521 -0.0460  0.0780
  926loPI   C5A13803   3.477  12.371   8.551 -0.0585  0.2052  0.0633
  926loPI   C6A13804   3.568  12.064   8.911 -0.2212 -0.0244  0.0626
  926loPI   C1B13805   3.644  12.700   7.067 -0.0637 -0.1660 -0.2277
  926loPI   C2B13806   3.761  12.734   7.474 -0.3446  0.2396 -0.0824
  926loPI   C3B13807   3.695  12.705   7.946 -0.1031 -0.0901 -0.2815
  926loPI   C4B13808   3.729  12.739   8.367  0.2059  0.2654  0.3142
  927loPI    C113809   0.495   7.270   5.841  0.0336 -0.0824 -0.1823
  927loPI    C213810   0.603   6.985   5.581  0.1863 -0.0203 -0.1877
  927loPI    C313811   0.513   7.353   5.450 -0.0088 -0.0640 -0.1805
  927loPI   PO413812   0.622   7.243   6.061  0.2704 -0.1542  0.3360
  927loPI   GL113813   0.697   7.410   6.498 -0.1177 -0.0207 -0.1280
  927loPI   GL213814   0.413   7.284   6.679  0.4318  0.1377 -0.0170
  927loPI   C1A13815   0.855   7.318   6.881 -0.1297 -0.1707  0.0273
  927loPI   C2A13816   0.947   7.422   7.218 -0.0493  0.1642 -0.0131
  927loPI   C3A13817   0.894   7.356   7.553 -0.5530 -0.1162 -0.1171
  927loPI   C4A13818   0.964   7.215   7.978 -0.1112 -0.0946  0.0673
  927loPI   C5A13819   0.982   7.088   8.411  0.3693 -0.3170  0.0290
  927loPI   C6A13820   0.637   7.110   8.826 -0.3321 -0.1050  0.0514
  927loPI   C1B13821   0.464   7.413   7.098 -0.0026 -0.2603 -0.0141
  927loPI   C2B13822   0.405   7.400   7.498 -0.0991 -0.0017  0.3290
  927loPI   C3B13823   0.449   7.378   7.903  0.2908  0.1333  0.0080
  927loPI   C4B13824   0.411   7.209   8.405  0.0541 -0.1507  0.0012
  928loPI    C113825   0.348   5.322   5.820  0.1306  0.0122  0.2172
  928loPI    C213826   0.461   4.955   5.705 -0.1848 -0.0072 -0.0460
  928loPI    C313827   0.234   5.179   5.464 -0.0955  0.3164  0.1639
  928loPI   PO413828   0.260   5.318   6.114 -0.1255  0.3158  0.0828
  928loPI   GL113829   0.284   5.401   6.506  0.0799 -0.1338 -0.1779
  928loPI   GL213830   0.424   5.040   6.536  0.1157 -0.1550  0.0659
  928loPI   C1A13831   0.243   5.627   6.906  0.1520  0.1495 -0.1783
  928loPI   C2A13832   0.195   5.629   7.467 -0.0920 -0.1874  0.0510
  928loPI   C3A13833   0.143   5.467   7.906 -0.0349  0.0742  0.1226
  928loPI   C4A13834   0.201   5.518   8.358 -0.1589 -0.0129  0.0294
  928loPI   C5A13835   0.169   5.771   8.662 -0.0784 -0.0609  0.1374
  928loPI   C6A13836   0.291   6.110   8.949  0.2367  0.3657  0.1977
  928loPI   C1B13837   0.509   5.147   6.899  0.1230 -0.3300  0.0066
  928loPI   C2B13838   0.456   5.127   7.374 -0.1503 -0.0094 -0.1112
  928loPI   C3B13839   0.387   5.029   7.814  0.1252  0.2439 -0.1041
  928loPI   C4B13840   0.290   5.070   8.186 -0.1445 -0.1403 -0.2842
  929loPI    C113841   1.953   0.848   5.868 -0.0365  0.1953 -0.0034
  929loPI    C213842   1.606   0.685   5.753  0.0978 -0.1948  0.1281
  929loPI    C313843   1.885   0.777   5.481 -0.0890  0.0840  0.0261
  929loPI   PO413844   1.945   0.815   6.135  0.0241 -0.1107  0.0980
  929loPI   GL113845   2.193   0.956   6.534  0.1242 -0.1602 -0.1003
  929loPI   GL213846   2.161   1.318   6.584  0.0013  0.1243  0.1105
  929loPI   C1A13847   2.455   1.058   6.896 -0.1430  0.1674  0.2677
  929loPI   C2A13848   2.338   1.021   7.321 -0.1826  0.2079  0.0141
  929loPI   C3A13849   2.373   0.968   7.665 -0.1580 -0.0300 -0.1583
  929loPI   C4A13850   2.352   1.030   8.115 -0.2655 -0.0144  0.2222
  929loPI   C5A13851   2.351   1.084   8.604  0.0647 -0.0439  0.0282
  929loPI   C6A13852   2.402   1.543   8.842  0.3270  0.1362  0.2029
  929loPI   C1B13853   2.189   1.522   6.909  0.0511  0.0707  0.0691
  929loPI   C2B13854   2.181   1.464   7.421 -0.0031 -0.1603 -0.1629
  929loPI   C3B13855   2.207   1.484   7.877 -0.1025 -0.1923 -0.1829
  929loPI   C4B13856   2.177   1.554   8.363  0.1534  0.0491 -0.0371
  930loPI    C113857   9.825   2.890   5.753  0.1740  0.1972 -0.1002
  930loPI    C213858   9.823   3.258   5.909  0.1185  0.1940 -0.0933
  930loPI    C313859   9.925   3.204   5.526  0.3522  0.1910 -0.0325
  930loPI   PO413860   9.948   2.793   5.884 -0.2988 -0.2015 -0.2582
  930loPI   GL113861   9.885   2.761   6.328 -0.0084  0.1178  0.1261
  930loPI   GL213862   9.857   3.142   6.387 -0.1115  0.0537 -0.0785
  930loPI   C1A13863   9.929   2.644   6.732  0.1398 -0.0332  0.0124
  930loPI   C2A13864   9.920   2.594   7.172 -0.1482 -0.0282  0.1472
  930loPI   C3A13865   9.972   2.707   7.620  0.2577 -0.1607 -0.0068
  930loPI   C4A13866   9.914   2.666   8.036  0.1114 -0.0389 -0.1447
  930loPI   C5A13867   9.854   2.683   8.441 -0.0968 -0.1729  0.3838
  930loPI   C6A13868   9.511   2.717   8.703 -0.0982 -0.0871 -0.3247
  930loPI   C1B13869   9.771   3.130   6.780 -0.1034  0.2462 -0.1660
  930loPI   C2B13870   9.792   3.127   7.321  0.0009 -0.0517  0.1373
  930loPI   C3B13871   9.751   3.122   7.829 -0.1013 -0.0511 -0.1127
  930loPI   C4B13872   9.629   3.169   8.222 -0.1607  0.0997 -0.1869
  931loPI    C113873  13.332   7.213   5.710 -0.2438 -0.0363 -0.1318
  931loPI    C213874  13.490   6.915   5.494  0.0571  0.1124 -0.1222
  931loPI    C313875  13.216   7.158   5.332 -0.2636 -0.2255 -0.0994
  931loPI   PO413876  13.344   7.113   5.990  0.0708  0.0681  0.2264
  931loPI   GL113877  13.338   7.060   6.481 -0.0167 -0.1172  0.1927
  931loPI   GL213878  13.445   7.202   6.740  0.1326  0.4822 -0.0932
  931loPI   C1A13879  13.298   6.754   6.966 -0.1560  0.2616  0.2197
  931loPI   C2A13880  13.320   6.694   7.350  0.2444  0.2035 -0.1851
  931loPI   C3A13881  13.219   6.634   7.848 -0.1853  0.3657 -0.0255
  931loPI   C4A13882  13.278   6.560   8.321 -0.1696  0.1240 -0.0939
  931loPI   C5A13883  13.468   6.632   8.811  0.1833  0.0851 -0.1037
  931loPI   C6A13884  13.612   6.555   9.275  0.2444  0.1059 -0.0894
  931loPI   C1B13885  13.595   7.116   7.126 -0.0068  0.1499  0.1806
  931loPI   C2B13886  13.527   7.101   7.572 -0.1148 -0.0496 -0.0436
  931loPI   C3B13887  13.598   7.071   7.955  0.2547 -0.0772  0.1347
  931loPI   C4B13888  13.628   6.974   8.328  0.1766 -0.2433  0.0865
  932loPI    C113889   0.034  16.262   5.791 -0.0406  0.2185  0.1152
  932loPI    C213890   0.351  16.119   5.594 -0.2210 -0.0804  0.0352
  932loPI    C313891   0.114  16.391   5.422 -0.2141 -0.1272 -0.0489
  932loPI   PO413892   0.130  16.185   6.066  0.0750 -0.1724 -0.0022
  932loPI   GL113893   0.050  16.088   6.450 -0.0920 -0.0695 -0.0464
  932loPI   GL213894  -0.067  15.840   6.682  0.2429  0.0115  0.4417
  932loPI   C1A13895   0.348  16.094   6.754  0.0418  0.2270 -0.3997
  932loPI   C2A13896   0.277  16.348   7.194 -0.1557  0.1528 -0.1047
  932loPI   C3A13897   0.276  16.381   7.645  0.1890  0.2363 -0.0747
  932loPI   C4A13898   0.244  16.318   8.036 -0.1552 -0.1582 -0.0747
  932loPI   C5A13899   0.179  16.439   8.437 -0.0764  0.1434  0.0089
  932loPI   C6A13900   0.338  16.338   8.803 -0.1273  0.1202  0.1787
  932loPI   C1B13901  -0.030  15.954   7.059 -0.0989 -0.0428  0.1202
  932loPI   C2B13902   0.005  15.890   7.550 -0.1955  0.2607  0.0716
  932loPI   C3B13903  -0.073  15.907   7.939 -0.1971 -0.2197 -0.0519
  932loPI   C4B13904  -0.065  16.001   8.393  0.1543 -0.1269 -0.2297
  933loPI    C113905  12.167   6.242   5.540  0.1059 -0.0111  0.3091
  933loPI    C213906  12.493   6.177   5.318  0.0161  0.2761  0.0868
  933loPI    C313907  12.359   6.550   5.372 -0.4216  0.1433 -0.0389
  933loPI   PO413908  12.247   6.220   5.752  0.0846  0.2588 -0.4402
  933loPI   GL113909  12.012   6.179   6.161  0.0038  0.0706 -0.1321
  933loPI   GL213910  11.721   6.268   6.290  0.0179  0.1891 -0.1288
  933loPI   C1A13911  12.193   6.026   6.562 -0.0268 -0.0455  0.0649
  933loPI   C2A13912  12.020   5.972   6.991 -0.0430  0.1300 -0.0921
  933loPI   C3A13913  11.985   5.938   7.438 -0.2358 -0.0483  0.0269
  933loPI   C4A13914  12.141   5.893   7.780 -0.0304  0.0564  0.1360
  933loPI   C5A13915  12.128   5.922   8.142  0.0480  0.1135  0.3272
  933loPI   C6A13916  11.880   5.833   8.453  0.2553 -0.1259  0.2370
  933loPI   C1B13917  11.613   6.055   6.726  0.3087 -0.2786  0.0048
  933loPI   C2B13918  11.552   6.054   7.244  0.0314 -0.1312  0.1211
  933loPI   C3B13919  11.513   6.057   7.648 -0.2570 -0.2942  0.0828
  933loPI   C4B13920  11.608   6.139   8.075 -0.0581 -0.3406  0.0238
  934loPI    C113921   9.318   5.219   5.716  0.2500 -0.1221  0.0159
  934loPI    C213922   9.026   5.233   5.443  0.0211  0.0779  0.2652
  934loPI    C313923   9.402   5.320   5.338 -0.0319 -0.0319 -0.0254
  934loPI   PO413924   9.174   5.333   5.905  0.1912  0.0121  0.2457
  934loPI   GL113925   8.936   5.417   6.319  0.0701  0.1511  0.1642
  934loPI   GL213926   9.014   5.102   6.312 -0.1482 -0.0259  0.0192
  934loPI   C1A13927   8.866   5.501   6.700  0.1489  0.0697 -0.1215
  934loPI   C2A13928   8.806   5.513   7.117  0.1794  0.0857 -0.1161
  934loPI   C3A13929   8.780   5.588   7.523  0.1544 -0.1394  0.1343
  934loPI   C4A13930   8.766   5.554   7.897 -0.2775  0.1881  0.3740
  934loPI   C5A13931   8.807   5.593   8.257  0.1456 -0.1332  0.1873
  934loPI   C6A13932   8.920   5.856   8.580  0.0395 -0.1241  0.0938
  934loPI   C1B13933   9.127   5.117   6.788  0.1794 -0.0592  0.3142
  934loPI   C2B13934   9.039   5.036   7.189  0.3030 -0.0039  0.0665
  934loPI   C3B13935   9.004   5.069   7.591  0.0300  0.0128  0.4454
  934loPI   C4B13936   8.947   5.067   7.988 -0.0497  0.1740  0.0171
  935loPI    C113937   5.831  16.954   5.992  0.1648 -0.0509 -0.2065
  935loPI    C213938   5.437  16.884   5.977  0.1893 -0.2597  0.0478
  935loPI    C313939   5.680  16.721   5.704  0.0793  0.0407 -0.2366
  935loPI   PO413940   5.929  16.928   6.262  0.2025 -0.0721 -0.1617
  935loPI   GL113941   5.633  16.631   6.613 -0.0114 -0.0135  0.0125
  935loPI   GL213942   5.439  16.843   6.447 -0.4350 -0.1580 -0.1300
  935loPI   C1A13943   5.623  16.530   6.972  0.3157  0.0250 -0.1012
  935loPI   C2A13944   5.666  16.648   7.329 -0.1508  0.1665 -0.0928
  935loPI   C3A13945   5.673  16.662   7.666  0.0094 -0.3450 -0.2729
  935loPI   C4A13946   5.640  16.777   8.040  0.0743 -0.2747  0.0005
  935loPI   C5A13947   5.613  16.777   8.454 -0.1264 -0.1461 -0.1197
  935loPI   C6A13948   5.506  16.590   8.837 -0.0117 -0.3453 -0.1996
  935loPI   C1B13949   5.268  16.888   6.874 -0.0482  0.1168  0.0334
  935loPI   C2B13950   5.216  16.882   7.325 -0.1847 -0.1360  0.0743
  935loPI   C3B13951   5.206  16.865   7.749 -0.0993 -0.0078 -0.1876
  935loPI   C4B13952   5.230  17.026   8.235  0.2113  0.1801 -0.0785
  936loPI    C113953  16.744   4.167   6.040  0.0904 -0.4963 -0.2862
  936loPI    C213954  16.726   4.458   5.766  0.1679 -0.1403  0.0767
  936loPI    C313955  17.056   4.235   5.799  0.3012  0.0616  0.1229
  936loPI   PO413956  16.756   4.143   6.289  0.1083 -0.0829 -0.1264
  936loPI   GL113957  16.895   4.342   6.644 -0.0340 -0.2216  0.2399
  936loPI   GL213958  16.907   4.730   6.659 -0.0478  0.1910 -0.1225
  936loPI   C1A13959  17.010   4.164   7.104 -0.5479  0.0587  0.2244
  936loPI   C2A13960  16.997   4.172   7.617 -0.2334  0.0229 -0.0067
  936loPI   C3A13961  17.051   4.237   8.008  0.0263 -0.1298  0.2189
  936loPI   C4A13962  17.102   4.169   8.473 -0.0476 -0.0185 -0.1512
  936loPI   C5A13963  17.231   4.014   8.831 -0.0487 -0.0552 -0.1238
  936loPI   C6A13964  16.998   3.833   9.127  0.0302 -0.1474 -0.0006
  936loPI   C1B13965  16.836   4.638   7.051  0.1107 -0.1158 -0.0701
  936loPI   C2B13966  16.809   4.696   7.537  0.1776  0.0524 -0.5216
  936loPI   C3B13967  16.789   4.675   7.989  0.0709 -0.0139  0.1180
  936loPI   C4B13968  16.850   4.577   8.340  0.0356  0.1311 -0.0940
  937loPI    C113969   0.714  10.087   6.235  0.0114 -0.0327 -0.1027
  937loPI    C213970   0.875  10.106   5.869 -0.0979 -0.1107 -0.1553
  937loPI    C313971   0.566   9.862   5.939 -0.1716  0.0130 -0.0469
  937loPI   PO413972   0.871  10.101   6.395 -0.1493 -0.0118  0.0165
  937loPI   GL113973   0.952   9.798   6.812  0.1135 -0.2201 -0.2466
  937loPI   GL213974   0.957   9.440   6.732 -0.0667  0.0317 -0.1166
  937loPI   C1A13975   0.955   9.670   7.167  0.1277 -0.0683 -0.3277
  937loPI   C2A13976   1.083   9.567   7.630  0.0151  0.1123  0.0586
  937loPI   C3A13977   1.047   9.603   8.123  0.0996 -0.1410 -0.0792
  937loPI   C4A13978   1.142   9.569   8.568 -0.2476 -0.1808 -0.3197
  937loPI   C5A13979   1.088   9.142   8.817  0.5726 -0.1668  0.3266
  937loPI   C6A13980   0.860   8.956   9.150 -0.1042 -0.0952  0.2244
  937loPI   C1B13981   1.159   9.164   7.079  0.1086 -0.0845  0.0982
  937loPI   C2B13982   1.225   9.037   7.510  0.0246 -0.0606  0.1695
  937loPI   C3B13983   1.257   9.141   7.923 -0.0995 -0.3891 -0.0048
  937loPI   C4B13984   1.270   9.058   8.353 -0.1919  0.3243 -0.1725
  938loPI    C113985   5.922   8.737   5.757  0.1781  0.2905 -0.2024
  938loPI    C213986   6.243   8.600   5.562  0.0568  0.0114 -0.2116
  938loPI    C313987   5.945   8.773   5.360  0.0661 -0.0039 -0.2384
  938loPI   PO413988   5.917   8.625   5.951 -0.1748 -0.0809 -0.1639
  938loPI   GL113989   5.995   8.884   6.263 -0.2094 -0.2068 -0.3225
  938loPI   GL213990   6.072   8.620   6.463  0.1076 -0.0557 -0.1265
  938loPI   C1A13991   5.943   9.042   6.713 -0.1924 -0.1577 -0.0359
  938loPI   C2A13992   5.909   9.095   7.136  0.2822 -0.1399  0.0750
  938loPI   C3A13993   5.949   9.099   7.600 -0.1723  0.2086 -0.0660
  938loPI   C4A13994   6.014   9.069   8.026 -0.2142 -0.2425 -0.0506
  938loPI   C5A13995   5.850   9.076   8.457 -0.2244  0.0206  0.0872
  938loPI   C6A13996   6.010   9.420   8.725  0.1012 -0.0536 -0.5851
  938loPI   C1B13997   6.102   8.599   6.935 -0.1046  0.0569 -0.0387
  938loPI   C2B13998   6.096   8.595   7.430  0.3180  0.1326  0.1431
  938loPI   C3B13999   6.202   8.529   7.839  0.1277 -0.0502  0.0743
  938loPI   C4B14000   6.213   8.714   8.322  0.0602  0.2744 -0.0423
  939loPI    C114001   0.722  14.719   5.934 -0.2583 -0.0719  0.0658
  939loPI    C214002   0.700  14.335   5.822  0.0046 -0.1018  0.1107
  939loPI    C314003   0.786  14.618   5.552 -0.1066 -0.0840  0.0937
  939loPI   PO414004   0.602  14.686   6.176 -0.2441 -0.1629 -0.0161
  939loPI   GL114005   0.656  14.838   6.571  0.0047 -0.0827  0.0893
  939loPI   GL214006   0.895  14.659   6.698  0.0668 -0.0957  0.2904
  939loPI   C1A14007   0.531  15.240   6.916 -0.2178  0.2608 -0.1594
  939loPI   C2A14008   0.577  15.336   7.331 -0.1926  0.1109  0.0042
  939loPI   C3A14009   0.688  15.410   7.689 -0.1890 -0.1199 -0.0219
  939loPI   C4A14010   0.708  15.482   8.177  0.0125  0.3126 -0.1197
  939loPI   C5A14011   0.707  15.483   8.698  0.2875 -0.1808  0.2528
  939loPI   C6A14012   0.811  15.218   8.956 -0.2224  0.2807  0.3398
  939loPI   C1B14013   0.791  14.826   7.138 -0.0683  0.1403 -0.0137
  939loPI   C2B14014   0.789  14.889   7.580  0.2689  0.3108 -0.1142
  939loPI   C3B14015   0.880  14.993   7.980 -0.3568  0.1009 -0.2239
  939loPI   C4B14016   0.864  15.084   8.419 -0.3341  0.2396  0.0430
  940loPI    C114017  14.381   5.277   5.853  0.1437 -0.4169 -0.1372
  940loPI    C214018  14.086   5.273   5.583 -0.0351  0.2490  0.0300
  940loPI    C314019  14.461   5.351   5.469 -0.0116 -0.0455 -0.1023
  940loPI   PO414020  14.344   5.413   6.082  0.0415  0.1010 -0.0455
  940loPI   GL114021  14.504   5.435   6.544 -0.0079  0.1108 -0.1680
  940loPI   GL214022  14.407   5.133   6.575  0.1544 -0.1560 -0.0790
  940loPI   C1A14023  14.515   5.612   6.946  0.0967  0.3352  0.2406
  940loPI   C2A14024  14.582   5.494   7.281  0.0586 -0.1776  0.1087
  940loPI   C3A14025  14.558   5.560   7.761  0.2477  0.4854  0.1700
  940loPI   C4A14026  14.565   5.383   8.097  0.1478  0.0546 -0.0129
  940loPI   C5A14027  14.458   5.064   8.364 -0.3249  0.1562 -0.0894
  940loPI   C6A14028  14.376   4.955   8.812 -0.1115  0.0195  0.0815
  940loPI   C1B14029  14.285   5.103   6.997  0.0778 -0.1271 -0.1977
  940loPI   C2B14030  14.265   5.165   7.460  0.0064 -0.0637 -0.3645
  940loPI   C3B14031  14.321   5.050   7.872 -0.0964 -0.1379  0.1133
  940loPI   C4B14032  13.950   5.068   8.222 -0.1504  0.1696 -0.1060
  941loPI    C114033   1.240   7.250   5.977 -0.1097 -0.3166  0.0281
  941loPI    C214034   0.991   7.441   5.728 -0.0553 -0.0529  0.1723
  941loPI    C314035   1.140   7.084   5.627  0.0505  0.0981 -0.2223
  941loPI   PO414036   1.122   7.202   6.207 -0.1622  0.0339  0.1226
  941loPI   GL114037   1.218   7.309   6.541  0.2554 -0.5324  0.2163
  941loPI   GL214038   1.465   7.483   6.501  0.0183 -0.0213 -0.3164
  941loPI   C1A14039   1.374   7.311   6.980 -0.1283  0.0377 -0.2071
  941loPI   C2A14040   1.455   7.221   7.461 -0.4891 -0.1794  0.2525
  941loPI   C3A14041   1.462   7.067   7.854 -0.0815  0.1037  0.0411
  941loPI   C4A14042   1.441   6.904   8.290  0.1523 -0.2906 -0.1272
  941loPI   C5A14043   1.238   6.635   8.484  0.1064  0.0684 -0.0767
  941loPI   C6A14044   1.219   6.257   8.715 -0.1744 -0.1653  0.1728
  941loPI   C1B14045   1.732   7.636   6.881 -0.0289  0.0807 -0.1595
  941loPI   C2B14046   1.777   7.614   7.330  0.2774  0.1570 -0.0583
  941loPI   C3B14047   1.794   7.532   7.709 -0.0776 -0.1549  0.1934
  941loPI   C4B14048   1.832   7.461   8.105 -0.0546  0.2490 -0.0781
  942loPI    C114049   8.937   6.795   5.720 -0.1003  0.2139 -0.2073
  942loPI    C214050   9.121   6.985   5.420  0.3382 -0.2185 -0.2228
  942loPI    C314051   8.917   6.649   5.349  0.0895 -0.0965 -0.0986
  942loPI   PO414052   8.794   6.972   5.861 -0.1740 -0.2280  0.1278
  942loPI   GL114053   8.886   7.176   6.259 -0.0020 -0.2033 -0.4009
  942loPI   GL214054   8.830   6.860   6.364 -0.1767 -0.0425  0.1730
  942loPI   C1A14055   8.647   7.283   6.598 -0.3383 -0.0493  0.1823
  942loPI   C2A14056   8.650   7.365   7.097 -0.1617 -0.1767  0.1173
  942loPI   C3A14057   8.631   7.342   7.442  0.0702 -0.2273 -0.0377
  942loPI   C4A14058   8.589   7.307   7.887  0.0314 -0.0154 -0.1094
  942loPI   C5A14059   8.522   7.383   8.258 -0.1230  0.1003 -0.0146
  942loPI   C6A14060   8.486   7.532   8.666  0.1693  0.1850  0.0093
  942loPI   C1B14061   8.826   6.862   6.786  0.3568 -0.1830 -0.1150
  942loPI   C2B14062   8.762   6.812   7.225 -0.0762 -0.0221 -0.3607
  942loPI   C3B14063   8.675   6.841   7.686 -0.0982  0.4743  0.3870
  942loPI   C4B14064   8.787   6.797   8.232  0.0554  0.0774  0.0177
  943loPI    C114065   2.983   9.682   6.034  0.1866  0.0079  0.2092
  943loPI    C214066   2.963   9.294   5.940  0.0387  0.0915 -0.1209
  943loPI    C314067   3.152   9.549   5.697  0.2170  0.2143  0.1412
  943loPI   PO414068   3.028   9.691   6.275 -0.0768 -0.0109 -0.0844
  943loPI   GL114069   2.961   9.646   6.668  0.1823  0.0880 -0.0992
  943loPI   GL214070   3.037   9.286   6.623 -0.2677  0.0296  0.5238
  943loPI   C1A14071   2.957   9.683   7.089 -0.0918  0.1466 -0.2442
  943loPI   C2A14072   2.956   9.671   7.488  0.0532  0.0955  0.1705
  943loPI   C3A14073   2.988   9.609   8.001 -0.0260  0.4814  0.1796
  943loPI   C4A14074   2.905   9.463   8.411 -0.2692 -0.0778  0.1517
  943loPI   C5A14075   2.815   9.403   8.880  0.0029  0.2068 -0.1734
  943loPI   C6A14076   2.609   9.244   9.144 -0.1505 -0.1215 -0.0789
  943loPI   C1B14077   3.113   9.224   7.016 -0.2499 -0.0230  0.2920
  943loPI   C2B14078   3.059   9.205   7.464 -0.1471  0.0606  0.2125
  943loPI   C3B14079   3.153   9.079   7.889  0.2865  0.1072 -0.1371
  943loPI   C4B14080   3.110   9.011   8.332 -0.1869  0.2265 -0.2437
  944loPI    C114081  13.430   9.585   6.134 -0.0625  0.1770 -0.0354
  944loPI    C214082  13.430   9.370   5.797  0.1155  0.1119  0.0046
  944loPI    C314083  13.719   9.639   5.862  0.2917 -0.1345  0.2663
  944loPI   PO414084  13.255   9.466   6.251  0.0401  0.1602  0.2808
  944loPI   GL114085  13.325   9.225   6.601 -0.0169  0.2138 -0.1267
  944loPI   GL214086  13.338   9.079   6.958  0.1716  0.2025 -0.1293
  944loPI   C1A14087  13.161   9.525   6.872 -0.0288  0.1631  0.1770
  944loPI   C2A14088  13.206   9.571   7.334  0.2972 -0.0520  0.1168
  944loPI   C3A14089  13.079   9.482   7.795 -0.0573  0.1947 -0.2466
  944loPI   C4A14090  13.051   9.394   8.233  0.0361  0.1191 -0.0441
  944loPI   C5A14091  12.969   9.333   8.561 -0.1775 -0.1594  0.1619
  944loPI   C6A14092  12.917   9.459   9.007 -0.2407  0.0281  0.1451
  944loPI   C1B14093  13.313   9.083   7.427 -0.1721  0.0599  0.0952
  944loPI   C2B14094  13.282   8.989   7.876 -0.1287  0.1318  0.0330
  944loPI   C3B14095  13.300   9.002   8.361  0.2845 -0.0653  0.2469
  944loPI   C4B14096  13.106   8.749   8.770  0.2205 -0.1303  0.1349
  945loPI    C114097   0.874   0.964   5.964  0.2104 -0.0953  0.0065
  945loPI    C214098   1.152   1.050   5.689  0.0674 -0.1082 -0.1435
  945loPI    C314099   0.889   1.330   5.802  0.1376 -0.0975 -0.0057
  945loPI   PO414100   0.957   0.954   6.216 -0.0936 -0.0564 -0.1548
  945loPI   GL114101   1.144   1.025   6.520 -0.0522 -0.0153  0.2398
  945loPI   GL214102   1.251   0.785   6.641 -0.0981  0.2828  0.2168
  945loPI   C1A14103   0.961   1.224   6.905 -0.0131  0.0457 -0.2744
  945loPI   C2A14104   0.855   1.084   7.247  0.0464  0.2182  0.1543
  945loPI   C3A14105   0.877   1.129   7.709 -0.2959 -0.1437  0.0801
  945loPI   C4A14106   0.844   1.206   8.121 -0.2213  0.2041  0.2189
  945loPI   C5A14107   0.887   1.167   8.506  0.2898  0.0737 -0.4391
  945loPI   C6A14108   1.388   1.129   8.750 -0.0462 -0.1112 -0.0046
  945loPI   C1B14109   1.057   0.698   7.095 -0.1659 -0.0062  0.0096
  945loPI   C2B14110   1.064   0.672   7.512  0.4856 -0.2995  0.0857
  945loPI   C3B14111   1.039   0.739   7.910  0.0752 -0.0218 -0.1032
  945loPI   C4B14112   0.984   0.717   8.261  0.1683 -0.0522 -0.0760
  946loPI    C114113   4.979   3.691   5.811  0.0107 -0.2314  0.0131
  946loPI    C214114   4.657   3.589   5.598 -0.0110  0.0069 -0.0710
  946loPI    C314115   4.921   3.850   5.449  0.0331  0.0883  0.1470
  946loPI   PO414116   4.949   3.490   6.039  0.0962 -0.1988  0.1291
  946loPI   GL114117   5.232   3.457   6.354  0.0243 -0.0164 -0.2451
  946loPI   GL214118   5.070   3.672   6.524  0.1567 -0.5047  0.0660
  946loPI   C1A14119   5.384   3.288   6.754 -0.1025  0.0881 -0.0584
  946loPI   C2A14120   5.378   3.197   7.171  0.1000  0.2667 -0.0104
  946loPI   C3A14121   5.296   3.311   7.574  0.2920 -0.1436  0.0271
  946loPI   C4A14122   5.355   3.265   7.962 -0.0318 -0.4571  0.0401
  946loPI   C5A14123   5.351   3.391   8.368  0.0333 -0.3140 -0.4457
  946loPI   C6A14124   5.088   3.643   8.531  0.0944  0.0433  0.0170
  946loPI   C1B14125   5.131   3.666   6.904 -0.0645 -0.0965 -0.0172
  946loPI   C2B14126   5.118   3.722   7.233  0.4316  0.0430 -0.3861
  946loPI   C3B14127   5.174   3.822   7.633 -0.0674 -0.1459 -0.0303
  946loPI   C4B14128   5.138   3.878   8.094 -0.2230 -0.0504 -0.0385
  947loPI    C114129   4.124  12.807   5.959  0.1611 -0.0577 -0.0159
  947loPI    C214130   4.227  12.422   5.997 -0.1330 -0.1458 -0.0869
  947loPI    C314131   3.851  12.520   5.901 -0.0535  0.1596 -0.0959
  947loPI   PO414132   4.199  12.907   6.247 -0.1776  0.0642 -0.0313
  947loPI   GL114133   4.276  12.953   6.709 -0.0245 -0.0169  0.0549
  947loPI   GL214134   3.915  13.030   6.725 -0.1039  0.1158 -0.1669
  947loPI   C1A14135   4.163  12.827   7.077  0.1366  0.4146 -0.0778
  947loPI   C2A14136   4.215  12.924   7.480  0.0822  0.1776 -0.1138
  947loPI   C3A14137   4.122  12.953   7.908  0.0112  0.1378 -0.0732
  947loPI   C4A14138   4.136  12.985   8.357  0.3451  0.0798 -0.2410
  947loPI   C5A14139   4.299  12.609   8.593  0.2498  0.0215 -0.0956
  947loPI   C6A14140   4.588  12.315   8.480  0.0203 -0.2835  0.0296
  947loPI   C1B14141   4.096  13.305   7.026 -0.0207  0.1942 -0.1324
  947loPI   C2B14142   4.253  13.465   7.461 -0.0486  0.0315  0.0775
  947loPI   C3B14143   4.144  13.512   7.869 -0.4645  0.0963 -0.2741
  947loPI   C4B14144   4.212  13.559   8.254  0.2169 -0.0470 -0.0678
  948loPI    C114145   1.966  13.459   6.246  0.0661  0.0966  0.1326
  948loPI    C214146   2.002  13.676   5.912  0.1103  0.0166  0.0852
  948loPI    C314147   1.968  13.278   5.890 -0.1358  0.0315  0.1635
  948loPI   PO414148   2.179  13.617   6.427  0.0663 -0.0761 -0.0216
  948loPI   GL114149   2.272  13.844   6.798  0.0157  0.0112  0.1182
  948loPI   GL214150   2.105  14.051   6.696 -0.1211  0.1648  0.1577
  948loPI   C1A14151   2.326  14.011   7.234  0.1023  0.2865 -0.0376
  948loPI   C2A14152   2.469  14.094   7.607  0.0421  0.2166 -0.2248
  948loPI   C3A14153   2.382  14.010   8.008 -0.1946 -0.1820 -0.1947
  948loPI   C4A14154   2.502  13.957   8.463  0.2088  0.2587 -0.1308
  948loPI   C5A14155   2.658  13.606   8.719 -0.2688  0.0999  0.0317
  948loPI   C6A14156   2.549  13.256   9.103  0.0426 -0.0537  0.1669
  948loPI   C1B14157   1.963  14.262   7.102  0.0210  0.2332 -0.0250
  948loPI   C2B14158   2.020  14.343   7.603 -0.0787  0.1974 -0.0261
  948loPI   C3B14159   1.980  14.296   7.985 -0.1580  0.1081 -0.0460
  948loPI   C4B14160   1.974  14.136   8.387  0.0678 -0.2608  0.0489
  949loPI    C114161  15.766   4.150   6.058 -0.1351  0.1000  0.2292
  949loPI    C214162  15.415   3.963   6.101 -0.0870 -0.0295  0.0717
  949loPI    C314163  15.611   3.944   5.753 -0.0909  0.3354  0.0448
  949loPI   PO414164  15.869   4.162   6.301  0.0730 -0.1003  0.0458
  949loPI   GL114165  15.818   4.304   6.614  0.0079  0.2171 -0.1222
  949loPI   GL214166  16.261   4.346   6.568  0.0702 -0.1596  0.1899
  949loPI   C1A14167  15.951   4.333   6.994  0.1385  0.0967  0.1337
  949loPI   C2A14168  16.053   4.400   7.417  0.2637  0.0968  0.2607
  949loPI   C3A14169  16.038   4.292   7.885  0.1268 -0.1443  0.0813
  949loPI   C4A14170  15.994   4.274   8.288  0.0614  0.1087 -0.1415
  949loPI   C5A14171  16.045   3.953   8.586 -0.2896  0.0724  0.2129
  949loPI   C6A14172  16.237   3.504   8.633  0.0232 -0.3660 -0.3268
  949loPI   C1B14173  16.408   4.278   6.921  0.1331  0.0457  0.0054
  949loPI   C2B14174  16.510   4.354   7.283  0.0835 -0.0535 -0.1199
  949loPI   C3B14175  16.551   4.296   7.739 -0.2054 -0.0130  0.3033
  949loPI   C4B14176  16.448   4.228   8.180 -0.2104  0.0941  0.1575
  950loPI    C114177   7.826   2.320   5.749  0.1486  0.0384  0.0123
  950loPI    C214178   7.714   1.966   5.601  0.1610 -0.0502  0.2121
  950loPI    C314179   7.746   2.282   5.359 -0.2099 -0.0979  0.0949
  950loPI   PO414180   7.673   2.374   5.918 -0.2837  0.0189 -0.1027
  950loPI   GL114181   7.639   2.278   6.345 -0.1908  0.3809  0.1783
  950loPI   GL214182   7.974   2.398   6.316 -0.0123  0.1554  0.1993
  950loPI   C1A14183   7.685   2.340   6.866  0.1162 -0.0559 -0.1207
  950loPI   C2A14184   7.590   2.574   7.242 -0.0977  0.2367  0.2009
  950loPI   C3A14185   7.617   2.589   7.722 -0.1435  0.1789  0.1380
  950loPI   C4A14186   7.580   2.512   8.112 -0.0741  0.3014  0.2861
  950loPI   C5A14187   7.451   2.573   8.566  0.0761 -0.1755  0.0361
  950loPI   C6A14188   6.973   2.554   8.693  0.2183 -0.0378  0.3412
  950loPI   C1B14189   8.141   2.507   6.682  0.2427 -0.1730 -0.0773
  950loPI   C2B14190   8.104   2.575   7.157  0.2433 -0.1363 -0.1190
  950loPI   C3B14191   8.103   2.460   7.593  0.0331 -0.0897 -0.1749
  950loPI   C4B14192   8.170   2.395   8.019 -0.1954  0.3532  0.2054
  951loPI    C114193   6.200   1.475   5.821 -0.2104  0.0278 -0.0740
  951loPI    C214194   6.073   1.137   5.650 -0.1590 -0.0130 -0.0316
  951loPI    C314195   5.987   1.490   5.483  0.0540 -0.0600 -0.2477
  951loPI   PO414196   6.110   1.446   6.080  0.0865 -0.1534 -0.1655
  951loPI   GL114197   5.803   1.472   6.377 -0.3198 -0.3191 -0.1907
  951loPI   GL214198   5.839   1.804   6.372 -0.1074  0.3225 -0.1102
  951loPI   C1A14199   5.725   1.425   6.819 -0.3908  0.0507 -0.1401
  951loPI   C2A14200   5.738   1.448   7.221  0.0442  0.1381  0.1163
  951loPI   C3A14201   5.601   1.453   7.627 -0.0644 -0.1065 -0.1468
  951loPI   C4A14202   5.469   1.498   8.121  0.1315  0.3690  0.0105
  951loPI   C5A14203   5.225   1.529   8.399  0.2777 -0.1005  0.1300
  951loPI   C6A14204   4.812   1.423   8.463  0.1240 -0.0629 -0.2695
  951loPI   C1B14205   5.521   1.832   6.645 -0.2237 -0.0325  0.3385
  951loPI   C2B14206   5.461   1.882   7.069  0.4296 -0.0682  0.0908
  951loPI   C3B14207   5.464   1.902   7.475 -0.1461 -0.1292 -0.0402
  951loPI   C4B14208   5.384   1.962   7.957 -0.0326  0.1305  0.1640
  952loPI    C114209   6.288  13.237   5.655 -0.1556  0.0672 -0.1455
  952loPI    C214210   6.329  12.887   5.466 -0.1267  0.0273 -0.0655
  952loPI    C314211   6.587  13.183   5.394 -0.1525  0.0331 -0.1349
  952loPI   PO414212   6.260  13.140   5.936  0.1246 -0.1689 -0.0364
  952loPI   GL114213   6.081  13.045   6.363  0.0741 -0.0305 -0.3608
  952loPI   GL214214   6.324  12.942   6.535 -0.3354  0.2153 -0.0097
  952loPI   C1A14215   5.914  13.208   6.651  0.1928  0.0003  0.1314
  952loPI   C2A14216   5.968  13.263   7.193 -0.1076 -0.0339  0.1049
  952loPI   C3A14217   5.968  13.295   7.601 -0.0416 -0.1263 -0.0361
  952loPI   C4A14218   5.892  13.368   8.014 -0.2682 -0.0836  0.1159
  952loPI   C5A14219   6.064  13.626   8.298  0.0010 -0.2133  0.1217
  952loPI   C6A14220   6.172  13.524   8.817 -0.0862 -0.4881  0.4307
  952loPI   C1B14221   6.305  12.959   6.970 -0.3187  0.2898 -0.2104
  952loPI   C2B14222   6.397  13.026   7.403 -0.0419  0.2698  0.0489
  952loPI   C3B14223   6.448  12.992   7.885  0.0094  0.0541  0.0864
  952loPI   C4B14224   6.342  13.241   8.293 -0.1158 -0.0628 -0.3305
  953loPI    C114225   2.702  15.635   5.859 -0.0973  0.2575  0.1258
  953loPI    C214226   2.933  15.903   5.671  0.2225 -0.0697  0.0427
  953loPI    C314227   2.551  15.857   5.562  0.2770  0.0709 -0.2131
  953loPI   PO414228   2.756  15.627   6.154  0.2137  0.0736  0.1722
  953loPI   GL114229   2.746  15.381   6.536  0.0335  0.1214  0.4296
  953loPI   GL214230   2.668  15.135   6.492  0.0847  0.2284  0.1734
  953loPI   C1A14231   2.724  15.316   7.020  0.0972 -0.0201 -0.0253
  953loPI   C2A14232   2.834  15.298   7.366  0.1101  0.0578  0.0691
  953loPI   C3A14233   2.872  15.346   7.861 -0.1197  0.1549 -0.1378
  953loPI   C4A14234   2.883  15.241   8.196  0.2778 -0.1267 -0.3916
  953loPI   C5A14235   3.013  14.876   8.626 -0.0651  0.2046  0.0733
  953loPI   C6A14236   3.020  14.896   9.028  0.0932  0.2334  0.0612
  953loPI   C1B14237   2.380  15.023   6.761  0.2305  0.0418  0.0141
  953loPI   C2B14238   2.305  15.108   7.184  0.2259 -0.0215  0.0374
  953loPI   C3B14239   2.358  15.036   7.624  0.1685 -0.0389 -0.0357
  953loPI   C4B14240   2.353  15.123   8.020 -0.1988  0.3770  0.1367
  954loPI    C114241   4.724  17.296   6.059 -0.0116 -0.0033 -0.0179
  954loPI    C214242   5.051  17.132   6.220 -0.0530 -0.0023  0.0678
  954loPI    C314243   4.999  17.126   5.824  0.0433 -0.0161  0.0552
  954loPI   PO414244   4.715  17.545   6.180 -0.0668  0.1740 -0.0427
  954loPI   GL114245   4.837  17.687   6.562  0.1887 -0.0551  0.1563
  954loPI   GL214246   4.580  17.482   6.659 -0.0958  0.3447 -0.1480
  954loPI   C1A14247   4.583  17.910   6.838 -0.1634  0.3696  0.0004
  954loPI   C2A14248   4.524  17.994   7.160 -0.0127  0.0587 -0.2719
  954loPI   C3A14249   4.372  18.082   7.643  0.0515 -0.0423 -0.2316
  954loPI   C4A14250   4.357  18.031   8.038 -0.0197  0.0502 -0.0666
  954loPI   C5A14251   4.460  17.607   8.289 -0.2181 -0.0034  0.2815
  954loPI   C6A14252   4.595  17.127   8.372 -0.1241 -0.1624 -0.0300
  954loPI   C1B14253   4.741  17.534   7.151 -0.3423  0.1961 -0.2456
  954loPI   C2B14254   4.727  17.684   7.519  0.1574  0.0405 -0.0226
  954loPI   C3B14255   4.830  17.850   7.949  0.1544  0.2388  0.1684
  954loPI   C4B14256   5.249  17.951   8.167  0.1081  0.2598  0.1448
  955loPI    C114257   5.045   5.106   5.917  0.3091  0.0655 -0.1657
  955loPI    C214258   5.139   5.022   5.537 -0.0170 -0.4416 -0.1443
  955loPI    C314259   4.808   5.231   5.620  0.1707 -0.1384 -0.1433
  955loPI   PO414260   5.231   5.126   6.022  0.4467  0.1333  0.0908
  955loPI   GL114261   5.405   5.372   6.280  0.2054  0.0652  0.2594
  955loPI   GL214262   5.304   5.622   6.246 -0.3312  0.1079  0.3835
  955loPI   C1A14263   5.557   5.091   6.580  0.2682  0.1144  0.2243
  955loPI   C2A14264   5.570   5.004   6.918  0.2097  0.0537  0.0088
  955loPI   C3A14265   5.624   5.032   7.337  0.1073  0.2830 -0.2298
  955loPI   C4A14266   5.539   5.075   7.732 -0.0051  0.2504  0.2573
  955loPI   C5A14267   5.669   4.921   8.241 -0.0360 -0.1263  0.1678
  955loPI   C6A14268   5.982   4.712   8.491 -0.1727  0.0089 -0.3106
  955loPI   C1B14269   5.358   5.603   6.714 -0.1150  0.0185 -0.1626
  955loPI   C2B14270   5.336   5.609   7.182 -0.1839  0.0713 -0.1329
  955loPI   C3B14271   5.347   5.522   7.681 -0.0944 -0.0765  0.2274
  955loPI   C4B14272   5.229   5.774   8.074 -0.1172  0.3683 -0.1554
  956loPI    C114273  15.991   6.344   6.031  0.0084 -0.2112 -0.0436
  956loPI    C214274  16.288   6.333   5.765 -0.1321  0.0214 -0.2139
  956loPI    C314275  15.934   6.490   5.663 -0.2529 -0.0768  0.0467
  956loPI   PO414276  16.133   6.478   6.242 -0.0490 -0.0968 -0.0498
  956loPI   GL114277  16.432   6.701   6.549  0.1759 -0.0706  0.3058
  956loPI   GL214278  16.063   6.683   6.681  0.1077 -0.0732 -0.4216
  956loPI   C1A14279  16.538   6.606   7.003 -0.2029 -0.1928 -0.4493
  956loPI   C2A14280  16.698   6.619   7.418 -0.4206  0.1029  0.1782
  956loPI   C3A14281  16.676   6.601   7.832  0.0814  0.0964 -0.5026
  956loPI   C4A14282  16.593   6.470   8.227  0.2082 -0.1622 -0.2768
  956loPI   C5A14283  16.762   6.405   8.637 -0.3717  0.0684 -0.2298
  956loPI   C6A14284  17.159   6.214   8.707  0.1424 -0.3579  0.1201
  956loPI   C1B14285  16.002   6.671   7.114 -0.2578 -0.0005 -0.0847
  956loPI   C2B14286  16.053   6.630   7.564 -0.1940  0.3261  0.0901
  956loPI   C3B14287  16.144   6.625   7.905 -0.2115  0.0219 -0.4696
  956loPI   C4B14288  16.053   6.598   8.329 -0.0414  0.0029  0.2383
  957loPI    C114289   0.278   4.197   5.811 -0.0871 -0.0966 -0.0518
  957loPI    C214290   0.506   4.465   5.621 -0.2934  0.0103 -0.1519
  957loPI    C314291   0.607   4.077   5.618 -0.0652  0.0680 -0.1177
  957loPI   PO414292   0.227   4.313   6.024 -0.0668  0.0566 -0.1429
  957loPI   GL114293   0.299   4.307   6.525 -0.0457  0.0046  0.1046
  957loPI   GL214294   0.167   4.617   6.656 -0.1855 -0.2120 -0.0192
  957loPI   C1A14295   0.178   4.076   6.912 -0.0617  0.1901  0.4120
  957loPI   C2A14296   0.117   4.025   7.355  0.2251 -0.0640 -0.1759
  957loPI   C3A14297   0.159   4.076   7.828 -0.0076  0.2319 -0.1677
  957loPI   C4A14298   0.217   4.202   8.235 -0.3032 -0.3198  0.0629
  957loPI   C5A14299   0.293   4.329   8.621 -0.0151  0.0996 -0.1014
  957loPI   C6A14300   0.401   4.564   8.992  0.1393  0.1894  0.2989
  957loPI   C1B14301   0.058   4.547   7.029  0.2173 -0.0986  0.1243
  957loPI   C2B14302   0.003   4.496   7.405  0.1069 -0.0302 -0.0878
  957loPI   C3B14303   0.061   4.626   7.882 -0.1481 -0.2148 -0.0550
  957loPI   C4B14304   0.068   4.669   8.278 -0.2139 -0.1465 -0.0835
  958loPI    C114305   2.638  11.709   6.513 -0.1985 -0.0996 -0.2504
  958loPI    C214306   2.735  11.865   6.158 -0.2427 -0.0730 -0.2509
  958loPI    C314307   2.614  11.485   6.182 -0.5840  0.0281 -0.3146
  958loPI   PO414308   2.484  11.833   6.606  0.0759  0.3209 -0.0521
  958loPI   GL114309   2.545  12.017   6.959  0.0345  0.1716  0.0827
  958loPI   GL214310   2.715  12.268   6.934  0.0485  0.2651 -0.2118
  958loPI   C1A14311   2.495  12.038   7.481  0.0225  0.3564  0.1148
  958loPI   C2A14312   2.464  11.933   7.896  0.0769 -0.0656  0.1707
  958loPI   C3A14313   2.393  12.036   8.291 -0.1236  0.2799 -0.1567
  958loPI   C4A14314   2.438  12.210   8.679 -0.2805 -0.2635  0.2870
  958loPI   C5A14315   2.442  12.261   9.110 -0.0580  0.1001 -0.2989
  958loPI   C6A14316   2.206  12.053   9.455 -0.1563 -0.1520 -0.1037
  958loPI   C1B14317   2.875  12.341   7.402  0.0781 -0.1035 -0.0359
  958loPI   C2B14318   2.866  12.316   7.895 -0.1335  0.2263 -0.0606
  958loPI   C3B14319   2.897  12.202   8.383 -0.0263 -0.1376 -0.1473
  958loPI   C4B14320   3.014  12.119   8.762  0.2395  0.0871  0.3026
  959loPI    C114321  15.644   0.470   6.165  0.0008 -0.0918 -0.3019
  959loPI    C214322  15.868   0.239   6.403  0.0480  0.1924 -0.0648
  959loPI    C314323  15.987   0.610   6.315 -0.3427  0.3594  0.0899
  959loPI   PO414324  15.403   0.362   6.304  0.1340  0.0525 -0.1596
  959loPI   GL114325  15.471   0.073   6.684  0.0554 -0.1444 -0.2296
  959loPI   GL214326  15.206  -0.146   6.749 -0.1780 -0.3937 -0.1548
  959loPI   C1A14327  15.620   0.233   7.157 -0.1800 -0.2449 -0.2436
  959loPI   C2A14328  15.571   0.274   7.589 -0.1032  0.2560  0.1027
  959loPI   C3A14329  15.583   0.268   8.018  0.0138 -0.0535 -0.1832
  959loPI   C4A14330  15.618   0.314   8.476  0.3274 -0.2035 -0.1568
  959loPI   C5A14331  15.454   0.202   8.855  0.0122  0.0948  0.2780
  959loPI   C6A14332  15.318  -0.191   9.044 -0.1736 -0.2416  0.1334
  959loPI   C1B14333  15.233  -0.122   7.168 -0.0884  0.0764 -0.0117
  959loPI   C2B14334  15.251  -0.160   7.664 -0.2080  0.0581 -0.0012
  959loPI   C3B14335  15.251  -0.119   8.090 -0.0102 -0.0854 -0.0257
  959loPI   C4B14336  15.229  -0.119   8.549 -0.1554 -0.0280 -0.2544
  960loPI    C114337   7.614   6.684   5.798  0.1235  0.0763  0.0805
  960loPI    C214338   7.684   6.425   5.501 -0.1768  0.0918 -0.0076
  960loPI    C314339   7.814   6.802   5.472 -0.1254  0.0688 -0.0779
  960loPI   PO414340   7.398   6.663   5.947 -0.1015  0.0722 -0.1017
  960loPI   GL114341   7.315   6.725   6.313 -0.2225 -0.0000 -0.3764
  960loPI   GL214342   7.446   6.447   6.456 -0.2673 -0.1032  0.0859
  960loPI   C1A14343   7.300   7.072   6.650 -0.0833 -0.3469 -0.4135
  960loPI   C2A14344   7.340   7.119   7.078  0.0607 -0.2569 -0.0050
  960loPI   C3A14345   7.229   7.044   7.465  0.1216  0.0647 -0.3447
  960loPI   C4A14346   7.223   7.115   7.908 -0.2062  0.0651  0.2501
  960loPI   C5A14347   7.247   7.208   8.318  0.3141 -0.1946  0.2045
  960loPI   C6A14348   7.139   7.162   8.696 -0.0263 -0.0486 -0.1658
  960loPI   C1B14349   7.408   6.634   6.879 -0.0512 -0.1339  0.1596
  960loPI   C2B14350   7.440   6.594   7.332  0.4145  0.1488 -0.1331
  960loPI   C3B14351   7.320   6.619   7.730  0.1092  0.0710  0.0956
  960loPI   C4B14352   7.470   6.575   8.109 -0.0980  0.1106 -0.1226
  961loPI    C114353  13.179   5.633   5.551 -0.0384 -0.3291  0.1645
  961loPI    C214354  12.983   5.305   5.432 -0.1167 -0.2137 -0.0310
  961loPI    C314355  13.134   5.557   5.161 -0.0873 -0.0693  0.1177
  961loPI   PO414356  13.323   5.580   5.854 -0.0963  0.0705  0.0792
  961loPI   GL114357  13.331   5.691   6.245 -0.2464  0.0053  0.2034
  961loPI   GL214358  13.160   5.955   6.404 -0.0247  0.2550  0.2166
  961loPI   C1A14359  13.625   5.818   6.613  0.0874 -0.0021  0.0715
  961loPI   C2A14360  13.597   5.716   6.981  0.0246  0.1833 -0.0022
  961loPI   C3A14361  13.643   5.788   7.424  0.1627  0.0373 -0.1578
  961loPI   C4A14362  13.578   5.619   7.853 -0.0695 -0.0173  0.1051
  961loPI   C5A14363  13.516   5.565   8.313  0.0438  0.0728 -0.1181
  961loPI   C6A14364  13.640   5.290   8.646 -0.1967 -0.0179 -0.0421
  961loPI   C1B14365  13.160   5.884   6.768  0.0159 -0.2929  0.1073
  961loPI   C2B14366  13.160   5.829   7.207 -0.1729 -0.2457 -0.2163
  961loPI   C3B14367  13.110   5.802   7.622  0.3014  0.1468 -0.0199
  961loPI   C4B14368  13.092   5.688   8.111  0.1766  0.2435  0.2862
  962loPI    C114369   8.591   8.923   5.962 -0.3892 -0.0966 -0.2301
  962loPI    C214370   8.707   9.235   5.740  0.1031 -0.1694 -0.0888
  962loPI    C314371   8.615   8.887   5.564 -0.1527 -0.0366 -0.2231
  962loPI   PO414372   8.778   8.988   6.171 -0.1698  0.1524 -0.0540
  962loPI   GL114373   8.959   8.800   6.547  0.1974  0.1442 -0.0814
  962loPI   GL214374   8.969   9.123   6.600 -0.1902  0.1198  0.1621
  962loPI   C1A14375   9.039   8.588   7.011  0.1044 -0.0119 -0.1406
  962loPI   C2A14376   9.050   8.662   7.420 -0.2596  0.0717 -0.0677
  962loPI   C3A14377   9.018   8.647   7.781  0.2580  0.0670 -0.0173
  962loPI   C4A14378   8.932   8.614   8.264 -0.1816 -0.2119 -0.0517
  962loPI   C5A14379   8.764   8.403   8.590 -0.0806  0.2616  0.1000
  962loPI   C6A14380   8.810   8.052   8.918  0.1056 -0.1123  0.2601
  962loPI   C1B14381   8.921   9.062   7.013  0.0052 -0.0030  0.0206
  962loPI   C2B14382   8.899   9.140   7.437 -0.2097  0.0165  0.0159
  962loPI   C3B14383   8.813   9.077   7.857  0.3036  0.0969  0.2325
  962loPI   C4B14384   8.749   9.073   8.214  0.3322  0.2917 -0.1978
  963loPI    C114385   4.085   4.275   6.032  0.0666 -0.1305 -0.0581
  963loPI    C214386   4.248   4.386   5.684 -0.1197 -0.2711 -0.1923
  963loPI    C314387   3.870   4.256   5.696 -0.1228 -0.2444  0.0675
  963loPI   PO414388   4.330   4.174   6.144 -0.1240 -0.3621  0.0640
  963loPI   GL114389   4.245   4.051   6.449 -0.2552 -0.2621 -0.2357
  963loPI   GL214390   4.566   3.770   6.552 -0.2388  0.0886 -0.1817
  963loPI   C1A14391   4.192   3.908   6.834 -0.0955  0.0182  0.0303
  963loPI   C2A14392   4.176   3.871   7.223  0.1652  0.0163 -0.0472
  963loPI   C3A14393   4.090   3.946   7.672  0.2691  0.1359 -0.1710
  963loPI   C4A14394   4.156   4.055   8.047  0.1323 -0.0662 -0.0304
  963loPI   C5A14395   4.188   4.078   8.524 -0.0506 -0.1281 -0.1012
  963loPI   C6A14396   3.908   4.221   8.826 -0.3390  0.1193  0.0225
  963loPI   C1B14397   4.699   3.825   6.996  0.0919 -0.4781  0.0369
  963loPI   C2B14398   4.651   3.843   7.466  0.2230 -0.0596  0.1474
  963loPI   C3B14399   4.696   3.901   7.838  0.1380  0.2061  0.2141
  963loPI   C4B14400   4.684   3.877   8.215  0.2818  0.1119 -0.0617
  964loPI    C114401   4.438   7.283   5.674 -0.1934  0.0020  0.1331
  964loPI    C214402   4.454   6.906   5.541 -0.1844  0.1259 -0.2282
  964loPI    C314403   4.101   7.075   5.624 -0.1774 -0.0194  0.1141
  964loPI   PO414404   4.577   7.346   5.867 -0.0331 -0.0221 -0.0575
  964loPI   GL114405   4.502   7.322   6.274 -0.1345  0.3194 -0.3349
  964loPI   GL214406   4.263   7.497   6.400  0.2380  0.1204  0.2387
  964loPI   C1A14407   4.626   7.511   6.709  0.1262 -0.1397  0.2483
  964loPI   C2A14408   4.782   7.473   7.146 -0.0271 -0.2004 -0.0869
  964loPI   C3A14409   4.671   7.447   7.632  0.3096  0.3403  0.0879
  964loPI   C4A14410   4.806   7.515   8.108  0.0216  0.0936 -0.2694
  964loPI   C5A14411   4.942   7.374   8.512  0.2166 -0.0475  0.0676
  964loPI   C6A14412   4.914   7.472   8.885  0.0280 -0.1266 -0.0027
  964loPI   C1B14413   4.170   7.759   6.820  0.1713  0.1458  0.0155
  964loPI   C2B14414   4.018   7.678   7.163  0.0843  0.0371  0.0292
  964loPI   C3B14415   4.159   7.619   7.644 -0.0991 -0.0065 -0.1635
  964loPI   C4B14416   4.233   7.574   8.126  0.0664 -0.0127 -0.1205
  965loPI    C114417   2.249   3.159   6.151 -0.2142 -0.4163  0.2386
  965loPI    C214418   2.588   3.273   6.330 -0.2822  0.1131  0.0478
  965loPI    C314419   2.577   2.932   6.122  0.0954  0.0283  0.1598
  965loPI   PO414420   2.093   3.221   6.272  0.1226 -0.0069  0.3897
  965loPI   GL114421   2.218   3.307   6.686  0.4508 -0.0472 -0.0125
  965loPI   GL214422   2.471   3.270   6.805  0.2844 -0.1942 -0.0885
  965loPI   C1A14423   1.995   3.421   7.075 -0.1495  0.1895 -0.1265
  965loPI   C2A14424   1.896   3.422   7.445  0.0518  0.0384  0.1232
  965loPI   C3A14425   1.876   3.304   7.906  0.2136 -0.3016  0.0123
  965loPI   C4A14426   1.801   3.384   8.303 -0.0310 -0.0378  0.0454
  965loPI   C5A14427   1.852   3.553   8.724 -0.1675  0.0594 -0.1631
  965loPI   C6A14428   1.705   3.479   9.095 -0.3144 -0.3603  0.0702
  965loPI   C1B14429   2.413   3.404   7.317 -0.0679 -0.0840  0.1464
  965loPI   C2B14430   2.362   3.284   7.717 -0.4332  0.1691 -0.0991
  965loPI   C3B14431   2.372   3.467   8.212 -0.1263  0.1718 -0.1221
  965loPI   C4B14432   2.419   3.501   8.698  0.0556 -0.0550 -0.1370
  966loPI    C114433  14.531   4.395   5.787  0.2314 -0.0144 -0.1453
  966loPI    C214434  14.421   4.045   5.628 -0.0722 -0.0167  0.0626
  966loPI    C314435  14.363   4.384   5.424 -0.2290 -0.0429  0.0618
  966loPI   PO414436  14.416   4.409   6.105  0.0629  0.0670  0.1050
  966loPI   GL114437  14.126   4.282   6.407 -0.0177 -0.2096  0.0202
  966loPI   GL214438  13.766   4.362   6.340  0.0897  0.2513  0.1098
  966loPI   C1A14439  14.136   4.233   6.802 -0.0116 -0.0187  0.1194
  966loPI   C2A14440  14.124   4.136   7.239  0.2190 -0.0978  0.1206
  966loPI   C3A14441  14.175   4.227   7.636  0.0776 -0.0229  0.2209
  966loPI   C4A14442  14.164   4.166   8.022 -0.3008  0.0071 -0.1550
  966loPI   C5A14443  14.346   3.978   8.326  0.2137 -0.0037 -0.1074
  966loPI   C6A14444  14.431   3.646   8.587 -0.2300 -0.0805 -0.0055
  966loPI   C1B14445  13.616   4.266   6.776 -0.0433 -0.1858 -0.0548
  966loPI   C2B14446  13.623   4.234   7.251  0.2343  0.0068 -0.0219
  966loPI   C3B14447  13.659   4.235   7.776  0.0506 -0.0030 -0.1722
  966loPI   C4B14448  13.609   4.221   8.195 -0.1193 -0.1674  0.0713
  967loPI    C114449  11.825  13.675   5.837 -0.3054 -0.3850 -0.1526
  967loPI    C214450  11.889  13.382   5.572 -0.1122 -0.2171 -0.2950
  967loPI    C314451  11.655  13.692   5.475  0.0697 -0.0869 -0.3217
  967loPI   PO414452  12.054  13.719   5.964 -0.0644 -0.0667 -0.2784
  967loPI   GL114453  12.022  13.742   6.357 -0.0660 -0.0782  0.0787
  967loPI   GL214454  12.137  13.968   6.564 -0.1217  0.3086 -0.0534
  967loPI   C1A14455  12.084  13.580   6.808 -0.0959 -0.0394  0.2176
  967loPI   C2A14456  11.976  13.591   7.258  0.4462 -0.2626  0.0829
  967loPI   C3A14457  11.934  13.542   7.723 -0.0288 -0.0142 -0.2504
  967loPI   C4A14458  11.949  13.463   8.199  0.1120 -0.1193 -0.0706
  967loPI   C5A14459  11.800  13.278   8.566 -0.0076 -0.0311 -0.2418
  967loPI   C6A14460  11.746  13.457   9.089 -0.2556 -0.1437 -0.0392
  967loPI   C1B14461  11.807  14.028   6.900 -0.0414  0.1902 -0.0049
  967loPI   C2B14462  11.767  14.039   7.308 -0.1440  0.0990 -0.2791
  967loPI   C3B14463  11.931  14.062   7.664  0.0497  0.0840  0.0146
  967loPI   C4B14464  11.820  13.918   8.076 -0.1041  0.1042  0.2818
  968loPI    C114465  14.617  11.278   6.000 -0.2384 -0.0572  0.0032
  968loPI    C214466  14.456  11.614   5.855  0.0228 -0.0071 -0.1778
  968loPI    C314467  14.289  11.261   5.771 -0.1562  0.0640 -0.1257
  968loPI   PO414468  14.686  11.329   6.288 -0.0391  0.2121  0.0582
  968loPI   GL114469  14.307  11.240   6.675 -0.1044 -0.0200  0.0166
  968loPI   GL214470  13.949  11.233   6.749 -0.0509  0.1863  0.0853
  968loPI   C1A14471  14.378  11.134   7.040  0.0466 -0.0232 -0.1976
  968loPI   C2A14472  14.251  11.285   7.447  0.2360 -0.1734 -0.1162
  968loPI   C3A14473  14.318  11.273   7.878 -0.1809  0.0967  0.1974
  968loPI   C4A14474  14.258  11.465   8.253  0.1379 -0.2411 -0.1397
  968loPI   C5A14475  14.099  11.495   8.670 -0.2339 -0.0002  0.0554
  968loPI   C6A14476  14.317  11.876   8.797 -0.2206 -0.0875 -0.2577
  968loPI   C1B14477  13.766  11.236   7.130  0.2504 -0.1363 -0.0386
  968loPI   C2B14478  13.784  11.266   7.587 -0.0862  0.1130  0.1616
  968loPI   C3B14479  13.831  11.285   8.024  0.0577 -0.0727 -0.0623
  968loPI   C4B14480  13.860  11.130   8.433  0.2201  0.0965 -0.0084
  969loPI    C114481   6.927   7.728   5.908 -0.2586  0.0621  0.0988
  969loPI    C214482   6.794   7.839   5.547  0.0308  0.0960 -0.0002
  969loPI    C314483   6.934   7.469   5.603 -0.1184  0.0549  0.1073
  969loPI   PO414484   7.100   7.940   6.024  0.1651  0.2450 -0.2526
  969loPI   GL114485   6.909   7.885   6.422  0.0012 -0.0285 -0.0666
  969loPI   GL214486   7.100   7.492   6.424  0.0308 -0.1453  0.2392
  969loPI   C1A14487   6.785   7.937   6.897  0.1395 -0.3225  0.0278
  969loPI   C2A14488   6.819   7.981   7.284 -0.0904  0.1181  0.2252
  969loPI   C3A14489   6.903   8.027   7.618  0.0662  0.2357 -0.2221
  969loPI   C4A14490   6.902   8.021   8.095 -0.0014  0.4107  0.2366
  969loPI   C5A14491   7.276   8.053   8.317  0.1138 -0.1636  0.0419
  969loPI   C6A14492   7.761   8.050   8.280  0.0094  0.3814  0.2321
  969loPI   C1B14493   7.131   7.528   6.834 -0.1530  0.2550  0.0016
  969loPI   C2B14494   7.050   7.523   7.196 -0.1291  0.1426  0.1025
  969loPI   C3B14495   7.028   7.579   7.635 -0.0814  0.0350  0.0265
  969loPI   C4B14496   6.984   7.540   8.014  0.0448  0.1206 -0.0266
  970loPI    C114497  12.543   1.417   6.045 -0.1100 -0.0248  0.1508
  970loPI    C214498  12.942   1.413   6.061 -0.0979  0.0571 -0.0847
  970loPI    C314499  12.748   1.756   5.995 -0.1975 -0.0173 -0.1809
  970loPI   PO414500  12.444   1.341   6.304  0.1179 -0.0312  0.4871
  970loPI   GL114501  12.150   1.127   6.435 -0.3234 -0.0452 -0.1918
  970loPI   GL214502  12.362   0.910   6.521 -0.3256 -0.4029  0.0314
  970loPI   C1A14503  11.922   0.909   6.791 -0.0728 -0.2804  0.0638
  970loPI   C2A14504  12.006   0.765   7.226 -0.0577  0.2180 -0.0024
  970loPI   C3A14505  11.953   0.905   7.667  0.0497 -0.0149 -0.0798
  970loPI   C4A14506  12.036   0.898   8.104  0.1559  0.0399  0.0298
  970loPI   C5A14507  11.910   0.804   8.500 -0.2650  0.0967  0.2023
  970loPI   C6A14508  12.061   0.616   8.800 -0.0129  0.1211  0.0864
  970loPI   C1B14509  12.325   1.201   6.877  0.2119  0.3998 -0.0846
  970loPI   C2B14510  12.367   1.194   7.322 -0.2623 -0.0110 -0.0057
  970loPI   C3B14511  12.368   1.257   7.760  0.0632 -0.0639 -0.1181
  970loPI   C4B14512  12.373   1.343   8.168  0.1639  0.0028  0.0884
  971loPI    C114513  16.502  12.360   6.128  0.0464  0.0031  0.0646
  971loPI    C214514  16.659  11.999   6.200 -0.2159 -0.0897  0.1850
  971loPI    C314515  16.592  12.117   5.824  0.1086 -0.0614  0.1340
  971loPI   PO414516  16.584  12.574   6.234  0.0339 -0.0712  0.1513
  971loPI   GL114517  16.602  12.712   6.593  0.2346  0.2109  0.0963
  971loPI   GL214518  16.356  12.836   6.736  0.0581 -0.0741 -0.2986
  971loPI   C1A14519  16.893  12.697   6.922  0.0623 -0.1802 -0.1256
  971loPI   C2A14520  16.964  12.752   7.256  0.3011  0.0194  0.3419
  971loPI   C3A14521  17.058  12.731   7.660  0.0043  0.5083  0.0245
  971loPI   C4A14522  17.089  12.782   8.132  0.0517 -0.1091  0.0893
  971loPI   C5A14523  17.136  13.022   8.541 -0.2487 -0.0391  0.1919
  971loPI   C6A14524  17.016  13.428   8.765  0.1077  0.4202  0.0352
  971loPI   C1B14525  16.492  12.874   7.156  0.4615  0.1858  0.1438
  971loPI   C2B14526  16.577  12.848   7.586 -0.0184  0.1738 -0.1190
  971loPI   C3B14527  16.624  12.836   7.959 -0.0545 -0.0305  0.0897
  971loPI   C4B14528  16.671  12.650   8.442 -0.1109  0.0906  0.0609
  972loPI    C114529   9.767  11.267   6.125 -0.1117  0.0141  0.0692
  972loPI    C214530   9.881  11.146   5.761 -0.1593 -0.0915  0.0887
  972loPI    C314531   9.738  11.516   5.814  0.0141 -0.0151  0.0333
  972loPI   PO414532   9.605  11.111   6.231  0.0876  0.0060  0.1658
  972loPI   GL114533   9.480  10.920   6.604 -0.0772 -0.0673 -0.0336
  972loPI   GL214534   9.742  10.685   6.779 -0.1963 -0.1043  0.2678
  972loPI   C1A14535   9.156  10.902   7.040 -0.0557  0.0172  0.0485
  972loPI   C2A14536   9.176  10.869   7.443 -0.2661  0.0594 -0.1462
  972loPI   C3A14537   9.128  10.825   7.819 -0.2158  0.2340 -0.0050
  972loPI   C4A14538   9.231  10.802   8.260 -0.0640 -0.0013  0.0615
  972loPI   C5A14539   9.258  11.074   8.669 -0.1761  0.1266  0.1647
  972loPI   C6A14540   9.325  11.558   8.707 -0.0403  0.3131  0.1047
  972loPI   C1B14541   9.850  10.551   7.199 -0.2133  0.0495 -0.3530
  972loPI   C2B14542   9.814  10.402   7.644  0.0360 -0.3994 -0.2416
  972loPI   C3B14543   9.856  10.289   8.080 -0.0783 -0.2263  0.0940
  972loPI   C4B14544   9.857  10.328   8.595  0.2299 -0.1659  0.1954
  973loPI    C114545   8.827  13.729   5.854  0.0948  0.0918 -0.0294
  973loPI    C214546   8.629  13.893   5.548  0.0794  0.1154 -0.0069
  973loPI    C314547   9.017  13.806   5.510  0.0361 -0.0443 -0.0928
  973loPI   PO414548   8.644  13.832   6.058 -0.0677 -0.1862  0.1653
  973loPI   GL114549   8.456  13.694   6.443 -0.3934 -0.0312  0.1345
  973loPI   GL214550   8.191  13.724   6.409  0.1923  0.0508  0.2199
  973loPI   C1A14551   8.589  13.466   6.834  0.0475  0.0260 -0.1394
  973loPI   C2A14552   8.494  13.536   7.319  0.2565  0.1897 -0.0931
  973loPI   C3A14553   8.594  13.595   7.737  0.2103 -0.1213  0.1554
  973loPI   C4A14554   8.573  13.666   8.017 -0.1979  0.1132 -0.3791
  973loPI   C5A14555   8.498  13.877   8.414 -0.1740  0.2087  0.0313
  973loPI   C6A14556   8.102  13.976   8.485  0.4544  0.0596  0.0534
  973loPI   C1B14557   8.123  13.836   6.721  0.2674  0.0762 -0.1311
  973loPI   C2B14558   8.167  13.743   7.058  0.3625  0.2426 -0.0123
  973loPI   C3B14559   8.192  13.799   7.567 -0.0899 -0.0475  0.1156
  973loPI   C4B14560   8.135  13.970   7.932  0.3550 -0.1606 -0.1107
  974loPI    C114561   6.475   6.077   5.741  0.0125  0.1707  0.0604
  974loPI    C214562   6.570   6.382   5.500 -0.1423  0.0420 -0.1673
  974loPI    C314563   6.337   6.085   5.366 -0.1841 -0.0610  0.1247
  974loPI   PO414564   6.444   6.148   5.916  0.0678  0.1136  0.3056
  974loPI   GL114565   6.496   6.100   6.280  0.2513  0.1828  0.0274
  974loPI   GL214566   6.317   5.809   6.460 -0.2966  0.1477  0.2274
  974loPI   C1A14567   6.571   6.237   6.732 -0.0222  0.2743 -0.0199
  974loPI   C2A14568   6.587   6.264   7.196 -0.2663  0.0306 -0.2789
  974loPI   C3A14569   6.483   6.249   7.620  0.1853 -0.1509  0.0002
  974loPI   C4A14570   6.563   6.349   7.937  0.3974 -0.0338  0.3318
  974loPI   C5A14571   6.331   6.076   8.254  0.0045  0.0782  0.0702
  974loPI   C6A14572   6.450   5.694   8.334  0.0087 -0.0497  0.0392
  974loPI   C1B14573   6.263   5.863   6.936 -0.0824 -0.1935 -0.0691
  974loPI   C2B14574   6.209   5.904   7.403  0.2886 -0.1605  0.0187
  974loPI   C3B14575   6.239   5.859   7.839 -0.0214  0.1633  0.1372
  974loPI   C4B14576   5.922   5.757   8.161  0.1538  0.0148  0.1497
  975loPI    C114577  12.410   7.970   5.842  0.0782 -0.0607  0.2082
  975loPI    C214578  12.651   8.273   5.742 -0.1756  0.0389 -0.1213
  975loPI    C314579  12.689   7.919   5.560  0.1584 -0.1539  0.3033
  975loPI   PO414580  12.418   8.020   6.095 -0.0501 -0.0746  0.3915
  975loPI   GL114581  12.326   8.018   6.397 -0.1043  0.1441 -0.0736
  975loPI   GL214582  12.147   8.322   6.571 -0.0133  0.0499 -0.0199
  975loPI   C1A14583  12.411   7.850   6.866  0.1666  0.3044  0.1686
  975loPI   C2A14584  12.446   7.714   7.322 -0.1246  0.1789  0.3699
  975loPI   C3A14585  12.419   7.773   7.826  0.2213 -0.1557 -0.3507
  975loPI   C4A14586  12.427   7.627   8.258 -0.3052  0.2714 -0.2997
  975loPI   C5A14587  12.648   7.758   8.614  0.1892  0.0361  0.0166
  975loPI   C6A14588  13.052   7.804   8.773  0.0464 -0.0104  0.1974
  975loPI   C1B14589  12.162   8.276   7.020  0.0468  0.0657  0.2912
  975loPI   C2B14590  12.190   8.251   7.445 -0.1903  0.1204 -0.3032
  975loPI   C3B14591  12.156   8.204   7.959 -0.1385 -0.0480  0.0813
  975loPI   C4B14592  12.237   8.074   8.389  0.0519  0.3510  0.1562
  976loPI    C114593  15.559   1.885   5.884  0.0147 -0.1652  0.2274
  976loPI    C214594  15.822   1.705   5.642 -0.1559 -0.2508  0.1029
  976loPI    C314595  15.482   1.519   5.741 -0.3000 -0.0278  0.0342
  976loPI   PO414596  15.666   1.963   6.138 -0.3021  0.3637  0.1032
  976loPI   GL114597  15.635   1.980   6.532 -0.4346  0.0261 -0.0536
  976loPI   GL214598  15.400   2.159   6.618 -0.1114 -0.2129 -0.2979
  976loPI   C1A14599  15.918   2.160   6.845 -0.2951  0.1859 -0.2874
  976loPI   C2A14600  15.880   2.162   7.248  0.0267  0.2030 -0.1712
  976loPI   C3A14601  15.901   2.089   7.732 -0.2560  0.0912 -0.5703
  976loPI   C4A14602  15.932   2.078   8.152  0.0085  0.2808  0.0958
  976loPI   C5A14603  15.771   2.133   8.601 -0.0095 -0.1258 -0.1747
  976loPI   C6A14604  15.976   2.062   9.018  0.2579  0.1859  0.0455
  976loPI   C1B14605  15.389   2.155   7.114 -0.3859 -0.2658  0.0114
  976loPI   C2B14606  15.378   2.127   7.595 -0.3375  0.4478  0.1349
  976loPI   C3B14607  15.465   2.107   8.016  0.0159 -0.1763 -0.2828
  976loPI   C4B14608  15.275   2.114   8.373 -0.0987  0.3522  0.1914
  977loPI    C114609   6.844   2.175   5.837 -0.3025  0.0456  0.1384
  977loPI    C214610   6.713   1.816   5.721  0.0149  0.0216 -0.1629
  977loPI    C314611   6.668   2.132   5.481  0.0152  0.1222 -0.0317
  977loPI   PO414612   6.805   2.068   6.119 -0.1409  0.2201  0.1885
  977loPI   GL114613   6.586   2.296   6.398 -0.1946 -0.1009 -0.0618
  977loPI   GL214614   6.241   2.160   6.527 -0.0980  0.1035 -0.1856
  977loPI   C1A14615   6.607   2.579   6.651 -0.2000 -0.1878 -0.2111
  977loPI   C2A14616   6.611   2.673   7.113  0.2401  0.0360  0.0162
  977loPI   C3A14617   6.591   2.610   7.549  0.1814 -0.4772 -0.4182
  977loPI   C4A14618   6.605   2.731   7.944 -0.0864  0.1646  0.3206
  977loPI   C5A14619   6.694   2.866   8.402  0.0334  0.0906 -0.0568
  977loPI   C6A14620   6.655   2.928   8.861  0.0351 -0.1111 -0.0982
  977loPI   C1B14621   6.283   2.280   6.939 -0.1261 -0.5614 -0.1722
  977loPI   C2B14622   6.312   2.294   7.324 -0.2014  0.0144  0.0416
  977loPI   C3B14623   6.280   2.235   7.759 -0.0369 -0.0206  0.0383
  977loPI   C4B14624   6.313   2.007   8.027 -0.0105 -0.4177 -0.0388
  978loPI    C114625  10.868  13.646   6.090 -0.1075  0.2463 -0.0339
  978loPI    C214626  10.962  13.338   5.852  0.0343  0.1824  0.1036
  978loPI    C314627  10.785  13.662   5.699  0.2641  0.2062 -0.1181
  978loPI   PO414628  10.993  13.456   6.295  0.0381  0.0636 -0.0752
  978loPI   GL114629  10.826  13.308   6.733 -0.0447  0.1008  0.0949
  978loPI   GL214630  11.098  13.184   6.752 -0.1305 -0.1466 -0.0200
  978loPI   C1A14631  10.960  13.652   7.072 -0.0359 -0.0472 -0.1875
  978loPI   C2A14632  10.949  13.751   7.470 -0.1355  0.2111  0.0373
  978loPI   C3A14633  10.953  13.727   7.932 -0.0367 -0.1740 -0.1196
  978loPI   C4A14634  10.928  13.574   8.371 -0.0253 -0.1062  0.0884
  978loPI   C5A14635  11.260  13.379   8.707 -0.2172 -0.1071  0.0257
  978loPI   C6A14636  11.368  13.032   8.926  0.0728 -0.1729 -0.2187
  978loPI   C1B14637  11.198  13.254   7.147  0.0202  0.1178  0.1042
  978loPI   C2B14638  11.064  13.187   7.620  0.0106 -0.0001 -0.2511
  978loPI   C3B14639  10.982  13.245   8.044 -0.2441 -0.0775  0.1362
  978loPI   C4B14640  10.954  13.104   8.461  0.0245  0.1842  0.1480
  979loPI    C114641   2.676  10.940   6.572 -0.2019 -0.0002  0.0435
  979loPI    C214642   2.393  10.940   6.290 -0.0542 -0.1058 -0.1065
  979loPI    C314643   2.733  10.737   6.232  0.0653  0.0448  0.0591
  979loPI   PO414644   2.748  11.239   6.615 -0.1971  0.2492 -0.0297
  979loPI   GL114645   2.871  11.461   6.975  0.3123 -0.0192  0.2977
  979loPI   GL214646   3.191  11.274   6.878  0.1355  0.2764 -0.0105
  979loPI   C1A14647   2.870  11.047   7.236  0.0278 -0.0234  0.2568
  979loPI   C2A14648   2.996  11.061   7.668  0.0639 -0.1090  0.0510
  979loPI   C3A14649   2.922  10.886   8.006 -0.0005 -0.1171  0.1742
  979loPI   C4A14650   3.006  10.907   8.380  0.0458 -0.2489  0.1549
  979loPI   C5A14651   3.126  10.899   8.784  0.0095  0.1661 -0.3556
  979loPI   C6A14652   3.535  11.060   9.036  0.0060  0.1218 -0.2133
  979loPI   C1B14653   3.177  11.443   7.317 -0.0499  0.0358 -0.3254
  979loPI   C2B14654   3.304  11.520   7.711  0.2193  0.2158  0.2678
  979loPI   C3B14655   3.487  11.702   8.123 -0.0220 -0.0061  0.0632
  979loPI   C4B14656   3.389  11.836   8.489 -0.1116  0.0688  0.0170
  980loPI    C114657   9.442  10.359   5.940  0.0540 -0.1038 -0.0106
  980loPI    C214658   9.129  10.113   5.973 -0.0847  0.0847  0.0931
  980loPI    C314659   9.138  10.386   5.682  0.0375  0.0035  0.0199
  980loPI   PO414660   9.624  10.159   6.077 -0.0124  0.1496  0.0834
  980loPI   GL114661   9.797  10.089   6.448  0.1828  0.3531  0.1574
  980loPI   GL214662  10.102   9.812   6.579 -0.1856 -0.2619  0.1074
  980loPI   C1A14663   9.632  10.129   6.832 -0.2395 -0.0827 -0.0026
  980loPI   C2A14664   9.515   9.913   7.261 -0.0244  0.0745  0.0512
  980loPI   C3A14665   9.636   9.954   7.624 -0.2364  0.1089  0.3268
  980loPI   C4A14666   9.468   9.855   8.011 -0.1951 -0.1151 -0.3000
  980loPI   C5A14667   9.254   9.729   8.420 -0.0522 -0.0162  0.0719
  980loPI   C6A14668   9.226   9.664   8.828 -0.0862  0.0844  0.0343
  980loPI   C1B14669   9.857   9.729   6.979 -0.1486 -0.3956  0.4599
  980loPI   C2B14670   9.696   9.439   7.304 -0.1062 -0.2246 -0.1902
  980loPI   C3B14671   9.663   9.488   7.714 -0.1062  0.0180 -0.0759
  980loPI   C4B14672   9.713   9.460   8.153 -0.1227 -0.0847 -0.0207
  981loPI    C114673   9.535  15.158   6.022  0.0264 -0.0009  0.1773
  981loPI    C214674   9.799  15.123   5.723  0.0473  0.0919  0.1847
  981loPI    C314675   9.508  15.397   5.702 -0.0748 -0.0387  0.1571
  981loPI   PO414676   9.653  15.216   6.210 -0.1179  0.1177 -0.2420
  981loPI   GL114677   9.646  15.188   6.633  0.0517  0.0782 -0.0347
  981loPI   GL214678   9.764  15.490   6.596  0.0042 -0.3490  0.1095
  981loPI   C1A14679   9.593  14.990   7.069  0.2633 -0.0625 -0.2360
  981loPI   C2A14680   9.531  15.036   7.478  0.0447  0.0728  0.0762
  981loPI   C3A14681   9.539  15.124   7.850  0.2599 -0.1307  0.1739
  981loPI   C4A14682   9.729  15.169   8.233 -0.1035 -0.1796  0.2428
  981loPI   C5A14683  10.010  15.100   8.582  0.1904 -0.3741 -0.2285
  981loPI   C6A14684  10.225  15.377   8.761 -0.0544 -0.0018  0.0960
  981loPI   C1B14685   9.718  15.505   7.062 -0.2029 -0.0006  0.1020
  981loPI   C2B14686   9.753  15.649   7.473  0.1796 -0.1923  0.3152
  981loPI   C3B14687   9.761  15.692   7.938 -0.4670  0.0293 -0.0311
  981loPI   C4B14688   9.696  15.753   8.348  0.4160 -0.0576 -0.0282
  982loPI    C114689   2.939   6.732   5.554  0.0188  0.2525  0.0310
  982loPI    C214690   3.014   6.616   5.178 -0.0579  0.0534  0.0755
  982loPI    C314691   2.994   7.006   5.268 -0.1092  0.1018 -0.1405
  982loPI   PO414692   3.011   6.645   5.751 -0.2977  0.1996 -0.1175
  982loPI   GL114693   2.900   6.526   6.118 -0.1267  0.2136 -0.1360
  982loPI   GL214694   2.702   6.804   6.311  0.0309  0.0901 -0.0836
  982loPI   C1A14695   2.977   6.414   6.503  0.0664 -0.1470  0.1040
  982loPI   C2A14696   3.112   6.409   6.900  0.4705  0.4037  0.0985
  982loPI   C3A14697   3.271   6.437   7.301  0.0141 -0.0060 -0.0424
  982loPI   C4A14698   3.254   6.427   7.742  0.0882  0.1657  0.2159
  982loPI   C5A14699   3.131   6.394   8.208  0.1436  0.1837  0.0196
  982loPI   C6A14700   3.017   6.500   8.610  0.1545 -0.0948  0.1188
  982loPI   C1B14701   2.890   6.842   6.745 -0.0329 -0.2856  0.2356
  982loPI   C2B14702   2.970   6.982   7.186 -0.0151  0.3150  0.0171
  982loPI   C3B14703   2.975   6.838   7.520 -0.1058 -0.1789  0.3407
  982loPI   C4B14704   3.044   6.852   7.913 -0.1170 -0.0438 -0.3081
  983loPI    C114705  11.358  13.024   6.019  0.1681 -0.3683 -0.0419
  983loPI    C214706  11.434  13.361   5.819  0.1712 -0.2190  0.2062
  983loPI    C314707  11.463  13.008   5.634 -0.0949 -0.0710 -0.1303
  983loPI   PO414708  11.412  13.136   6.320  0.2082  0.1162  0.0058
  983loPI   GL114709  11.606  13.323   6.676 -0.3081 -0.2815  0.1083
  983loPI   GL214710  11.697  12.965   6.760 -0.0239  0.1090 -0.2570
  983loPI   C1A14711  11.528  13.632   6.973 -0.1855 -0.1805 -0.2380
  983loPI   C2A14712  11.470  13.693   7.487 -0.1718 -0.2485  0.1284
  983loPI   C3A14713  11.403  13.486   7.840 -0.2314  0.1805  0.0259
  983loPI   C4A14714  11.454  13.479   8.270  0.1670 -0.1151  0.2764
  983loPI   C5A14715  11.614  13.811   8.589  0.2354 -0.2642  0.0385
  983loPI   C6A14716  11.484  14.252   8.806 -0.1328 -0.1300 -0.0333
  983loPI   C1B14717  11.692  13.134   7.121  0.0502 -0.2894 -0.2035
  983loPI   C2B14718  11.579  13.190   7.518  0.1012 -0.2012 -0.3508
  983loPI   C3B14719  11.647  13.106   7.947  0.0962 -0.0534  0.2506
  983loPI   C4B14720  11.485  12.868   8.359  0.0661 -0.1849  0.0070
  984loPI    C114721   8.128   9.380   5.957 -0.0724 -0.0021 -0.1051
  984loPI    C214722   8.195   9.251   5.584  0.0389 -0.0650 -0.0638
  984loPI    C314723   7.942   9.554   5.649  0.1794  0.0859 -0.2100
  984loPI   PO414724   8.158   9.177   6.047  0.1341 -0.1107 -0.2209
  984loPI   GL114725   8.289   9.012   6.396 -0.1004  0.0911  0.0210
  984loPI   GL214726   8.451   9.191   6.575  0.3373  0.2190  0.0193
  984loPI   C1A14727   8.073   8.752   6.615 -0.0868  0.0388 -0.0668
  984loPI   C2A14728   8.087   8.678   6.992 -0.0238 -0.0832  0.0966
  984loPI   C3A14729   8.005   8.795   7.407  0.1017 -0.1255  0.1529
  984loPI   C4A14730   8.066   8.789   7.781  0.3012 -0.2351  0.1655
  984loPI   C5A14731   7.938   8.725   8.125  0.3387 -0.0073 -0.2125
  984loPI   C6A14732   7.891   8.906   8.568  0.0647  0.2002  0.2785
  984loPI   C1B14733   8.443   9.114   7.043 -0.2592  0.0743  0.2103
  984loPI   C2B14734   8.392   9.151   7.455  0.2514  0.0521 -0.0142
  984loPI   C3B14735   8.319   9.197   7.902  0.0165 -0.4091  0.0492
  984loPI   C4B14736   8.190   9.268   8.335 -0.1881  0.1121 -0.0727
  985loPI    C114737  14.891   7.777   6.088 -0.5201  0.1612  0.0272
  985loPI    C214738  14.717   8.130   6.017 -0.4054  0.1595 -0.2759
  985loPI    C314739  14.788   7.878   5.714 -0.1047  0.0541 -0.1213
  985loPI   PO414740  14.925   7.746   6.282 -0.0569 -0.2330 -0.1447
  985loPI   GL114741  14.680   7.493   6.500 -0.0272 -0.1588 -0.2658
  985loPI   GL214742  14.620   7.760   6.704 -0.0171  0.2785 -0.1841
  985loPI   C1A14743  14.929   7.408   7.000  0.1026 -0.1751 -0.0507
  985loPI   C2A14744  14.925   7.432   7.352 -0.1570  0.0731  0.1802
  985loPI   C3A14745  14.902   7.360   7.753  0.0344  0.0740  0.1703
  985loPI   C4A14746  14.864   7.317   8.174  0.2429 -0.1489 -0.1725
  985loPI   C5A14747  14.821   7.092   8.545  0.0905 -0.0675  0.1737
  985loPI   C6A14748  14.905   6.759   8.794 -0.3959 -0.2011 -0.3035
  985loPI   C1B14749  14.734   7.936   7.127  0.1373  0.0291 -0.3228
  985loPI   C2B14750  14.680   7.821   7.605  0.1637 -0.0835 -0.1143
  985loPI   C3B14751  14.675   7.868   8.032  0.0341 -0.0764  0.0089
  985loPI   C4B14752  14.744   7.859   8.446 -0.0636 -0.1130  0.0093
  986loPI    C114753   9.143  17.060   6.031 -0.0181 -0.3833  0.0333
  986loPI    C214754   9.500  17.040   5.853 -0.0347 -0.0198 -0.0481
  986loPI    C314755   9.170  17.092   5.634 -0.0705  0.2809  0.0714
  986loPI   PO414756   9.078  16.955   6.253 -0.4147 -0.1346 -0.0490
  986loPI   GL114757   9.244  16.846   6.607 -0.0607 -0.0344 -0.2184
  986loPI   GL214758   8.952  16.661   6.710  0.0914  0.0713  0.1611
  986loPI   C1A14759   9.351  16.858   6.952 -0.0921  0.1426 -0.1638
  986loPI   C2A14760   9.359  16.932   7.371  0.1257 -0.0927 -0.3137
  986loPI   C3A14761   9.424  16.960   7.849  0.2712 -0.0305  0.1279
  986loPI   C4A14762   9.477  16.849   8.256 -0.2580  0.1297  0.2935
  986loPI   C5A14763   9.400  16.625   8.654  0.0146 -0.0800  0.0470
  986loPI   C6A14764   9.541  16.223   8.830 -0.1777  0.2178  0.2437
  986loPI   C1B14765   8.855  16.760   7.162  0.1801 -0.1230  0.0404
  986loPI   C2B14766   8.952  16.720   7.555 -0.0259 -0.1266  0.1299
  986loPI   C3B14767   8.941  16.787   7.977 -0.0703  0.3010 -0.1764
  986loPI   C4B14768   8.977  16.926   8.362  0.2257 -0.1098  0.0748
  987loPI    C114769  10.628  14.196   6.149  0.1985 -0.0041 -0.0140
  987loPI    C214770  10.446  13.853   6.053  0.0422  0.0344  0.1390
  987loPI    C314771  10.486  14.142   5.779 -0.1217  0.0226  0.1019
  987loPI   PO414772  10.743  14.044   6.373 -0.1111  0.0842 -0.1136
  987loPI   GL114773  10.627  14.010   6.802 -0.1946  0.1747  0.3871
  987loPI   GL214774  10.429  13.805   6.945  0.0186  0.0433  0.1053
  987loPI   C1A14775  10.798  14.223   7.126 -0.0929  0.1802 -0.1577
  987loPI   C2A14776  10.797  14.302   7.511 -0.1399 -0.1172 -0.0952
  987loPI   C3A14777  10.713  14.263   7.892 -0.0047 -0.0654  0.1740
  987loPI   C4A14778  10.944  14.363   8.203 -0.3302 -0.1983 -0.2218
  987loPI   C5A14779  11.009  14.541   8.577 -0.1433  0.2560 -0.0144
  987loPI   C6A14780  11.049  14.475   9.011  0.2427 -0.2996  0.2176
  987loPI   C1B14781  10.430  13.754   7.323 -0.2432 -0.4756 -0.0190
  987loPI   C2B14782  10.454  13.834   7.738  0.3001  0.0024  0.2084
  987loPI   C3B14783  10.565  13.925   8.207 -0.1849 -0.2362  0.0926
  987loPI   C4B14784  10.581  14.189   8.599  0.1112 -0.0399 -0.1081
  988loPI    C114785   0.989   6.513   6.180 -0.0764  0.2424 -0.0362
  988loPI    C214786   0.852   6.426   5.815  0.0051 -0.1884  0.0303
  988loPI    C314787   0.868   6.807   5.937 -0.0101 -0.0379 -0.4172
  988loPI   PO414788   1.174   6.335   6.260  0.1053  0.0365  0.2213
  988loPI   GL114789   1.219   6.073   6.615 -0.0192  0.0456  0.2387
  988loPI   GL214790   0.952   5.973   6.524 -0.0660 -0.0123  0.0738
  988loPI   C1A14791   1.545   5.882   6.855  0.0692 -0.1083  0.1206
  988loPI   C2A14792   1.521   5.724   7.278  0.0478  0.0383 -0.2534
  988loPI   C3A14793   1.404   5.689   7.698  0.0472 -0.0206 -0.0549
  988loPI   C4A14794   1.462   5.776   8.132 -0.0886 -0.0763  0.0951
  988loPI   C5A14795   1.721   5.950   8.438 -0.3702 -0.0428  0.2941
  988loPI   C6A14796   1.673   5.989   8.898 -0.2104 -0.0830  0.1934
  988loPI   C1B14797   1.007   5.911   7.065 -0.0591  0.2054 -0.1082
  988loPI   C2B14798   0.993   5.878   7.441  0.2208 -0.1403  0.2049
  988loPI   C3B14799   0.995   5.864   7.905  0.1653  0.3705 -0.0399
  988loPI   C4B14800   0.975   5.929   8.256  0.0384 -0.1484 -0.0163
  989loPI    C114801  13.215  13.591   6.194 -0.0962  0.1111 -0.1463
  989loPI    C214802  12.857  13.445   6.298 -0.0407 -0.1134 -0.2651
  989loPI    C314803  12.921  13.568   5.923 -0.0083 -0.0272 -0.2313
  989loPI   PO414804  13.317  13.783   6.339  0.0622  0.4780 -0.2849
  989loPI   GL114805  13.412  13.629   6.711 -0.1167 -0.0099 -0.0438
  989loPI   GL214806  13.765  13.606   6.769  0.3072 -0.1364 -0.1379
  989loPI   C1A14807  13.319  13.751   7.126 -0.2199 -0.3376 -0.2713
  989loPI   C2A14808  13.383  13.747   7.553  0.3635 -0.0757  0.2502
  989loPI   C3A14809  13.345  13.756   8.073 -0.1095 -0.0469  0.0206
  989loPI   C4A14810  13.500  13.854   8.468  0.1013  0.1914 -0.1347
  989loPI   C5A14811  13.267  14.155   8.791  0.2320  0.2177 -0.3415
  989loPI   C6A14812  13.250  14.577   8.872  0.1167 -0.2689 -0.1047
  989loPI   C1B14813  13.791  13.612   7.285  0.2228 -0.0178  0.1721
  989loPI   C2B14814  13.797  13.583   7.788  0.0977 -0.0502  0.1657
  989loPI   C3B14815  13.881  13.629   8.250  0.3133  0.0832  0.0660
  989loPI   C4B14816  14.081  13.633   8.584 -0.2079 -0.0338  0.0513
  990loPI    C114817   1.440   3.902   5.878 -0.1963  0.0652 -0.2521
  990loPI    C214818   1.668   4.133   5.645 -0.2504  0.0732 -0.2974
  990loPI    C314819   1.602   3.752   5.544  0.2970 -0.1293  0.0647
  990loPI   PO414820   1.590   3.947   6.189  0.1595  0.0099  0.1655
  990loPI   GL114821   1.618   4.032   6.606  0.1065  0.2042  0.0088
  990loPI   GL214822   1.655   4.299   6.608 -0.0600 -0.0628 -0.2439
  990loPI   C1A14823   1.726   3.927   7.152 -0.0985  0.2196  0.1036
  990loPI   C2A14824   1.795   3.893   7.548 -0.3083 -0.0342 -0.0724
  990loPI   C3A14825   1.710   3.836   7.969  0.1147 -0.1919 -0.3398
  990loPI   C4A14826   1.777   3.946   8.393 -0.2369  0.2468 -0.0291
  990loPI   C5A14827   1.779   4.102   8.723  0.2552  0.1571  0.0437
  990loPI   C6A14828   1.772   4.405   9.036  0.2600 -0.1062 -0.0978
  990loPI   C1B14829   1.531   4.373   7.096 -0.1986 -0.1740  0.0981
  990loPI   C2B14830   1.573   4.368   7.562  0.0156  0.0815 -0.1319
  990loPI   C3B14831   1.514   4.295   8.011  0.1385 -0.3861  0.2003
  990loPI   C4B14832   1.593   4.413   8.431 -0.1441  0.1034  0.0512
  991loPI    C114833  12.341  15.856   5.978  0.2354 -0.3089  0.0208
  991loPI    C214834  12.198  15.851   5.604  0.0884 -0.0513  0.0712
  991loPI    C314835  12.539  16.043   5.685  0.0460  0.0142  0.0945
  991loPI   PO414836  12.086  15.812   6.159  0.1884 -0.0817  0.1686
  991loPI   GL114837  12.027  15.956   6.523 -0.2240  0.0845  0.1482
  991loPI   GL214838  12.181  16.332   6.501  0.0328 -0.0187 -0.0001
  991loPI   C1A14839  11.786  15.819   6.805 -0.1405  0.0968  0.0111
  991loPI   C2A14840  11.782  15.849   7.219  0.1919 -0.0497  0.1588
  991loPI   C3A14841  11.730  15.953   7.593 -0.0942 -0.0885  0.0373
  991loPI   C4A14842  11.837  15.935   8.024  0.1564 -0.0299  0.0536
  991loPI   C5A14843  12.022  15.817   8.373 -0.1657  0.1256  0.1043
  991loPI   C6A14844  11.975  15.599   8.670  0.0588 -0.1249 -0.1887
  991loPI   C1B14845  12.117  16.172   6.959  0.1764  0.1197  0.0794
  991loPI   C2B14846  12.084  16.258   7.388  0.1155 -0.0958 -0.2705
  991loPI   C3B14847  12.089  16.335   7.763 -0.0836  0.3280 -0.1596
  991loPI   C4B14848  12.264  16.264   8.079  0.0420  0.1365 -0.4484
  992loPI    C114849  15.676   5.754   5.977  0.0094 -0.0553 -0.0522
  992loPI    C214850  16.024   5.881   5.827  0.0631  0.0091  0.1252
  992loPI    C314851  15.723   5.789   5.581  0.1681  0.0609 -0.0240
  992loPI   PO414852  15.695   5.855   6.288 -0.1440 -0.1502 -0.0210
  992loPI   GL114853  15.755   5.798   6.657  0.1906  0.0154 -0.0928
  992loPI   GL214854  15.483   5.671   6.694  0.2480 -0.0113 -0.1136
  992loPI   C1A14855  15.932   5.707   7.082 -0.0544 -0.2778  0.1169
  992loPI   C2A14856  15.917   5.638   7.511 -0.0232  0.1113 -0.0242
  992loPI   C3A14857  15.924   5.738   7.866  0.2777  0.0606  0.3595
  992loPI   C4A14858  15.982   5.646   8.306 -0.1364 -0.2022  0.3019
  992loPI   C5A14859  16.134   5.842   8.697  0.1487  0.0492  0.3766
  992loPI   C6A14860  16.254   6.281   8.820  0.0923  0.0590  0.2036
  992loPI   C1B14861  15.448   5.678   7.199  0.0225  0.1634  0.0985
  992loPI   C2B14862  15.418   5.783   7.677  0.2439 -0.1383 -0.1597
  992loPI   C3B14863  15.461   5.723   8.085 -0.1787  0.1504 -0.1727
  992loPI   C4B14864  15.460   5.799   8.563 -0.2075 -0.0284 -0.2728
  993loPI    C114865  14.198  14.890   6.234  0.1541  0.0003 -0.2097
  993loPI    C214866  13.823  14.964   6.353  0.1642 -0.1082 -0.1079
  993loPI    C314867  13.935  15.049   5.978  0.0132 -0.1567 -0.1646
  993loPI   PO414868  14.370  15.026   6.470 -0.2023 -0.1181 -0.3097
  993loPI   GL114869  14.467  14.887   6.795  0.0369  0.1810  0.0830
  993loPI   GL214870  14.672  14.712   6.846  0.0111  0.0117 -0.0392
  993loPI   C1A14871  14.597  15.139   7.187  0.1939 -0.0190 -0.0059
  993loPI   C2A14872  14.672  15.079   7.614 -0.0868 -0.0590  0.1499
  993loPI   C3A14873  14.729  14.876   8.080 -0.2812  0.0112 -0.4490
  993loPI   C4A14874  14.856  14.971   8.480 -0.1203 -0.0776  0.3299
  993loPI   C5A14875  14.666  15.428   8.643 -0.0617  0.0160 -0.1764
  993loPI   C6A14876  14.874  15.784   8.815 -0.0675 -0.0739  0.0982
  993loPI   C1B14877  14.585  14.571   7.237  0.1120 -0.0918  0.1245
  993loPI   C2B14878  14.564  14.515   7.641  0.0792 -0.0410 -0.2018
  993loPI   C3B14879  14.462  14.410   8.087 -0.2517 -0.0024  0.0321
  993loPI   C4B14880  14.428  14.643   8.474 -0.0593 -0.0488  0.1283
  994loPI    C114881  13.475  14.572   5.989  0.0553 -0.0824 -0.1794
  994loPI    C214882  13.461  14.191   6.109 -0.2286 -0.0662 -0.1535
  994loPI    C314883  13.582  14.280   5.738  0.2626 -0.1459 -0.0193
  994loPI   PO414884  13.526  14.679   6.065 -0.0994  0.1568 -0.2339
  994loPI   GL114885  13.419  14.619   6.479 -0.0035 -0.0093 -0.0435
  994loPI   GL214886  13.326  14.235   6.567 -0.1913  0.2159 -0.0455
  994loPI   C1A14887  13.157  14.780   6.852 -0.2024  0.1924 -0.1188
  994loPI   C2A14888  13.036  14.710   7.276  0.1239 -0.0123  0.2600
  994loPI   C3A14889  13.073  14.676   7.673  0.1520  0.1280 -0.1404
  994loPI   C4A14890  12.983  14.667   8.082 -0.2895  0.2363  0.1452
  994loPI   C5A14891  12.907  14.616   8.481  0.0334  0.1377  0.5951
  994loPI   C6A14892  12.733  14.246   8.725  0.2055  0.1836 -0.1245
  994loPI   C1B14893  13.211  14.293   6.962  0.1784  0.0534  0.0535
  994loPI   C2B14894  13.228  14.245   7.464 -0.0155  0.0726  0.1158
  994loPI   C3B14895  13.114  14.199   7.839 -0.1436  0.1483  0.0202
  994loPI   C4B14896  13.179  14.193   8.279  0.2664 -0.0800  0.1474
  995loPI    C114897  14.716  12.227   6.272 -0.2200  0.0811 -0.0722
  995loPI    C214898  14.795  11.893   6.067  0.1135  0.0361  0.1225
  995loPI    C314899  14.884  12.250   5.909  0.0457  0.0187  0.0443
  995loPI   PO414900  14.790  12.095   6.540  0.0142 -0.3511  0.0854
  995loPI   GL114901  14.796  11.995   6.929  0.2856 -0.2134  0.0320
  995loPI   GL214902  14.574  11.693   6.811 -0.0611  0.0255 -0.0681
  995loPI   C1A14903  14.967  11.897   7.226  0.1821 -0.3367 -0.0731
  995loPI   C2A14904  15.018  11.949   7.650  0.0927  0.3245 -0.1438
  995loPI   C3A14905  14.956  12.158   8.079 -0.0759 -0.2799  0.1033
  995loPI   C4A14906  15.058  12.105   8.518  0.3791  0.0085 -0.0626
  995loPI   C5A14907  15.271  12.325   8.833 -0.1996 -0.2825 -0.0247
  995loPI   C6A14908  15.036  12.495   9.071 -0.1450  0.1197 -0.1474
  995loPI   C1B14909  14.525  11.697   7.243 -0.3675 -0.2685  0.0555
  995loPI   C2B14910  14.523  11.686   7.676  0.0068  0.1058 -0.2691
  995loPI   C3B14911  14.702  11.691   7.976  0.0853 -0.2142  0.0423
  995loPI   C4B14912  14.700  11.700   8.492 -0.1122  0.2624  0.0377
  996loPI    C114913   1.655  12.209   6.437  0.1208 -0.1486 -0.1380
  996loPI    C214914   1.627  12.499   6.162 -0.1284 -0.2477 -0.2204
  996loPI    C314915   1.392  12.176   6.137 -0.3316 -0.1442  0.2461
  996loPI   PO414916   1.592  12.221   6.650  0.1061  0.0921 -0.0411
  996loPI   GL114917   1.650  12.109   7.027 -0.0518  0.1138  0.1201
  996loPI   GL214918   1.487  11.820   6.934  0.0528 -0.0626  0.3430
  996loPI   C1A14919   1.612  12.152   7.391 -0.2183  0.0252 -0.0999
  996loPI   C2A14920   1.599  12.112   7.804 -0.3600 -0.0047 -0.0643
  996loPI   C3A14921   1.808  12.205   8.223 -0.1316  0.0606  0.3288
  996loPI   C4A14922   1.861  12.478   8.545 -0.1524 -0.1173  0.1405
  996loPI   C5A14923   1.528  12.524   8.829 -0.0077 -0.0541 -0.3091
  996loPI   C6A14924   1.248  12.703   9.078  0.5436 -0.0757  0.3977
  996loPI   C1B14925   1.509  11.587   7.297 -0.0338  0.2802 -0.1874
  996loPI   C2B14926   1.520  11.542   7.699 -0.1029 -0.3027 -0.1949
  996loPI   C3B14927   1.649  11.339   8.093 -0.0095  0.2808 -0.0162
  996loPI   C4B14928   1.965  11.284   8.379  0.1621  0.3159 -0.1266
  997loPI    C114929  13.674  12.815   6.193 -0.0515 -0.0136  0.0290
  997loPI    C214930  13.863  13.031   5.914 -0.0589  0.1326  0.1364
  997loPI    C314931  13.651  12.710   5.808  0.2012  0.0003  0.0083
  997loPI   PO414932  13.859  12.729   6.381 -0.0460 -0.1524 -0.1368
  997loPI   GL114933  13.790  12.653   6.810 -0.0751 -0.0046  0.1024
  997loPI   GL214934  14.071  12.589   6.855 -0.1467  0.0278 -0.1116
  997loPI   C1A14935  13.692  12.653   7.287 -0.2488 -0.2526  0.0132
  997loPI   C2A14936  13.659  12.629   7.751 -0.1526 -0.1089 -0.3959
  997loPI   C3A14937  13.697  12.712   8.130  0.1239  0.0057 -0.0444
  997loPI   C4A14938  13.773  12.812   8.569 -0.1152  0.0012 -0.2142
  997loPI   C5A14939  13.696  12.949   8.975 -0.3109 -0.0725  0.2924
  997loPI   C6A14940  13.304  13.139   9.184  0.0152 -0.0543  0.0152
  997loPI   C1B14941  14.191  12.622   7.253 -0.2253  0.0763 -0.1031
  997loPI   C2B14942  14.211  12.729   7.725 -0.0019 -0.2195 -0.3567
  997loPI   C3B14943  14.307  12.757   8.100  0.0825 -0.0636  0.2732
  997loPI   C4B14944  14.289  12.815   8.579 -0.0477 -0.0097 -0.1207
  998loPI    C114945   1.456   9.159   5.948 -0.0933 -0.0451 -0.0599
  998loPI    C214946   1.720   9.367   5.731 -0.0647  0.0065  0.0238
  998loPI    C314947   1.396   9.212   5.556 -0.1575  0.2384 -0.0143
  998loPI   PO414948   1.354   9.324   6.088 -0.0033 -0.0464  0.1890
  998loPI   GL114949   1.386   9.515   6.549  0.1764  0.0134 -0.2932
  998loPI   GL214950   1.450   9.193   6.589 -0.2337  0.2360 -0.1725
  998loPI   C1A14951   1.522   9.549   6.958  0.0936 -0.0935 -0.2685
  998loPI   C2A14952   1.472   9.493   7.380  0.1304  0.1243 -0.0786
  998loPI   C3A14953   1.644   9.472   7.839  0.2477  0.2617 -0.1755
  998loPI   C4A14954   1.594   9.447   8.325  0.1803  0.0226 -0.0825
  998loPI   C5A14955   1.610   9.263   8.731  0.2309  0.2677 -0.2582
  998loPI   C6A14956   1.528   9.134   9.195 -0.0956 -0.1817 -0.0862
  998loPI   C1B14957   1.744   9.026   7.093 -0.2522  0.2470 -0.0228
  998loPI   C2B14958   1.749   8.958   7.561 -0.3871  0.2308  0.0033
  998loPI   C3B14959   1.714   8.952   7.968 -0.2911  0.1564  0.3264
  998loPI   C4B14960   1.783   8.925   8.435 -0.1754  0.0494  0.0587
  999loPI    C114961  10.017   1.520   5.750 -0.2045 -0.0060  0.0131
  999loPI    C214962   9.795   1.596   5.427  0.1947  0.3280 -0.1929
  999loPI    C314963  10.096   1.334   5.405  0.1207  0.2292 -0.0437
  999loPI   PO414964  10.015   1.743   5.941  0.0972 -0.1467  0.2179
  999loPI   GL114965  10.025   1.868   6.363 -0.0736 -0.2104 -0.1868
  999loPI   GL214966   9.905   1.747   6.523 -0.0707 -0.0468 -0.1708
  999loPI   C1A14967  10.008   2.136   6.771 -0.2172 -0.0803  0.0616
  999loPI   C2A14968  10.098   2.147   7.197 -0.0508 -0.0270 -0.0295
  999loPI   C3A14969  10.134   2.230   7.654  0.0882  0.3920  0.1881
  999loPI   C4A14970  10.246   2.267   8.032 -0.0800 -0.2644 -0.0499
  999loPI   C5A14971  10.363   2.241   8.472  0.0950 -0.0423  0.0424
  999loPI   C6A14972  10.516   2.368   8.840 -0.1505  0.1160  0.0853
  999loPI   C1B14973   9.824   1.700   6.933 -0.1487  0.1300  0.0752
  999loPI   C2B14974   9.757   1.752   7.336 -0.1945 -0.2909  0.1638
  999loPI   C3B14975   9.834   1.851   7.796 -0.1160  0.0473  0.0319
  999loPI   C4B14976   9.688   1.793   8.180  0.2776  0.0646 -0.0051
 1000loPI    C114977  16.986   9.052   6.117 -0.0833 -0.1226 -0.0651
 1000loPI    C214978  16.629   9.002   6.290 -0.1130 -0.0046 -0.0916
 1000loPI    C314979  16.651   9.106   5.904 -0.0547  0.2461 -0.0224
 1000loPI   PO414980  17.090   8.785   6.174 -0.1050  0.0546  0.2655
 1000loPI   GL114981  17.064   8.551   6.524  0.2455 -0.0684 -0.2754
 1000loPI   GL214982  17.378   8.648   6.663  0.0876 -0.2188  0.1734
 1000loPI   C1A14983  16.885   8.602   6.918 -0.1854 -0.3903  0.0054
 1000loPI   C2A14984  16.912   8.591   7.337 -0.0714  0.0900 -0.1341
 1000loPI   C3A14985  16.898   8.503   7.798 -0.0722  0.0552 -0.0788
 1000loPI   C4A14986  16.886   8.356   8.217  0.0738 -0.1052 -0.0286
 1000loPI   C5A14987  16.888   8.063   8.523 -0.0066  0.1577 -0.0682
 1000loPI   C6A14988  17.333   7.721   8.551 -0.2554  0.2224  0.1039
 1000loPI   C1B14989  17.373   8.382   7.040  0.0638 -0.1455 -0.2701
 1000loPI   C2B14990  17.345   8.395   7.543 -0.0206  0.0120 -0.0752
 1000loPI   C3B14991  17.396   8.338   7.917 -0.2562 -0.1315  0.0657
 1000loPI   C4B14992  17.478   8.208   8.426 -0.1334  0.0656 -0.1278
 1001loPI    C114993   1.227  10.755   6.230 -0.1381 -0.1226 -0.0424
 1001loPI    C214994   1.235  10.989   5.906 -0.0806 -0.0403  0.0177
 1001loPI    C314995   1.550  10.759   5.994 -0.0150  0.0895  0.1252
 1001loPI   PO414996   1.213  10.846   6.482  0.1883  0.0196  0.2559
 1001loPI   GL114997   1.207  10.576   6.792  0.1133 -0.1555 -0.3430
 1001loPI   GL214998   1.262  10.256   6.767  0.1178  0.2181  0.0300
 1001loPI   C1A14999   1.330  10.620   7.151 -0.1630  0.1280 -0.1113
 1001loPI   C2A15000   1.329  10.602   7.631 -0.1285  0.0536  0.2774
 1001loPI   C3A15001   1.293  10.437   8.007 -0.0060 -0.0515  0.1955
 1001loPI   C4A15002   1.288  10.460   8.374  0.3746 -0.1072  0.0162
 1001loPI   C5A15003   1.150  10.126   8.695 -0.1294 -0.1321  0.0223
 1001loPI   C6A15004   0.720  10.041   8.763 -0.2319 -0.0286  0.0832
 1001loPI   C1B15005   1.310  10.006   7.150  0.0835 -0.0205 -0.1434
 1001loPI   C2B15006   1.434   9.985   7.486  0.1923  0.0573  0.1609
 1001loPI   C3B15007   1.408   9.912   7.906 -0.1683 -0.1195 -0.0710
 1001loPI   C4B15008   1.458   9.980   8.336 -0.0076  0.1869  0.2642
 1002loPI    C115009  10.163   4.164   5.663  0.0572  0.1794  0.0525
 1002loPI    C215010   9.808   4.081   5.500 -0.0120  0.0032  0.2872
 1002loPI    C315011  10.144   3.995   5.301 -0.0973 -0.0067  0.1457
 1002loPI   PO415012  10.135   4.113   5.869  0.0663 -0.1679  0.0949
 1002loPI   GL115013   9.900   3.963   6.051  0.0048  0.1412 -0.2115
 1002loPI   GL215014   9.603   4.083   5.986  0.2590 -0.1636  0.2454
 1002loPI   C1A15015   9.913   4.036   6.554  0.0001 -0.0599 -0.0716
 1002loPI   C2A15016   9.968   3.997   6.974 -0.0993 -0.0693 -0.2673
 1002loPI   C3A15017  10.005   3.981   7.444  0.1192  0.1358  0.1263
 1002loPI   C4A15018   9.895   3.951   7.826  0.1998  0.0543 -0.0928
 1002loPI   C5A15019   9.709   3.987   8.178  0.2999 -0.0574 -0.0436
 1002loPI   C6A15020   9.802   3.678   8.420  0.0859  0.0391 -0.1773
 1002loPI   C1B15021   9.483   4.132   6.410 -0.2232 -0.0977 -0.2404
 1002loPI   C2B15022   9.478   4.121   6.882  0.0990  0.0411 -0.1713
 1002loPI   C3B15023   9.462   4.039   7.400  0.0295 -0.1004 -0.0517
 1002loPI   C4B15024   9.417   4.117   7.795 -0.1583 -0.0667 -0.0031
 1003loPI    C115025   9.094   1.600   5.943 -0.0645  0.0724  0.0867
 1003loPI    C215026   8.968   1.931   5.756 -0.0430 -0.0453 -0.1393
 1003loPI    C315027   9.296   1.741   5.627 -0.0473 -0.1473 -0.0017
 1003loPI   PO415028   9.103   1.640   6.158  0.2061 -0.2180 -0.0539
 1003loPI   GL115029   9.163   1.924   6.473 -0.2809  0.2394 -0.0384
 1003loPI   GL215030   8.985   2.112   6.276 -0.0869 -0.1490 -0.1289
 1003loPI   C1A15031   9.300   1.843   6.877 -0.0231 -0.1752  0.0126
 1003loPI   C2A15032   9.280   1.865   7.275 -0.0430 -0.0189  0.1971
 1003loPI   C3A15033   9.346   1.907   7.766 -0.2462  0.3223 -0.0061
 1003loPI   C4A15034   9.174   1.831   8.212 -0.1771  0.0872  0.1762
 1003loPI   C5A15035   8.882   1.627   8.391 -0.2962  0.0688  0.0165
 1003loPI   C6A15036   8.457   1.489   8.485 -0.1355  0.3908  0.1474
 1003loPI   C1B15037   9.050   2.331   6.767  0.0567 -0.0530  0.2534
 1003loPI   C2B15038   9.101   2.343   7.149 -0.1404  0.1089 -0.1684
 1003loPI   C3B15039   9.096   2.263   7.523  0.0455 -0.0338  0.0410
 1003loPI   C4B15040   9.197   2.332   7.962  0.0886  0.1902  0.0816
 1004loPI    C115041   8.217  16.274   5.967 -0.0075 -0.1241 -0.0166
 1004loPI    C215042   7.975  15.956   5.949  0.0207 -0.1374 -0.1737
 1004loPI    C315043   7.991  16.213   5.643  0.0380 -0.0133 -0.0695
 1004loPI   PO415044   8.218  16.395   6.189 -0.1538  0.0406  0.0644
 1004loPI   GL115045   8.254  16.761   6.472  0.2603  0.0136  0.1668
 1004loPI   GL215046   8.398  16.467   6.634 -0.0658 -0.1714 -0.0240
 1004loPI   C1A15047   8.007  16.721   6.884  0.3118  0.0574  0.0603
 1004loPI   C2A15048   8.013  16.757   7.338  0.0938 -0.0053  0.1472
 1004loPI   C3A15049   8.006  16.840   7.783  0.0358  0.0180  0.1654
 1004loPI   C4A15050   8.030  16.882   8.147 -0.0711  0.2999  0.1202
 1004loPI   C5A15051   7.946  16.540   8.438  0.1835 -0.0911 -0.5218
 1004loPI   C6A15052   8.143  16.548   8.811  0.2631 -0.0122 -0.1401
 1004loPI   C1B15053   8.431  16.451   7.031  0.0088 -0.0946  0.3854
 1004loPI   C2B15054   8.454  16.612   7.459  0.1127  0.1014  0.2588
 1004loPI   C3B15055   8.481  16.532   7.789 -0.1413 -0.0107 -0.0479
 1004loPI   C4B15056   8.468  16.546   8.193 -0.0510  0.0748 -0.5369
 1005loPI    C115057  11.853   3.568   5.676 -0.0397 -0.1192  0.0785
 1005loPI    C215058  11.556   3.424   5.902 -0.2848  0.1386 -0.0731
 1005loPI    C315059  11.528   3.411   5.503 -0.0496  0.0814 -0.0889
 1005loPI   PO415060  11.881   3.782   5.830 -0.1314 -0.0153  0.0351
 1005loPI   GL115061  12.035   3.895   6.165  0.2644 -0.2666 -0.3765
 1005loPI   GL215062  12.237   4.281   6.106  0.2278 -0.0348  0.0801
 1005loPI   C1A15063  11.933   3.769   6.602  0.0520  0.2463  0.2051
 1005loPI   C2A15064  11.985   3.707   7.004 -0.2474  0.1054  0.1515
 1005loPI   C3A15065  12.032   3.751   7.464  0.1294 -0.0702 -0.2328
 1005loPI   C4A15066  11.892   3.699   7.903  0.3608  0.2287 -0.1212
 1005loPI   C5A15067  11.786   3.594   8.372 -0.0553  0.2682 -0.2860
 1005loPI   C6A15068  11.373   3.563   8.631 -0.2181 -0.2359  0.0284
 1005loPI   C1B15069  12.515   4.411   6.358  0.0305  0.1897  0.1202
 1005loPI   C2B15070  12.663   4.493   6.807  0.0352  0.0694  0.0438
 1005loPI   C3B15071  12.621   4.491   7.216 -0.1220 -0.0228 -0.1964
 1005loPI   C4B15072  12.722   4.525   7.695 -0.0706 -0.0502  0.0843
 1006loPI    C115073  10.025   0.087   6.038  0.1729 -0.0629  0.0636
 1006loPI    C215074   9.853   0.048   5.679  0.1706 -0.0613  0.0645
 1006loPI    C315075  10.233   0.168   5.706  0.0103  0.4704  0.0827
 1006loPI   PO415076   9.910   0.202   6.208 -0.0448  0.2321 -0.0354
 1006loPI   GL115077   9.759   0.435   6.354  0.3680 -0.2459 -0.1542
 1006loPI   GL215078  10.008   0.620   6.539 -0.1121  0.0475  0.1064
 1006loPI   C1A15079   9.645   0.385   6.827  0.0577  0.1143  0.1388
 1006loPI   C2A15080   9.476   0.646   7.184 -0.1090  0.0409 -0.3627
 1006loPI   C3A15081   9.494   0.944   7.503  0.1921  0.1144 -0.2346
 1006loPI   C4A15082   9.617   0.917   7.874 -0.0781  0.1730 -0.3664
 1006loPI   C5A15083   9.774   1.028   8.251  0.1447 -0.1396 -0.0307
 1006loPI   C6A15084   9.810   1.429   8.521  0.1071 -0.0904 -0.0972
 1006loPI   C1B15085   9.998   0.767   6.968 -0.0172 -0.2846 -0.1522
 1006loPI   C2B15086  10.081   0.851   7.445  0.3637 -0.0509 -0.1517
 1006loPI   C3B15087  10.180   0.868   7.881  0.1108 -0.1108 -0.3262
 1006loPI   C4B15088  10.226   0.732   8.277  0.0471 -0.0099 -0.0389
 1007loPI    C115089  15.205   5.801   6.005  0.2405  0.2658  0.1576
 1007loPI    C215090  14.916   6.006   5.819 -0.1334 -0.2779  0.1150
 1007loPI    C315091  15.225   5.862   5.610  0.0979  0.1737  0.1350
 1007loPI   PO415092  15.131   5.887   6.200  0.2552  0.1394  0.0631
 1007loPI   GL115093  15.281   6.101   6.552  0.2780  0.1235 -0.0994
 1007loPI   GL215094  15.278   6.506   6.611  0.1335  0.0048  0.1695
 1007loPI   C1A15095  15.103   6.045   6.979  0.2929 -0.2212  0.0611
 1007loPI   C2A15096  14.903   5.963   7.308 -0.1579 -0.1873  0.0701
 1007loPI   C3A15097  14.917   6.059   7.633 -0.0524 -0.3637  0.1837
 1007loPI   C4A15098  14.936   5.792   8.008 -0.0095  0.1743  0.0136
 1007loPI   C5A15099  14.930   5.662   8.413 -0.3572  0.1032  0.0158
 1007loPI   C6A15100  14.961   5.804   8.882  0.0655 -0.0555 -0.1450
 1007loPI   C1B15101  15.312   6.517   7.113 -0.0959 -0.3498 -0.1815
 1007loPI   C2B15102  15.204   6.407   7.486  0.0210  0.1734  0.3109
 1007loPI   C3B15103  15.346   6.336   7.816  0.1344 -0.0292 -0.0926
 1007loPI   C4B15104  15.249   6.184   8.300 -0.2457 -0.2068 -0.0339
 1008loPI    C115105   8.610  15.498   6.014  0.0637 -0.0146 -0.1013
 1008loPI    C215106   8.764  15.674   5.689 -0.3719  0.0606 -0.2735
 1008loPI    C315107   8.486  15.863   5.907 -0.1695 -0.0384  0.0791
 1008loPI   PO415108   8.706  15.505   6.215 -0.0425  0.1168  0.0650
 1008loPI   GL115109   8.690  15.518   6.567  0.1964  0.1004 -0.0900
 1008loPI   GL215110   8.429  15.236   6.558 -0.1437  0.4747  0.0644
 1008loPI   C1A15111   8.841  15.509   6.960  0.1159  0.0575 -0.1951
 1008loPI   C2A15112   8.840  15.733   7.268  0.0505  0.2827 -0.0149
 1008loPI   C3A15113   8.769  15.595   7.661  0.2174  0.0109 -0.0226
 1008loPI   C4A15114   8.851  15.726   8.042 -0.2586 -0.0193 -0.1206
 1008loPI   C5A15115   8.674  15.908   8.404  0.2838 -0.1988  0.2349
 1008loPI   C6A15116   8.500  15.803   8.757  0.1307  0.1006  0.0439
 1008loPI   C1B15117   8.329  15.379   6.947 -0.2884 -0.2558 -0.0599
 1008loPI   C2B15118   8.333  15.388   7.323 -0.0817  0.0651  0.2652
 1008loPI   C3B15119   8.257  15.422   7.754  0.0584  0.0985 -0.0676
 1008loPI   C4B15120   8.208  15.549   8.171 -0.2902  0.0752 -0.1043
 1009loPI    C115121   3.119   4.644   5.883  0.0618  0.0095 -0.1825
 1009loPI    C215122   3.449   4.552   5.676  0.0074 -0.3103 -0.1314
 1009loPI    C315123   3.088   4.469   5.525 -0.0428 -0.2127 -0.0663
 1009loPI   PO415124   3.196   4.626   6.167  0.0304 -0.0970 -0.0184
 1009loPI   GL115125   2.998   4.497   6.572 -0.0487  0.2510  0.3998
 1009loPI   GL215126   2.648   4.637   6.674  0.0520  0.1406  0.2400
 1009loPI   C1A15127   3.008   4.558   7.012  0.1455 -0.0048  0.1397
 1009loPI   C2A15128   2.840   4.557   7.337 -0.0665 -0.0703  0.2931
 1009loPI   C3A15129   2.889   4.652   7.800 -0.0243 -0.1809 -0.3149
 1009loPI   C4A15130   2.989   4.686   8.221 -0.0474 -0.0034  0.0088
 1009loPI   C5A15131   3.015   4.950   8.556 -0.1130  0.1094  0.0577
 1009loPI   C6A15132   3.133   4.907   8.942 -0.1131 -0.0328  0.1456
 1009loPI   C1B15133   2.436   4.702   6.942 -0.0341 -0.0009 -0.2114
 1009loPI   C2B15134   2.355   4.599   7.388  0.4016  0.0410  0.1410
 1009loPI   C3B15135   2.372   4.761   7.834  0.5821  0.1887  0.0752
 1009loPI   C4B15136   2.384   4.750   8.307 -0.2565 -0.0231  0.0090
 1010loPI    C115137  12.076   9.498   5.792  0.0562  0.0046  0.0466
 1010loPI    C215138  11.728   9.334   5.680  0.2743 -0.2400 -0.2903
 1010loPI    C315139  11.829   9.698   5.549  0.1070 -0.1291 -0.1168
 1010loPI   PO415140  12.081   9.447   6.060  0.0037  0.1209 -0.0483
 1010loPI   GL115141  12.152   9.542   6.404  0.0672 -0.4373  0.1504
 1010loPI   GL215142  12.176   9.295   6.534  0.1362  0.1516  0.0778
 1010loPI   C1A15143  12.008   9.749   6.751  0.0982 -0.0894 -0.2235
 1010loPI   C2A15144  12.081   9.613   7.180 -0.0764 -0.0549  0.0034
 1010loPI   C3A15145  12.037   9.591   7.617 -0.4169  0.1085  0.2709
 1010loPI   C4A15146  12.098   9.648   7.985  0.1157 -0.1519 -0.1868
 1010loPI   C5A15147  11.971   9.641   8.369  0.0747 -0.1828  0.0783
 1010loPI   C6A15148  11.603   9.806   8.719 -0.1112 -0.0582  0.1276
 1010loPI   C1B15149  12.293   9.222   6.986 -0.1162  0.0017 -0.0634
 1010loPI   C2B15150  12.272   9.207   7.443 -0.0112 -0.0651  0.2229
 1010loPI   C3B15151  12.192   9.168   7.876  0.3255  0.0463  0.0349
 1010loPI   C4B15152  12.105   9.159   8.298 -0.1004 -0.0359 -0.0723
 1011loPI    C115153  11.002   2.720   5.380  0.0071  0.4234 -0.3311
 1011loPI    C215154  10.832   2.515   5.081  0.0437 -0.1070 -0.0016
 1011loPI    C315155  11.227   2.574   5.083  0.0321 -0.0230 -0.1018
 1011loPI   PO415156  10.857   2.640   5.644  0.2133 -0.3255  0.1787
 1011loPI   GL115157  10.905   2.435   6.035 -0.0426  0.0864 -0.3865
 1011loPI   GL215158  10.885   2.118   6.206 -0.1362 -0.1919  0.4110
 1011loPI   C1A15159  10.905   2.742   6.436  0.1570 -0.2380 -0.2612
 1011loPI   C2A15160  10.730   3.010   6.731 -0.0948  0.1168  0.0641
 1011loPI   C3A15161  10.736   3.004   7.179  0.0122  0.0174 -0.0087
 1011loPI   C4A15162  10.785   2.975   7.623  0.0881 -0.1046  0.1097
 1011loPI   C5A15163  10.748   3.007   8.048 -0.1162 -0.1735  0.5316
 1011loPI   C6A15164  10.762   3.080   8.425  0.0995  0.0062  0.0931
 1011loPI   C1B15165  10.920   2.239   6.641 -0.0258 -0.0098  0.2727
 1011loPI   C2B15166  10.916   2.493   6.968 -0.1701 -0.1178 -0.0900
 1011loPI   C3B15167  10.939   2.544   7.419  0.0244  0.2685 -0.1568
 1011loPI   C4B15168  10.934   2.466   7.778 -0.0102  0.3625  0.0490
 1012loPI    C115169  11.213   8.509   6.178  0.2489 -0.1137  0.0448
 1012loPI    C215170  11.304   8.847   6.373 -0.3963  0.1555 -0.0950
 1012loPI    C315171  11.295   8.843   5.973 -0.0691 -0.1227 -0.1034
 1012loPI   PO415172  11.373   8.314   6.292  0.1531  0.3855  0.2722
 1012loPI   GL115173  11.652   8.057   6.516 -0.3165  0.0824 -0.2183
 1012loPI   GL215174  11.326   7.900   6.586 -0.0557 -0.1814  0.1033
 1012loPI   C1A15175  11.659   8.266   6.898 -0.2707 -0.3582 -0.0159
 1012loPI   C2A15176  11.738   8.288   7.260 -0.0297  0.0191 -0.3846
 1012loPI   C3A15177  11.677   8.409   7.660  0.2787  0.2159  0.0857
 1012loPI   C4A15178  11.635   8.324   8.084 -0.1896 -0.2430 -0.0059
 1012loPI   C5A15179  11.723   8.268   8.430 -0.1416  0.0450 -0.0894
 1012loPI   C6A15180  11.801   8.088   8.785  0.0282  0.1588  0.0223
 1012loPI   C1B15181  11.313   7.958   7.076  0.0765  0.1198  0.1906
 1012loPI   C2B15182  11.432   7.905   7.631 -0.2484 -0.0490  0.2430
 1012loPI   C3B15183  11.192   7.873   7.943 -0.0805  0.1513  0.2248
 1012loPI   C4B15184  11.212   7.738   8.217  0.0328 -0.0154 -0.0736
 1013loPI    C115185   1.732  10.083   6.164 -0.0072  0.3714  0.1594
 1013loPI    C215186   2.102  10.075   6.316  0.0308 -0.0933  0.0586
 1013loPI    C315187   2.049  10.113   5.921 -0.0306 -0.0121  0.0745
 1013loPI   PO415188   1.614   9.965   6.378  0.1754  0.2350  0.0928
 1013loPI   GL115189   1.752   9.964   6.749 -0.0179  0.2374 -0.1635
 1013loPI   GL215190   1.985   9.719   6.698 -0.0580  0.0825  0.0383
 1013loPI   C1A15191   1.890   9.852   7.228  0.0504  0.2094  0.0105
 1013loPI   C2A15192   1.900   9.832   7.675 -0.1245  0.0029 -0.3067
 1013loPI   C3A15193   1.950   9.812   8.184 -0.2603  0.1912  0.3147
 1013loPI   C4A15194   1.955   9.812   8.573  0.1446  0.2901  0.2299
 1013loPI   C5A15195   1.545   9.772   8.787 -0.2688  0.0648  0.1394
 1013loPI   C6A15196   1.325   9.638   9.027 -0.0948  0.2354 -0.3064
 1013loPI   C1B15197   2.090   9.451   7.026 -0.1477 -0.0827  0.2416
 1013loPI   C2B15198   2.060   9.328   7.497 -0.0497  0.0483  0.0066
 1013loPI   C3B15199   2.132   9.395   7.881 -0.1653  0.0583  0.0380
 1013loPI   C4B15200   2.069   9.266   8.264 -0.1361 -0.0472 -0.2290
 1014loPI    C115201  10.458  14.892   6.228 -0.1682 -0.2249 -0.3305
 1014loPI    C215202  10.070  14.984   6.203 -0.0392  0.3101 -0.4923
 1014loPI    C315203  10.310  15.041   5.888  0.1862  0.0404 -0.3741
 1014loPI   PO415204  10.632  15.049   6.390  0.3081  0.1265 -0.0500
 1014loPI   GL115205  10.539  15.312   6.772  0.3238 -0.0818 -0.2469
 1014loPI   GL215206  10.730  15.543   6.840 -0.0612  0.0617 -0.4681
 1014loPI   C1A15207  10.558  15.242   7.239  0.1195  0.2228 -0.1169
 1014loPI   C2A15208  10.526  15.306   7.656 -0.5524 -0.0404 -0.0690
 1014loPI   C3A15209  10.573  15.552   7.993  0.1258  0.1854 -0.2345
 1014loPI   C4A15210  10.590  15.698   8.353  0.3149  0.1774  0.0484
 1014loPI   C5A15211  10.725  15.443   8.763  0.0513 -0.2833  0.0554
 1014loPI   C6A15212  10.522  15.026   8.956 -0.0541  0.2011  0.0794
 1014loPI   C1B15213  10.859  15.639   7.231  0.1232 -0.2467  0.0457
 1014loPI   C2B15214  10.903  15.649   7.635  0.0352 -0.2468 -0.1266
 1014loPI   C3B15215  11.026  15.741   8.080 -0.1459  0.2585  0.0944
 1014loPI   C4B15216  11.123  15.412   8.444 -0.0735  0.1211 -0.0614
 1015loPI    C115217   0.849   0.062   5.950 -0.0169  0.1458 -0.1210
 1015loPI    C215218   0.789  -0.216   5.669  0.0976 -0.1584  0.1496
 1015loPI    C315219   0.948   0.137   5.570 -0.0191 -0.1984 -0.1932
 1015loPI   PO415220   1.019   0.012   6.138 -0.2429  0.2723 -0.0516
 1015loPI   GL115221   1.046  -0.016   6.466  0.0591  0.1447  0.0399
 1015loPI   GL215222   0.714  -0.253   6.472 -0.2158  0.0081  0.1240
 1015loPI   C1A15223   0.934  -0.160   6.961  0.1155 -0.3168  0.1477
 1015loPI   C2A15224   0.920  -0.158   7.439 -0.0791  0.1070  0.0364
 1015loPI   C3A15225   0.919  -0.184   7.890  0.0605 -0.1164 -0.3504
 1015loPI   C4A15226   0.846  -0.174   8.392 -0.2632  0.4376 -0.1633
 1015loPI   C5A15227   0.860  -0.124   8.857  0.1451  0.1282  0.0094
 1015loPI   C6A15228   1.292  -0.011   8.984  0.2145 -0.1394 -0.5108
 1015loPI   C1B15229   0.641  -0.472   6.783  0.1454  0.2537  0.4113
 1015loPI   C2B15230   0.641  -0.586   7.229 -0.3611  0.0180 -0.1218
 1015loPI   C3B15231   0.578  -0.453   7.678 -0.1679 -0.1784 -0.2278
 1015loPI   C4B15232   0.521  -0.528   8.094 -0.1020  0.1911  0.2737
 1016loPI    C115233   0.297   3.328   5.794  0.1635 -0.2655 -0.1050
 1016loPI    C215234   0.566   3.583   5.642 -0.1598  0.0123 -0.2248
 1016loPI    C315235   0.443   3.269   5.427  0.2405 -0.2548 -0.0763
 1016loPI   PO415236   0.425   3.205   6.083  0.2911  0.0586 -0.1288
 1016loPI   GL115237   0.417   3.256   6.487  0.2390  0.0742 -0.0979
 1016loPI   GL215238   0.620   3.109   6.630  0.0464 -0.0489 -0.0239
 1016loPI   C1A15239   0.138   3.187   6.859 -0.1696 -0.1469  0.2831
 1016loPI   C2A15240   0.072   3.144   7.242  0.4805  0.0022  0.0726
 1016loPI   C3A15241   0.156   3.104   7.698 -0.1178  0.0352 -0.1166
 1016loPI   C4A15242   0.081   3.312   8.051 -0.1529  0.2198  0.0778
 1016loPI   C5A15243   0.058   3.364   8.448  0.2357 -0.0469 -0.0398
 1016loPI   C6A15244  -0.344   3.615   8.645 -0.2911 -0.3456 -0.1339
 1016loPI   C1B15245   0.639   3.117   7.101  0.1766  0.2000  0.4150
 1016loPI   C2B15246   0.629   3.042   7.511 -0.0296 -0.1259 -0.1316
 1016loPI   C3B15247   0.570   3.144   7.958  0.1455  0.1935 -0.2314
 1016loPI   C4B15248   0.603   3.267   8.383 -0.0702 -0.3970 -0.0182
 1017loPI    C115249   5.800   3.754   5.772  0.2268  0.1677  0.1856
 1017loPI    C215250   5.941   4.000   5.489  0.0646  0.1000  0.0443
 1017loPI    C315251   6.074   3.623   5.511  0.1249  0.1244  0.0997
 1017loPI   PO415252   5.865   3.866   5.975  0.1070 -0.0303 -0.0058
 1017loPI   GL115253   6.034   4.063   6.373 -0.0134  0.1198  0.0991
 1017loPI   GL215254   6.184   4.325   6.379 -0.3964 -0.0732 -0.0137
 1017loPI   C1A15255   5.957   4.019   6.817  0.0327  0.0035  0.1315
 1017loPI   C2A15256   5.918   4.170   7.179  0.2687  0.3801  0.0891
 1017loPI   C3A15257   6.046   4.131   7.541  0.0901 -0.0595  0.0316
 1017loPI   C4A15258   5.912   4.104   7.923  0.2401 -0.0340  0.2524
 1017loPI   C5A15259   6.064   4.034   8.391  0.0516 -0.3022  0.1008
 1017loPI   C6A15260   5.923   4.316   8.744  0.2586 -0.1296 -0.0315
 1017loPI   C1B15261   6.216   4.468   6.818  0.1145 -0.1583  0.0024
 1017loPI   C2B15262   6.291   4.512   7.251  0.2427 -0.0305 -0.4045
 1017loPI   C3B15263   6.293   4.523   7.685 -0.0529 -0.1966 -0.0072
 1017loPI   C4B15264   6.206   4.436   8.175 -0.2860  0.2295  0.2221
 1018loPI    C115265   0.973   8.192   6.169  0.0152  0.1802  0.0637
 1018loPI    C215266   0.827   8.528   6.329 -0.2421  0.1526 -0.1062
 1018loPI    C315267   0.764   8.447   5.943 -0.3114 -0.1630 -0.0312
 1018loPI   PO415268   1.167   8.185   6.358  0.0100  0.1292  0.0558
 1018loPI   GL115269   1.177   8.226   6.751 -0.2201 -0.3502 -0.1211
 1018loPI   GL215270   1.143   7.839   6.713  0.2729  0.0666  0.2415
 1018loPI   C1A15271   1.085   8.225   7.216 -0.0547 -0.1225 -0.2940
 1018loPI   C2A15272   1.118   8.240   7.710  0.2045 -0.0077 -0.0029
 1018loPI   C3A15273   1.044   8.092   8.144 -0.2125  0.0869 -0.2262
 1018loPI   C4A15274   1.151   7.891   8.474 -0.0796 -0.5037  0.1017
 1018loPI   C5A15275   1.051   7.640   8.887 -0.1810 -0.2206 -0.0808
 1018loPI   C6A15276   1.037   7.358   9.050 -0.1827  0.0497 -0.1736
 1018loPI   C1B15277   1.267   7.762   7.150  0.1143 -0.2200  0.2676
 1018loPI   C2B15278   1.313   7.673   7.614 -0.0321 -0.2302 -0.1369
 1018loPI   C3B15279   1.364   7.538   8.074 -0.4968  0.2379 -0.1701
 1018loPI   C4B15280   1.339   7.466   8.463 -0.0147  0.0678 -0.1210
 1019loPI    C115281   0.496   0.431   6.193  0.0112 -0.0509  0.0736
 1019loPI    C215282   0.289   0.582   5.885  0.0445 -0.1192  0.0175
 1019loPI    C315283   0.682   0.519   5.850  0.0561 -0.0870  0.0888
 1019loPI   PO415284   0.362   0.226   6.278  0.1139  0.0630 -0.0659
 1019loPI   GL115285   0.358   0.040   6.640 -0.3443  0.0932 -0.0650
 1019loPI   GL215286   0.669   0.243   6.723  0.0952  0.1975  0.1804
 1019loPI   C1A15287   0.398  -0.042   7.012  0.1521 -0.0200 -0.1572
 1019loPI   C2A15288   0.428  -0.050   7.414 -0.0357  0.1503 -0.2024
 1019loPI   C3A15289   0.396  -0.010   7.822  0.1699  0.2844 -0.0047
 1019loPI   C4A15290   0.339  -0.004   8.218 -0.3617  0.1651 -0.3157
 1019loPI   C5A15291   0.349  -0.151   8.542  0.0362  0.3060  0.4219
 1019loPI   C6A15292   0.549  -0.509   8.690  0.1070  0.1384  0.2294
 1019loPI   C1B15293   0.782   0.246   7.213 -0.0834 -0.2032  0.0246
 1019loPI   C2B15294   0.778   0.297   7.665  0.1257  0.4193  0.0246
 1019loPI   C3B15295   0.800   0.305   8.040  0.0201  0.0376  0.0975
 1019loPI   C4B15296   0.654   0.272   8.564 -0.0848 -0.2220  0.0279
 1020loPI    C115297  11.264   9.385   5.884  0.0617 -0.1204 -0.0953
 1020loPI    C215298  10.953   9.576   5.721  0.0941  0.4399  0.4609
 1020loPI    C315299  11.325   9.668   5.608  0.0840  0.0457  0.0780
 1020loPI   PO415300  11.202   9.361   6.161  0.1268  0.2831 -0.2154
 1020loPI   GL115301  11.127   9.323   6.534  0.1305 -0.0805  0.1042
 1020loPI   GL215302  10.870   9.262   6.663 -0.0618  0.0947  0.0817
 1020loPI   C1A15303  11.218   9.209   6.958  0.0939  0.0150 -0.6245
 1020loPI   C2A15304  11.159   9.243   7.395 -0.0955 -0.1086 -0.0158
 1020loPI   C3A15305  11.163   9.287   7.814  0.1953 -0.2892 -0.0788
 1020loPI   C4A15306  11.173   9.216   8.178 -0.0615  0.0268  0.0915
 1020loPI   C5A15307  11.183   9.475   8.561 -0.2816 -0.0305  0.0645
 1020loPI   C6A15308  11.317   9.470   8.893 -0.0937  0.1095 -0.0917
 1020loPI   C1B15309  10.795   9.392   7.074  0.0950  0.0362 -0.0598
 1020loPI   C2B15310  10.666   9.376   7.528 -0.1076 -0.1087  0.2746
 1020loPI   C3B15311  10.618   9.212   7.978 -0.1118  0.2265 -0.0135
 1020loPI   C4B15312  10.744   9.371   8.337 -0.0543 -0.1008 -0.1673
 1021loPI    C115313  15.848  14.864   6.218  0.2112 -0.2288 -0.1492
 1021loPI    C215314  15.914  14.946   5.832  0.1044  0.1603 -0.0888
 1021loPI    C315315  15.550  14.833   5.953  0.1363  0.0445 -0.1005
 1021loPI   PO415316  16.082  14.708   6.285  0.1373  0.0072  0.0795
 1021loPI   GL115317  16.240  14.643   6.602 -0.2704  0.0063 -0.0413
 1021loPI   GL215318  16.563  14.759   6.504  0.2138  0.0619 -0.0840
 1021loPI   C1A15319  16.253  14.672   7.041  0.2880 -0.0547 -0.3290
 1021loPI   C2A15320  16.253  14.631   7.473 -0.0194 -0.2542  0.2038
 1021loPI   C3A15321  16.225  14.775   7.892  0.0304  0.0906 -0.0894
 1021loPI   C4A15322  16.265  14.763   8.306  0.0847  0.0197 -0.0127
 1021loPI   C5A15323  16.315  14.618   8.651 -0.2717  0.1775 -0.0916
 1021loPI   C6A15324  16.344  14.520   9.125 -0.1974 -0.0871 -0.1472
 1021loPI   C1B15325  16.681  14.976   6.921  0.1546 -0.2838 -0.0679
 1021loPI   C2B15326  16.537  15.038   7.393 -0.0472  0.1535 -0.0370
 1021loPI   C3B15327  16.571  15.133   7.830 -0.0162 -0.0958  0.3435
 1021loPI   C4B15328  16.659  15.184   8.284 -0.4176  0.3704 -0.4412
 1022loPI    C115329  12.593  11.958   6.107  0.3612 -0.0330  0.0049
 1022loPI    C215330  12.645  11.569   6.029 -0.0083 -0.0508 -0.1759
 1022loPI    C315331  12.624  11.832   5.729 -0.1144  0.0603 -0.0721
 1022loPI   PO415332  12.444  11.931   6.449 -0.1334 -0.0376 -0.1632
 1022loPI   GL115333  12.599  12.168   6.851 -0.1200  0.0307  0.0793
 1022loPI   GL215334  12.813  12.307   6.918 -0.0790  0.1106  0.0214
 1022loPI   C1A15335  12.635  11.995   7.312  0.0575  0.1526 -0.0433
 1022loPI   C2A15336  12.534  12.005   7.693  0.2014 -0.1143  0.0277
 1022loPI   C3A15337  12.603  11.905   8.141 -0.2955 -0.0379  0.2082
 1022loPI   C4A15338  12.365  11.700   8.474 -0.2502 -0.4200 -0.1244
 1022loPI   C5A15339  12.018  11.671   8.639 -0.0545  0.4500  0.3828
 1022loPI   C6A15340  11.748  11.430   8.836  0.3300 -0.1858  0.0943
 1022loPI   C1B15341  12.900  12.433   7.305  0.2773 -0.2175  0.1767
 1022loPI   C2B15342  12.872  12.392   7.695  0.0004  0.0052 -0.1760
 1022loPI   C3B15343  12.952  12.244   8.198 -0.0444 -0.2441 -0.3151
 1022loPI   C4B15344  12.846  12.026   8.590 -0.0397 -0.1294  0.0471
 1023loPI    C115345   7.819  15.444   5.637  0.0032  0.1490 -0.1104
 1023loPI    C215346   8.130  15.690   5.585 -0.0607  0.2311 -0.1036
 1023loPI    C315347   8.006  15.457   5.284  0.0170  0.1873 -0.1017
 1023loPI   PO415348   7.791  15.491   5.969 -0.2282 -0.3545 -0.2695
 1023loPI   GL115349   7.781  15.751   6.404  0.0039 -0.1693  0.1908
 1023loPI   GL215350   7.814  16.066   6.499 -0.1228 -0.2134 -0.0453
 1023loPI   C1A15351   7.962  15.663   6.777  0.1366 -0.2204  0.1628
 1023loPI   C2A15352   8.017  15.750   7.137 -0.3148 -0.0106 -0.0105
 1023loPI   C3A15353   7.910  15.676   7.509 -0.1566  0.1378  0.0894
 1023loPI   C4A15354   7.851  15.807   7.870 -0.0819 -0.0831 -0.1522
 1023loPI   C5A15355   7.809  15.827   8.360 -0.3284  0.2323 -0.1696
 1023loPI   C6A15356   7.683  15.864   8.898  0.0384  0.0586  0.2156
 1023loPI   C1B15357   8.065  16.172   6.844  0.0104 -0.1459 -0.0290
 1023loPI   C2B15358   8.100  16.226   7.277 -0.3024 -0.1317  0.2093
 1023loPI   C3B15359   8.029  16.268   7.677 -0.4314  0.1103  0.0511
 1023loPI   C4B15360   7.813  16.302   8.018 -0.0497 -0.1889 -0.1879
 1024loPI    C115361   3.322   2.832   5.926  0.2576 -0.0113 -0.0219
 1024loPI    C215362   2.956   2.716   5.814  0.2053 -0.2446  0.3740
 1024loPI    C315363   3.254   2.721   5.548 -0.0546 -0.1742  0.0785
 1024loPI   PO415364   3.333   2.789   6.184  0.0747 -0.4478 -0.0314
 1024loPI   GL115365   3.524   2.860   6.556 -0.0869 -0.1452  0.1500
 1024loPI   GL215366   3.813   3.044   6.576 -0.0666 -0.1193  0.2150
 1024loPI   C1A15367   3.315   2.996   6.943  0.1929 -0.0133 -0.2177
 1024loPI   C2A15368   3.446   3.100   7.328  0.2475  0.0766 -0.0712
 1024loPI   C3A15369   3.455   3.083   7.715  0.0795  0.0809 -0.0263
 1024loPI   C4A15370   3.485   3.270   8.122  0.1997  0.0209  0.1209
 1024loPI   C5A15371   3.552   3.403   8.603 -0.1057  0.2158 -0.0966
 1024loPI   C6A15372   3.564   3.502   8.982 -0.0025 -0.1309  0.0327
 1024loPI   C1B15373   3.738   3.329   6.945  0.1777 -0.3126 -0.4100
 1024loPI   C2B15374   3.746   3.537   7.283 -0.2368  0.0851  0.0780
 1024loPI   C3B15375   3.716   3.523   7.734  0.1586 -0.0719 -0.0597
 1024loPI   C4B15376   3.876   3.675   8.130 -0.1134  0.0551  0.2360
 1025loPI    C115377  11.325   4.035   5.375  0.2567 -0.0352  0.0486
 1025loPI    C215378  11.229   4.407   5.486  0.0731 -0.0364 -0.1001
 1025loPI    C315379  11.384   4.341   5.124  0.1741 -0.0969 -0.0464
 1025loPI   PO415380  11.435   3.870   5.572  0.3075  0.1484  0.1242
 1025loPI   GL115381  11.418   3.885   6.050 -0.1356  0.1063 -0.2096
 1025loPI   GL215382  11.119   3.891   6.206  0.2925 -0.2854  0.0611
 1025loPI   C1A15383  11.320   4.152   6.531  0.1216 -0.2090  0.0048
 1025loPI   C2A15384  11.285   4.254   6.944  0.2093  0.0964 -0.3984
 1025loPI   C3A15385  11.336   4.289   7.387  0.0372  0.0604  0.0689
 1025loPI   C4A15386  11.320   4.284   7.828  0.0577  0.2846 -0.1200
 1025loPI   C5A15387  11.210   4.185   8.259 -0.2402  0.0107  0.0013
 1025loPI   C6A15388  11.121   4.000   8.617  0.0121  0.1360 -0.0922
 1025loPI   C1B15389  10.941   3.880   6.685  0.2294  0.0092  0.1196
 1025loPI   C2B15390  10.973   3.838   7.116  0.0218 -0.0682 -0.1347
 1025loPI   C3B15391  10.994   3.849   7.513  0.0986  0.1188  0.1707
 1025loPI   C4B15392  10.881   3.947   7.939 -0.0800 -0.1927  0.2489
 1026loPI    C115393  12.522  12.720   5.942  0.1929  0.0881  0.0050
 1026loPI    C215394  12.250  12.587   5.680  0.1073  0.2455  0.0133
 1026loPI    C315395  12.499  12.329   5.857 -0.0399  0.0997  0.0098
 1026loPI   PO415396  12.310  12.793   6.153 -0.0263  0.0340 -0.0243
 1026loPI   GL115397  12.381  12.614   6.651 -0.0352  0.2028  0.1381
 1026loPI   GL215398  12.107  12.618   6.689 -0.1918 -0.1444  0.0061
 1026loPI   C1A15399  12.391  12.552   7.122 -0.1606  0.0401  0.2657
 1026loPI   C2A15400  12.386  12.582   7.598 -0.1307  0.1245  0.0129
 1026loPI   C3A15401  12.469  12.406   8.002  0.0798 -0.3009 -0.2529
 1026loPI   C4A15402  12.515  12.359   8.454  0.1736 -0.0126 -0.1094
 1026loPI   C5A15403  12.261  12.128   8.694 -0.1157 -0.2747 -0.0991
 1026loPI   C6A15404  12.011  11.999   9.002  0.1109  0.1944 -0.3019
 1026loPI   C1B15405  11.906  12.687   7.148  0.2601  0.1757  0.0447
 1026loPI   C2B15406  11.746  12.688   7.586 -0.3220 -0.2723 -0.0095
 1026loPI   C3B15407  11.869  12.606   7.981 -0.0517 -0.1454  0.0310
 1026loPI   C4B15408  11.975  12.442   8.468 -0.3569 -0.1177  0.0821
 1027loPI    C115409  15.320   5.047   5.862 -0.3452 -0.0402 -0.0471
 1027loPI    C215410  15.588   5.055   5.565 -0.1393 -0.1096  0.1338
 1027loPI    C315411  15.456   5.397   5.726 -0.1049 -0.0770  0.0927
 1027loPI   PO415412  15.383   4.892   6.070 -0.0393 -0.3169 -0.2465
 1027loPI   GL115413  15.539   4.882   6.416 -0.2039  0.0726 -0.1186
 1027loPI   GL215414  15.762   5.154   6.485 -0.0320 -0.2461 -0.1140
 1027loPI   C1A15415  15.564   4.760   6.867 -0.2735  0.0389  0.0954
 1027loPI   C2A15416  15.538   4.491   7.240 -0.1396 -0.0578 -0.1688
 1027loPI   C3A15417  15.505   4.324   7.629 -0.2172  0.0069 -0.1164
 1027loPI   C4A15418  15.533   4.361   8.066  0.0955 -0.2176 -0.0331
 1027loPI   C5A15419  15.557   4.325   8.550  0.0224  0.0589 -0.0883
 1027loPI   C6A15420  15.710   4.188   9.045  0.1598  0.4083  0.1498
 1027loPI   C1B15421  15.757   5.247   6.868 -0.3805 -0.1343 -0.1542
 1027loPI   C2B15422  15.717   5.225   7.340  0.0362  0.0349  0.1351
 1027loPI   C3B15423  15.622   5.269   7.767 -0.0474 -0.1216  0.1896
 1027loPI   C4B15424  15.683   5.248   8.195  0.2199 -0.2351  0.0228
 1028loPI    C115425   4.512  13.477   6.134 -0.1830  0.2495 -0.1583
 1028loPI    C215426   4.306  13.262   5.867  0.0996 -0.1692 -0.0505
 1028loPI    C315427   4.521  13.578   5.747 -0.0737 -0.1276 -0.2588
 1028loPI   PO415428   4.391  13.395   6.377  0.2550  0.2598  0.0356
 1028loPI   GL115429   4.510  13.419   6.801  0.0042  0.2405  0.1277
 1028loPI   GL215430   4.712  13.171   6.851  0.1294  0.0208 -0.0320
 1028loPI   C1A15431   4.598  13.628   7.048 -0.3292 -0.0051  0.3691
 1028loPI   C2A15432   4.654  13.697   7.497 -0.0879 -0.0043 -0.0640
 1028loPI   C3A15433   4.614  13.734   7.922 -0.0548 -0.0899 -0.3274
 1028loPI   C4A15434   4.646  13.760   8.317  0.1488  0.1359 -0.1392
 1028loPI   C5A15435   4.866  13.932   8.552 -0.2875  0.1147 -0.1770
 1028loPI   C6A15436   5.257  14.135   8.840  0.2512 -0.0080 -0.1438
 1028loPI   C1B15437   4.603  13.103   7.247 -0.1472 -0.0545  0.1828
 1028loPI   C2B15438   4.645  13.086   7.746  0.0317  0.1486 -0.1589
 1028loPI   C3B15439   4.500  13.222   8.093 -0.0747 -0.3768  0.3744
 1028loPI   C4B15440   4.546  13.277   8.508 -0.0782  0.0335  0.3112
 1029loPI    C115441   3.484  13.032   6.253  0.3530 -0.0876  0.1129
 1029loPI    C215442   3.372  13.312   5.990  0.1237 -0.2454  0.0403
 1029loPI    C315443   3.587  12.998   5.868  0.3764 -0.1059  0.1208
 1029loPI   PO415444   3.491  13.325   6.480  0.0200  0.1264  0.2479
 1029loPI   GL115445   3.313  13.358   6.839  0.2239  0.1381 -0.1036
 1029loPI   GL215446   3.082  13.366   6.936  0.0589 -0.0275 -0.2613
 1029loPI   C1A15447   3.599  13.238   7.226  0.2864 -0.0710 -0.0792
 1029loPI   C2A15448   3.784  13.197   7.612  0.1522  0.3557 -0.2243
 1029loPI   C3A15449   3.714  13.191   8.054  0.2655 -0.2834 -0.0425
 1029loPI   C4A15450   3.647  13.193   8.505 -0.0947  0.3881  0.0209
 1029loPI   C5A15451   3.432  12.901   8.763 -0.0150 -0.2327  0.2312
 1029loPI   C6A15452   3.303  12.529   8.978  0.0647 -0.0413 -0.1023
 1029loPI   C1B15453   3.127  13.319   7.342  0.0101  0.1732 -0.0536
 1029loPI   C2B15454   3.289  13.334   7.700  0.1007 -0.1755  0.1710
 1029loPI   C3B15455   3.303  13.413   8.127 -0.2824 -0.1552 -0.4076
 1029loPI   C4B15456   3.289  13.584   8.616 -0.1603  0.0318 -0.2533
 1030loPI    C115457   8.728   5.503   5.760  0.0071  0.0770 -0.1694
 1030loPI    C215458   8.670   5.894   5.704  0.1469  0.0994 -0.1619
 1030loPI    C315459   8.971   5.709   5.518 -0.1569 -0.0871 -0.4808
 1030loPI   PO415460   8.564   5.500   6.025  0.2363  0.0021 -0.1641
 1030loPI   GL115461   8.533   5.688   6.371 -0.2562  0.1151 -0.1722
 1030loPI   GL215462   8.714   5.970   6.275  0.2667  0.3908 -0.1644
 1030loPI   C1A15463   8.385   5.594   6.761 -0.0783  0.2045  0.0033
 1030loPI   C2A15464   8.277   5.593   7.158 -0.0679 -0.1254 -0.1048
 1030loPI   C3A15465   8.266   5.600   7.614 -0.0884 -0.4576 -0.2980
 1030loPI   C4A15466   8.303   5.508   8.099  0.1328  0.3194 -0.3897
 1030loPI   C5A15467   8.455   5.064   8.260  0.1643  0.0960  0.0027
 1030loPI   C6A15468   8.547   4.750   8.513 -0.3119  0.0401 -0.3439
 1030loPI   C1B15469   8.611   6.057   6.779  0.1461 -0.1786  0.1180
 1030loPI   C2B15470   8.603   5.985   7.178  0.2307  0.2409 -0.2660
 1030loPI   C3B15471   8.592   5.989   7.608  0.3042  0.2574 -0.2092
 1030loPI   C4B15472   8.615   6.047   8.074 -0.1259  0.1278  0.1220
 1031loPI    C115473   9.340  13.652   5.880 -0.0878 -0.1103 -0.1892
 1031loPI    C215474   9.598  13.958   5.869 -0.0481 -0.1391 -0.0741
 1031loPI    C315475   9.622  13.666   5.596  0.2655 -0.3206  0.1410
 1031loPI   PO415476   9.282  13.669   6.115  0.0999 -0.0670  0.2958
 1031loPI   GL115477   9.256  13.433   6.609  0.0276 -0.1728  0.1410
 1031loPI   GL215478   9.573  13.465   6.729  0.1926  0.0950 -0.3762
 1031loPI   C1A15479   9.027  13.586   7.016  0.2300 -0.2986  0.0723
 1031loPI   C2A15480   8.983  13.796   7.410 -0.0527  0.0310 -0.0245
 1031loPI   C3A15481   9.051  13.829   7.831  0.0942  0.1219 -0.1461
 1031loPI   C4A15482   8.959  13.954   8.187 -0.1308  0.2437  0.2175
 1031loPI   C5A15483   9.265  14.059   8.650 -0.0671 -0.0800  0.0039
 1031loPI   C6A15484   9.662  14.105   8.812  0.0961  0.1875  0.0205
 1031loPI   C1B15485   9.495  13.822   7.043 -0.0023  0.0379 -0.2581
 1031loPI   C2B15486   9.466  13.969   7.496 -0.0439  0.1436 -0.0721
 1031loPI   C3B15487   9.446  14.078   7.968 -0.1017  0.0066  0.2726
 1031loPI   C4B15488   9.586  14.251   8.337 -0.0326  0.2189  0.0192
 1032loPI    C115489   7.455   9.471   5.951 -0.0589  0.1185  0.0805
 1032loPI    C215490   7.469   9.795   5.717  0.0445  0.0858  0.0406
 1032loPI    C315491   7.338   9.447   5.569  0.0516  0.0797  0.0486
 1032loPI   PO415492   7.692   9.552   6.119 -0.0728  0.0686  0.3615
 1032loPI   GL115493   7.943   9.483   6.422 -0.1519 -0.2034 -0.0415
 1032loPI   GL215494   8.175   9.613   6.463 -0.2396  0.1600  0.1789
 1032loPI   C1A15495   7.965   9.253   6.791 -0.0457 -0.1482  0.0601
 1032loPI   C2A15496   7.907   9.270   7.244 -0.0177  0.1562 -0.0337
 1032loPI   C3A15497   7.815   9.262   7.571  0.0721  0.1908 -0.0298
 1032loPI   C4A15498   7.780   9.217   8.009  0.1640  0.0827 -0.1376
 1032loPI   C5A15499   7.482   8.945   8.286 -0.3070  0.1874  0.1915
 1032loPI   C6A15500   7.484   8.511   8.450  0.1694 -0.2857 -0.3470
 1032loPI   C1B15501   8.271   9.623   6.855  0.0711  0.1348 -0.2748
 1032loPI   C2B15502   8.235   9.653   7.136  0.1712 -0.0698 -0.2265
 1032loPI   C3B15503   8.189   9.626   7.598 -0.1585 -0.1121 -0.0211
 1032loPI   C4B15504   8.084   9.639   7.984 -0.3001  0.0142  0.2232
 1033loPI    C115505   7.175   1.608   5.691  0.0321  0.1223  0.0315
 1033loPI    C215506   7.207   1.267   5.484 -0.2360  0.1192 -0.0089
 1033loPI    C315507   7.343   1.609   5.328  0.1034  0.0214  0.0636
 1033loPI   PO415508   7.143   1.530   5.989  0.3065  0.0064 -0.0469
 1033loPI   GL115509   7.121   1.718   6.423 -0.1178  0.0184  0.1342
 1033loPI   GL215510   7.187   1.453   6.523 -0.0431 -0.0003 -0.1483
 1033loPI   C1A15511   7.215   2.072   6.668 -0.2396  0.1259  0.2393
 1033loPI   C2A15512   7.287   2.171   7.075  0.2465  0.2607  0.3367
 1033loPI   C3A15513   7.229   2.124   7.467  0.1550 -0.0941 -0.4157
 1033loPI   C4A15514   7.350   2.128   7.859  0.0453 -0.0046 -0.4587
 1033loPI   C5A15515   7.458   2.099   8.334 -0.0345 -0.0835  0.0407
 1033loPI   C6A15516   7.435   1.794   8.658  0.1019 -0.1110 -0.0229
 1033loPI   C1B15517   7.271   1.546   6.993 -0.0933  0.4038  0.4547
 1033loPI   C2B15518   7.203   1.637   7.359  0.1321 -0.1573 -0.0020
 1033loPI   C3B15519   7.036   1.771   7.780 -0.2838 -0.0094  0.0203
 1033loPI   C4B15520   7.025   1.892   8.212  0.0452 -0.2789 -0.2537
 1034loPI    C115521   4.925  13.353   5.896  0.0529  0.2284 -0.0758
 1034loPI    C215522   4.987  13.705   5.717  0.4304  0.1200 -0.1681
 1034loPI    C315523   4.931  13.376   5.496 -0.0772  0.1410 -0.0835
 1034loPI   PO415524   4.994  13.414   6.077 -0.1935 -0.1357 -0.3183
 1034loPI   GL115525   4.876  13.607   6.457  0.3648  0.0296  0.2670
 1034loPI   GL215526   4.698  13.949   6.538  0.2148  0.2720  0.0243
 1034loPI   C1A15527   5.055  13.419   6.965  0.1910 -0.0854 -0.3839
 1034loPI   C2A15528   5.068  13.402   7.364 -0.2357 -0.0140 -0.2659
 1034loPI   C3A15529   5.010  13.367   7.846  0.0526  0.3660  0.1422
 1034loPI   C4A15530   5.007  13.360   8.224  0.4102  0.0679 -0.0985
 1034loPI   C5A15531   5.102  13.317   8.623 -0.0058 -0.1409 -0.0247
 1034loPI   C6A15532   5.302  12.991   8.869  0.1580  0.2838 -0.1371
 1034loPI   C1B15533   4.555  14.223   6.773 -0.5763  0.0631 -0.0785
 1034loPI   C2B15534   4.654  14.204   7.297  0.0376  0.0843  0.0716
 1034loPI   C3B15535   4.621  14.210   7.697  0.0421 -0.1148  0.1889
 1034loPI   C4B15536   4.626  14.264   8.145  0.0917 -0.1201 -0.2492
 1035loPI    C115537   5.581  14.282   5.662 -0.0528  0.2224 -0.1402
 1035loPI    C215538   5.701  13.969   5.443  0.1753  0.2028  0.0089
 1035loPI    C315539   5.311  14.027   5.514  0.1079  0.1436 -0.3012
 1035loPI   PO415540   5.670  14.250   5.849  0.0926 -0.2506  0.2115
 1035loPI   GL115541   5.452  14.340   6.247 -0.0641  0.0279 -0.1316
 1035loPI   GL215542   5.562  14.639   6.451  0.3915 -0.2941  0.1589
 1035loPI   C1A15543   5.500  14.190   6.605  0.1925 -0.0290 -0.1954
 1035loPI   C2A15544   5.535  14.080   7.015 -0.1446 -0.0273  0.0335
 1035loPI   C3A15545   5.481  14.200   7.440 -0.2873 -0.2614 -0.0765
 1035loPI   C4A15546   5.537  14.199   7.891  0.0944  0.3170 -0.0432
 1035loPI   C5A15547   5.703  14.039   8.315  0.2199  0.3917 -0.2855
 1035loPI   C6A15548   5.942  14.088   8.680  0.2808 -0.2121  0.1496
 1035loPI   C1B15549   5.610  14.548   6.857  0.0873 -0.0736  0.1098
 1035loPI   C2B15550   5.619  14.668   7.299  0.1245 -0.2712 -0.0254
 1035loPI   C3B15551   5.529  14.706   7.766  0.0119  0.2838  0.0984
 1035loPI   C4B15552   5.512  14.649   8.171 -0.5209  0.0246 -0.2040
 1036loPI    C115553  13.864   7.237   5.986  0.0314  0.2013 -0.0104
 1036loPI    C215554  13.795   7.316   5.599 -0.1760  0.1525  0.0153
 1036loPI    C315555  13.638   7.551   5.882 -0.3546 -0.0407  0.0788
 1036loPI   PO415556  13.785   6.947   6.013  0.0101 -0.4609  0.0069
 1036loPI   GL115557  13.741   6.708   6.342  0.0934  0.0193  0.1379
 1036loPI   GL215558  13.875   7.061   6.521  0.1772 -0.1128 -0.2801
 1036loPI   C1A15559  13.879   6.613   6.781  0.0973  0.0266 -0.1801
 1036loPI   C2A15560  13.803   6.654   7.259  0.0217 -0.1522  0.1557
 1036loPI   C3A15561  13.711   6.649   7.712 -0.0167 -0.1537  0.2595
 1036loPI   C4A15562  13.715   6.539   8.142  0.2429 -0.2412 -0.2689
 1036loPI   C5A15563  13.808   6.361   8.587 -0.0492  0.0786 -0.2665
 1036loPI   C6A15564  13.885   6.231   8.969 -0.2930 -0.1011 -0.0752
 1036loPI   C1B15565  14.050   7.072   7.023 -0.0238  0.0497  0.0699
 1036loPI   C2B15566  14.011   7.017   7.482 -0.1897  0.0114  0.3688
 1036loPI   C3B15567  14.070   6.955   7.966 -0.2436  0.0110 -0.4293
 1036loPI   C4B15568  14.102   6.831   8.422 -0.1542 -0.2882 -0.0087
 1037loPI    C115569   0.795  11.110   6.179  0.2550  0.1047 -0.3146
 1037loPI    C215570   0.524  11.350   6.008 -0.2568 -0.0385  0.2614
 1037loPI    C315571   0.510  10.955   5.945 -0.0686 -0.0297  0.1557
 1037loPI   PO415572   0.764  11.128   6.417  0.2969  0.2815  0.1373
 1037loPI   GL115573   0.799  11.035   6.710  0.0136  0.0503  0.4328
 1037loPI   GL215574   0.445  10.784   6.871  0.1112 -0.0852  0.1977
 1037loPI   C1A15575   0.887  10.834   7.065 -0.1562 -0.1487 -0.0233
 1037loPI   C2A15576   0.995  10.888   7.413  0.0504  0.0914 -0.1562
 1037loPI   C3A15577   0.999  10.901   7.904  0.2802 -0.0898 -0.0361
 1037loPI   C4A15578   1.075  10.955   8.395 -0.1984 -0.0144  0.1332
 1037loPI   C5A15579   1.107  10.793   8.709 -0.1943 -0.0006 -0.1562
 1037loPI   C6A15580   0.898  10.409   8.994  0.0594 -0.2418  0.1282
 1037loPI   C1B15581   0.481  10.658   7.271  0.1084 -0.1161 -0.1963
 1037loPI   C2B15582   0.573  10.617   7.609 -0.1045 -0.1418 -0.2820
 1037loPI   C3B15583   0.699  10.452   8.048  0.1156 -0.0404 -0.1057
 1037loPI   C4B15584   0.731  10.444   8.513  0.3412  0.2470  0.1312
 1038loPI    C115585  13.013  14.922   5.956  0.1481 -0.0816  0.0557
 1038loPI    C215586  12.728  14.759   5.727  0.0989  0.1033 -0.0167
 1038loPI    C315587  13.100  14.800   5.585  0.1089  0.0630 -0.0021
 1038loPI   PO415588  12.865  15.023   6.186 -0.2685 -0.0978 -0.1869
 1038loPI   GL115589  12.809  14.850   6.507  0.2259 -0.3243  0.0588
 1038loPI   GL215590  12.982  15.157   6.634 -0.0051 -0.2149  0.1523
 1038loPI   C1A15591  12.660  14.779   6.965  0.2178  0.1260  0.1266
 1038loPI   C2A15592  12.552  14.768   7.449 -0.1505 -0.2049  0.2126
 1038loPI   C3A15593  12.517  14.781   7.862  0.2586 -0.2464  0.0283
 1038loPI   C4A15594  12.413  14.729   8.252  0.2550 -0.3650  0.2978
 1038loPI   C5A15595  12.373  14.881   8.610 -0.0403  0.0211 -0.1258
 1038loPI   C6A15596  12.441  15.317   8.718  0.0329  0.0457 -0.0617
 1038loPI   C1B15597  13.008  15.246   7.039  0.0131  0.1136 -0.0805
 1038loPI   C2B15598  12.941  15.193   7.362 -0.1374  0.0412  0.0896
 1038loPI   C3B15599  12.953  15.125   7.800 -0.1490  0.0482 -0.0495
 1038loPI   C4B15600  13.230  15.135   8.149  0.1667 -0.0844  0.0341
 1039loPI    C115601  14.180  15.834   6.139 -0.0018  0.1148  0.1014
 1039loPI    C215602  14.271  16.116   5.871 -0.0534 -0.1336 -0.1835
 1039loPI    C315603  14.473  15.772   5.875 -0.2293 -0.2376 -0.0760
 1039loPI   PO415604  14.163  15.939   6.407 -0.2941 -0.0278  0.0375
 1039loPI   GL115605  14.048  15.936   6.753  0.3822  0.1245  0.3508
 1039loPI   GL215606  13.895  16.233   6.693 -0.0062  0.2215 -0.1774
 1039loPI   C1A15607  14.291  15.943   7.092 -0.4075  0.2546 -0.3528
 1039loPI   C2A15608  14.187  15.994   7.517  0.2319 -0.0013  0.3247
 1039loPI   C3A15609  14.336  15.950   7.920  0.0944 -0.1751 -0.1187
 1039loPI   C4A15610  14.285  15.925   8.296 -0.1811  0.0505  0.1573
 1039loPI   C5A15611  14.384  15.931   8.750 -0.1559  0.1217  0.1897
 1039loPI   C6A15612  14.536  16.092   9.065 -0.4986 -0.1177 -0.0840
 1039loPI   C1B15613  13.802  16.019   7.127  0.0649  0.1197 -0.3167
 1039loPI   C2B15614  13.683  15.917   7.576  0.3217 -0.0901  0.2860
 1039loPI   C3B15615  13.829  16.019   8.071 -0.3416 -0.2086  0.4352
 1039loPI   C4B15616  13.875  15.838   8.482 -0.0611 -0.4893  0.0392
 1040loPI    C115617   9.118   8.056   5.829  0.3931  0.1184 -0.1171
 1040loPI    C215618   9.041   7.858   5.490  0.1182  0.1059 -0.0493
 1040loPI    C315619   9.416   7.878   5.629  0.1770 -0.2073 -0.1556
 1040loPI   PO415620   8.841   7.958   5.986 -0.2633  0.1222  0.1018
 1040loPI   GL115621   8.823   7.706   6.344 -0.1371 -0.0058  0.1887
 1040loPI   GL215622   8.474   7.759   6.427 -0.0780  0.2012  0.0758
 1040loPI   C1A15623   8.965   7.737   6.687  0.0091  0.2246 -0.2393
 1040loPI   C2A15624   8.990   7.716   7.242  0.1984  0.2447  0.2228
 1040loPI   C3A15625   8.881   7.769   7.672 -0.0102  0.0314 -0.2197
 1040loPI   C4A15626   8.783   7.769   8.062 -0.1670 -0.3002  0.0406
 1040loPI   C5A15627   8.579   7.965   8.451  0.0205 -0.0119 -0.2206
 1040loPI   C6A15628   8.326   8.123   8.811 -0.0687 -0.2875 -0.0633
 1040loPI   C1B15629   8.457   7.827   6.819  0.0246  0.3349 -0.0347
 1040loPI   C2B15630   8.431   7.805   7.306 -0.0788 -0.0230  0.0878
 1040loPI   C3B15631   8.354   7.823   7.756 -0.2419 -0.0594 -0.0354
 1040loPI   C4B15632   8.204   7.715   8.234  0.2909  0.1247 -0.0103
 1041loPI    C115633  15.448  14.268   6.113  0.0008 -0.0384 -0.0815
 1041loPI    C215634  15.364  14.395   5.743  0.2601  0.0572 -0.1097
 1041loPI    C315635  15.482  14.017   5.803 -0.4650 -0.1726 -0.0318
 1041loPI   PO415636  15.558  14.419   6.218  0.1784 -0.1410 -0.1699
 1041loPI   GL115637  15.656  14.517   6.630  0.1424 -0.0252  0.0170
 1041loPI   GL215638  15.740  14.735   6.767 -0.0240 -0.0889 -0.1486
 1041loPI   C1A15639  15.845  14.260   6.956 -0.1576 -0.1582  0.1294
 1041loPI   C2A15640  15.899  14.256   7.430  0.1784  0.0847 -0.0306
 1041loPI   C3A15641  15.986  14.263   7.989 -0.0811  0.0542 -0.0009
 1041loPI   C4A15642  15.986  14.324   8.404  0.1843  0.1037  0.1684
 1041loPI   C5A15643  15.870  14.134   8.726  0.1634  0.1227  0.0977
 1041loPI   C6A15644  15.938  13.645   8.745 -0.0836  0.1552  0.0681
 1041loPI   C1B15645  15.712  14.736   7.228  0.2570  0.2535  0.5754
 1041loPI   C2B15646  15.774  14.818   7.717  0.1176 -0.0903  0.1153
 1041loPI   C3B15647  15.790  14.733   8.098  0.0627 -0.0735 -0.2729
 1041loPI   C4B15648  15.777  14.777   8.451 -0.2882  0.4141  0.1148
 1042loPI    C115649  10.719  16.529   6.138  0.0027 -0.1996 -0.0086
 1042loPI    C215650  10.362  16.591   5.967  0.0066  0.0229  0.0610
 1042loPI    C315651  10.694  16.736   5.796  0.0618 -0.1614  0.0100
 1042loPI   PO415652  10.718  16.552   6.376  0.0271 -0.3247 -0.2045
 1042loPI   GL115653  10.657  16.545   6.786 -0.0108 -0.0954  0.0482
 1042loPI   GL215654  10.968  16.559   6.909 -0.2467  0.2056 -0.0272
 1042loPI   C1A15655  10.514  16.739   7.176 -0.1126  0.1060  0.2203
 1042loPI   C2A15656  10.655  16.673   7.670 -0.3164 -0.0608 -0.2627
 1042loPI   C3A15657  10.668  16.708   8.151 -0.0557  0.2393  0.1200
 1042loPI   C4A15658  10.863  16.815   8.592 -0.2705 -0.0072 -0.1099
 1042loPI   C5A15659  11.179  16.669   8.987 -0.0219  0.1540 -0.0736
 1042loPI   C6A15660  11.188  16.840   9.362  0.1996  0.4267 -0.1119
 1042loPI   C1B15661  11.072  16.541   7.278  0.1568 -0.1791 -0.1186
 1042loPI   C2B15662  11.145  16.617   7.691 -0.0433 -0.0702 -0.0855
 1042loPI   C3B15663  11.110  16.431   8.089 -0.1472 -0.1523  0.2966
 1042loPI   C4B15664  11.252  16.517   8.501  0.1746  0.0013 -0.1055
 1043loPI    C115665   5.220  15.828   5.750 -0.0702 -0.1325 -0.0785
 1043loPI    C215666   5.002  15.508   5.650 -0.1355 -0.0306 -0.2680
 1043loPI    C315667   5.221  15.694   5.373  0.1523 -0.0993 -0.0907
 1043loPI   PO415668   5.090  15.945   5.986 -0.1336 -0.0583 -0.1543
 1043loPI   GL115669   5.003  16.115   6.427 -0.0524 -0.0294 -0.0352
 1043loPI   GL215670   5.212  15.923   6.542  0.0071 -0.0636 -0.0053
 1043loPI   C1A15671   5.222  16.418   6.704  0.0669 -0.0883 -0.1505
 1043loPI   C2A15672   5.126  16.449   7.174  0.0973 -0.1521 -0.1774
 1043loPI   C3A15673   5.178  16.400   7.591  0.0080 -0.0245  0.0774
 1043loPI   C4A15674   5.242  16.462   7.988 -0.1930 -0.0934  0.0960
 1043loPI   C5A15675   5.259  16.424   8.448 -0.0536 -0.0381 -0.0758
 1043loPI   C6A15676   5.100  16.370   8.899 -0.0959 -0.1113  0.0290
 1043loPI   C1B15677   5.055  15.971   6.924 -0.1157  0.1138  0.1728
 1043loPI   C2B15678   5.116  15.875   7.301  0.1900 -0.4042  0.0333
 1043loPI   C3B15679   5.126  15.957   7.782  0.0913 -0.1291  0.1245
 1043loPI   C4B15680   5.055  15.897   8.243 -0.0601  0.1502  0.3415
 1044loPI    C115681   8.149  12.382   5.910 -0.0279 -0.0704  0.0157
 1044loPI    C215682   8.514  12.537   5.865  0.0499 -0.2148  0.1413
 1044loPI    C315683   8.471  12.151   5.961 -0.1377 -0.2215  0.0353
 1044loPI   PO415684   8.046  12.461   6.103  0.4430  0.2119  0.0786
 1044loPI   GL115685   7.852  12.532   6.530 -0.1962 -0.2188 -0.0514
 1044loPI   GL215686   8.034  12.811   6.540 -0.0411 -0.1645  0.0273
 1044loPI   C1A15687   7.664  12.598   6.936 -0.0650 -0.2778 -0.0385
 1044loPI   C2A15688   7.594  12.676   7.376 -0.6275  0.3033 -0.4188
 1044loPI   C3A15689   7.677  12.711   7.896  0.3535 -0.0764  0.1095
 1044loPI   C4A15690   7.632  12.840   8.311  0.2727  0.2551  0.2247
 1044loPI   C5A15691   7.316  12.825   8.629  0.2897 -0.1034  0.1522
 1044loPI   C6A15692   6.954  12.633   8.888 -0.1802 -0.0422 -0.1488
 1044loPI   C1B15693   8.117  12.757   7.040  0.3215  0.2588  0.1036
 1044loPI   C2B15694   8.095  12.829   7.467 -0.1902  0.0093 -0.1620
 1044loPI   C3B15695   8.114  12.910   7.915  0.0600  0.2364 -0.0498
 1044loPI   C4B15696   8.074  12.961   8.438  0.1359  0.0089  0.0934
 1045loPI    C115697   2.216   2.197   5.950 -0.0961 -0.0450 -0.0785
 1045loPI    C215698   1.998   2.217   5.615  0.2270  0.2413 -0.2790
 1045loPI    C315699   2.395   2.263   5.598  0.2971 -0.1596  0.0941
 1045loPI   PO415700   1.920   2.180   6.126  0.3093 -0.2537  0.1364
 1045loPI   GL115701   1.864   2.336   6.458 -0.2913  0.0060  0.1077
 1045loPI   GL215702   1.739   2.515   6.708 -0.1048  0.1074  0.0933
 1045loPI   C1A15703   1.873   2.058   6.828  0.2653 -0.2399  0.0398
 1045loPI   C2A15704   1.925   1.935   7.236  0.1482  0.1158 -0.0300
 1045loPI   C3A15705   1.940   2.028   7.667 -0.3368  0.0987  0.0546
 1045loPI   C4A15706   1.994   1.951   8.031  0.1167 -0.1960 -0.3011
 1045loPI   C5A15707   2.023   2.010   8.459 -0.2862  0.0096  0.0995
 1045loPI   C6A15708   2.021   1.982   8.899  0.0361 -0.1064  0.0706
 1045loPI   C1B15709   1.737   2.475   7.160 -0.2034 -0.1315  0.0000
 1045loPI   C2B15710   1.723   2.505   7.594 -0.2009  0.0331 -0.0265
 1045loPI   C3B15711   1.805   2.492   7.945  0.1203  0.1883 -0.1371
 1045loPI   C4B15712   1.865   2.539   8.455  0.0680 -0.1126 -0.0754
 1046loPI    C115713  16.567   9.894   6.161  0.0381 -0.1843  0.5708
 1046loPI    C215714  16.842   9.612   6.095 -0.1291 -0.2613  0.1751
 1046loPI    C315715  16.934   9.997   6.039 -0.1008 -0.2869  0.0420
 1046loPI   PO415716  16.355   9.870   6.346 -0.0145  0.0160  0.0311
 1046loPI   GL115717  16.198   9.643   6.696  0.3035  0.3011  0.1948
 1046loPI   GL215718  15.964   9.680   6.871 -0.2050 -0.1315 -0.1746
 1046loPI   C1A15719  16.444   9.559   7.191 -0.1533 -0.3157 -0.0494
 1046loPI   C2A15720  16.541   9.416   7.515 -0.1368 -0.0369  0.0041
 1046loPI   C3A15721  16.485   9.418   7.904  0.3402 -0.1185  0.1573
 1046loPI   C4A15722  16.520   9.542   8.356  0.0941 -0.0435  0.0881
 1046loPI   C5A15723  16.802   9.672   8.552  0.0420  0.0706 -0.2013
 1046loPI   C6A15724  17.249   9.596   8.744 -0.1012 -0.0905  0.1436
 1046loPI   C1B15725  15.991   9.570   7.367  0.1088 -0.1729 -0.1602
 1046loPI   C2B15726  16.040   9.563   7.815 -0.0435 -0.0713 -0.0307
 1046loPI   C3B15727  16.063   9.478   8.219 -0.1954 -0.2453  0.0082
 1046loPI   C4B15728  15.866   9.475   8.704 -0.0592 -0.2726 -0.1885
 1047loPI    C115729  14.976   4.625   5.915 -0.0840  0.0033 -0.0099
 1047loPI    C215730  15.241   4.343   5.813  0.2032  0.1807  0.2296
 1047loPI    C315731  15.187   4.661   5.577 -0.2563 -0.1558 -0.1360
 1047loPI   PO415732  14.969   4.519   6.187 -0.0529 -0.0578 -0.3767
 1047loPI   GL115733  14.954   4.864   6.451  0.0440  0.0251  0.3205
 1047loPI   GL215734  15.113   4.731   6.623  0.2564  0.0713  0.0471
 1047loPI   C1A15735  14.820   5.060   6.841 -0.0208  0.0924 -0.1152
 1047loPI   C2A15736  14.836   5.095   7.262  0.0239  0.1149 -0.3145
 1047loPI   C3A15737  14.775   5.125   7.692 -0.0658 -0.0266  0.0814
 1047loPI   C4A15738  14.804   4.901   7.996  0.1104 -0.2380 -0.2014
 1047loPI   C5A15739  14.820   4.735   8.439 -0.2750 -0.1223 -0.1781
 1047loPI   C6A15740  15.041   4.813   8.786 -0.2907  0.0147 -0.0093
 1047loPI   C1B15741  15.094   4.578   6.948  0.0889 -0.1061 -0.0639
 1047loPI   C2B15742  15.030   4.624   7.435 -0.0652  0.0488 -0.0422
 1047loPI   C3B15743  15.034   4.457   7.846  0.2276 -0.2817 -0.4775
 1047loPI   C4B15744  15.063   4.277   8.298 -0.2329  0.0789  0.2888
 1048loPI    C115745   5.504  10.289   6.221  0.0328 -0.0867 -0.1802
 1048loPI    C215746   5.778  10.472   5.994 -0.0513  0.0577 -0.1660
 1048loPI    C315747   5.449  10.318   5.826  0.0656 -0.1688 -0.1912
 1048loPI   PO415748   5.543  10.466   6.416  0.3692 -0.1415  0.0293
 1048loPI   GL115749   5.553  10.686   6.814  0.0173 -0.3238  0.0611
 1048loPI   GL215750   5.813  10.442   6.830 -0.1523  0.2208 -0.0085
 1048loPI   C1A15751   5.487  10.798   7.202  0.2537 -0.0095  0.3369
 1048loPI   C2A15752   5.529  10.937   7.554  0.0066 -0.0425 -0.0472
 1048loPI   C3A15753   5.313  11.098   7.847 -0.0326  0.0992  0.0855
 1048loPI   C4A15754   5.278  11.082   8.228  0.0190 -0.0417  0.1669
 1048loPI   C5A15755   5.326  10.974   8.628 -0.2460 -0.1188 -0.0984
 1048loPI   C6A15756   5.752  10.769   8.602  0.0838 -0.1625 -0.1583
 1048loPI   C1B15757   5.916  10.335   7.303  0.1006 -0.3112  0.4307
 1048loPI   C2B15758   5.818  10.426   7.697 -0.1690 -0.0347  0.0507
 1048loPI   C3B15759   5.473  10.608   7.881 -0.2064  0.2802  0.3473
 1048loPI   C4B15760   5.442  10.633   8.277 -0.0879  0.3142  0.1501
 1049loPI    C115761  16.164   8.927   6.094  0.0773 -0.1645 -0.0962
 1049loPI    C215762  15.891   8.854   5.810 -0.1118  0.0082  0.0383
 1049loPI    C315763  16.192   9.107   5.738  0.0664 -0.2499 -0.1405
 1049loPI   PO415764  15.982   8.959   6.330  0.2760  0.1421  0.0477
 1049loPI   GL115765  16.153   9.138   6.734 -0.0864  0.2652  0.3633
 1049loPI   GL215766  15.795   9.105   6.798  0.0099  0.1299  0.0303
 1049loPI   C1A15767  16.241   9.127   7.207 -0.0980 -0.1667  0.3022
 1049loPI   C2A15768  16.190   9.068   7.678  0.1418  0.0708  0.3965
 1049loPI   C3A15769  16.149   8.923   8.046 -0.1600 -0.5544 -0.0542
 1049loPI   C4A15770  16.331   9.110   8.517  0.1872 -0.0926  0.1397
 1049loPI   C5A15771  16.130   9.149   8.945  0.1858 -0.0246  0.0475
 1049loPI   C6A15772  15.756   9.330   9.165 -0.2649  0.2213  0.0519
 1049loPI   C1B15773  15.701   9.216   7.177 -0.0084  0.0051 -0.1898
 1049loPI   C2B15774  15.709   9.236   7.655  0.2507 -0.2863  0.1157
 1049loPI   C3B15775  15.666   9.050   8.054 -0.1434 -0.0876 -0.0044
 1049loPI   C4B15776  15.755   9.025   8.510 -0.0238 -0.2301  0.0343
 1050loPI    C115777  16.842   1.600   6.234  0.1884 -0.0316  0.0942
 1050loPI    C215778  17.150   1.440   6.036  0.0929 -0.0560 -0.0361
 1050loPI    C315779  16.796   1.481   5.855  0.0108 -0.0564  0.1225
 1050loPI   PO415780  16.800   1.507   6.448  0.1445  0.0591  0.0491
 1050loPI   GL115781  16.768   1.548   6.836 -0.2011  0.1575  0.3335
 1050loPI   GL215782  17.037   1.428   6.915  0.0274 -0.0530  0.1925
 1050loPI   C1A15783  16.705   1.455   7.268 -0.1423  0.0124 -0.0432
 1050loPI   C2A15784  16.645   1.410   7.694  0.0407 -0.1530 -0.0074
 1050loPI   C3A15785  16.698   1.549   8.071 -0.1174  0.1664 -0.0715
 1050loPI   C4A15786  16.762   1.628   8.490  0.0312  0.5104 -0.0254
 1050loPI   C5A15787  17.070   1.558   8.798 -0.1728 -0.0351 -0.0826
 1050loPI   C6A15788  17.381   1.340   8.855 -0.2318 -0.1979 -0.2011
 1050loPI   C1B15789  17.171   1.311   7.324 -0.3176  0.1823  0.0855
 1050loPI   C2B15790  17.179   1.381   7.724 -0.1604  0.0674 -0.0668
 1050loPI   C3B15791  17.189   1.327   8.098 -0.0101 -0.1316  0.1151
 1050loPI   C4B15792  17.251   1.576   8.333 -0.0751  0.1438  0.0234
 1051loPI    C115793   0.865  11.874   6.132 -0.3562  0.1429 -0.0930
 1051loPI    C215794   0.642  11.814   5.806  0.0042 -0.1820 -0.2885
 1051loPI    C315795   1.018  11.946   5.770 -0.0783  0.1543  0.0233
 1051loPI   PO415796   0.838  11.632   6.291 -0.1237  0.0304  0.2100
 1051loPI   GL115797   0.732  11.583   6.768  0.0951 -0.0809  0.0754
 1051loPI   GL215798   1.021  11.576   6.776  0.0427  0.1445 -0.0925
 1051loPI   C1A15799   0.630  11.693   7.252 -0.1163 -0.2082  0.1026
 1051loPI   C2A15800   0.699  11.647   7.738 -0.1802  0.2410  0.0276
 1051loPI   C3A15801   0.691  11.478   8.154  0.1380 -0.0492 -0.1852
 1051loPI   C4A15802   1.029  11.424   8.497 -0.0147 -0.1991  0.1615
 1051loPI   C5A15803   1.470  11.275   8.547 -0.3156 -0.3276  0.0593
 1051loPI   C6A15804   1.828  11.254   8.928 -0.0895 -0.0240  0.0727
 1051loPI   C1B15805   1.120  11.396   7.054  0.1192 -0.0756 -0.2241
 1051loPI   C2B15806   1.088  11.452   7.495 -0.3715  0.1198  0.0303
 1051loPI   C3B15807   1.133  11.412   8.003 -0.3169  0.2119 -0.0390
 1051loPI   C4B15808   1.376  11.784   8.120 -0.0034  0.3078 -0.0660
 1052loPI    C115809   2.202   4.367   5.762 -0.1742 -0.2797  0.1789
 1052loPI    C215810   1.906   4.592   5.617 -0.0685 -0.2355  0.0290
 1052loPI    C315811   2.058   4.296   5.395  0.3316  0.0558 -0.0969
 1052loPI   PO415812   2.219   4.524   6.061  0.2120 -0.2062 -0.1125
 1052loPI   GL115813   2.194   4.473   6.579 -0.2750 -0.0071  0.0592
 1052loPI   GL215814   1.931   4.741   6.513  0.0458 -0.0494  0.4957
 1052loPI   C1A15815   2.144   4.258   6.889  0.2625 -0.1072 -0.1490
 1052loPI   C2A15816   1.998   4.328   7.257 -0.1210 -0.1669 -0.1924
 1052loPI   C3A15817   2.002   4.237   7.781 -0.3144  0.0413  0.1110
 1052loPI   C4A15818   2.063   4.329   8.237 -0.0612 -0.0807  0.0432
 1052loPI   C5A15819   2.091   4.524   8.679  0.1828  0.0507 -0.0472
 1052loPI   C6A15820   2.038   4.848   9.110 -0.3518  0.1600 -0.0440
 1052loPI   C1B15821   1.868   4.827   6.880 -0.0076  0.0387  0.1334
 1052loPI   C2B15822   1.866   4.762   7.344 -0.2230  0.1454 -0.0983
 1052loPI   C3B15823   1.821   4.728   7.790  0.0471  0.1076  0.0332
 1052loPI   C4B15824   1.887   4.790   8.171  0.1908  0.3083  0.3139
 1053loPI    C115825  13.024  16.056   6.412  0.1956 -0.0872 -0.0256
 1053loPI    C215826  13.071  16.235   6.058  0.0780 -0.4362 -0.2222
 1053loPI    C315827  12.828  15.920   6.092 -0.1120 -0.2496  0.2263
 1053loPI   PO415828  13.245  15.974   6.529  0.0554 -0.1003 -0.0761
 1053loPI   GL115829  13.289  16.098   6.871 -0.2715 -0.1184 -0.2641
 1053loPI   GL215830  13.361  16.391   6.841  0.1519 -0.0686  0.0809
 1053loPI   C1A15831  13.119  16.154   7.217 -0.1812 -0.1102 -0.0130
 1053loPI   C2A15832  13.142  16.016   7.669 -0.1712 -0.0157 -0.0922
 1053loPI   C3A15833  13.245  16.068   8.105 -0.1151  0.0840 -0.0527
 1053loPI   C4A15834  13.406  15.963   8.416 -0.0820 -0.0526 -0.1209
 1053loPI   C5A15835  13.649  16.117   8.840  0.0554 -0.1002  0.2424
 1053loPI   C6A15836  14.047  16.202   8.945 -0.1172 -0.0953  0.2828
 1053loPI   C1B15837  13.631  16.435   7.245 -0.2214 -0.0215  0.1289
 1053loPI   C2B15838  13.484  16.536   7.590 -0.0300  0.1878 -0.1841
 1053loPI   C3B15839  13.556  16.483   8.025  0.0215 -0.0123 -0.1093
 1053loPI   C4B15840  13.777  16.446   8.458 -0.1421 -0.1054  0.5271
 1054loPI    C115841   1.527  13.547   5.983  0.0039 -0.0220 -0.2104
 1054loPI    C215842   1.587  13.922   5.857 -0.0356  0.0473 -0.0264
 1054loPI    C315843   1.330  13.684   5.663  0.1591  0.0400 -0.2808
 1054loPI   PO415844   1.489  13.598   6.276  0.2333 -0.1223  0.0758
 1054loPI   GL115845   1.252  13.803   6.718 -0.2647  0.1330 -0.0720
 1054loPI   GL215846   1.254  14.010   6.530  0.1467  0.1737 -0.0061
 1054loPI   C1A15847   1.206  13.914   7.209 -0.0225 -0.2256 -0.2132
 1054loPI   C2A15848   1.182  13.966   7.606  0.0117  0.0960 -0.2858
 1054loPI   C3A15849   1.216  14.049   8.050 -0.1091  0.0387  0.0039
 1054loPI   C4A15850   1.163  14.123   8.479 -0.1435  0.0991 -0.0067
 1054loPI   C5A15851   1.169  14.181   8.888  0.0310 -0.1646 -0.0201
 1054loPI   C6A15852   0.829  14.178   9.119 -0.1415  0.3403  0.2583
 1054loPI   C1B15853   1.022  14.251   6.932  0.3502 -0.4915  0.0773
 1054loPI   C2B15854   1.005  14.354   7.339 -0.1086  0.0935 -0.0307
 1054loPI   C3B15855   1.031  14.471   7.774 -0.0783  0.1662 -0.0627
 1054loPI   C4B15856   0.992  14.539   8.138  0.4115  0.2162  0.1582
 1055loPI    C115857   6.970  11.582   5.954 -0.0962 -0.2563  0.1860
 1055loPI    C215858   7.265  11.607   5.686  0.0719 -0.2359  0.3705
 1055loPI    C315859   6.952  11.369   5.616  0.0093 -0.0687  0.0603
 1055loPI   PO415860   6.968  11.703   6.157  0.1930  0.1544  0.0357
 1055loPI   GL115861   7.177  11.750   6.575  0.1732 -0.1732 -0.2612
 1055loPI   GL215862   7.526  11.979   6.642 -0.1650  0.0093 -0.1811
 1055loPI   C1A15863   7.100  11.813   7.014  0.0998  0.2060 -0.0200
 1055loPI   C2A15864   7.085  11.898   7.418 -0.0893 -0.0763  0.1376
 1055loPI   C3A15865   7.164  11.935   7.840  0.1214 -0.2896  0.0705
 1055loPI   C4A15866   7.228  11.927   8.286  0.2149  0.0262  0.1636
 1055loPI   C5A15867   7.069  11.842   8.551  0.1194  0.0144  0.0865
 1055loPI   C6A15868   6.886  12.136   8.869  0.0062 -0.1666  0.0482
 1055loPI   C1B15869   7.582  12.158   7.143 -0.2367  0.1526  0.1142
 1055loPI   C2B15870   7.588  12.132   7.539 -0.2423  0.2656  0.2950
 1055loPI   C3B15871   7.597  12.101   7.988  0.3791  0.2461 -0.1722
 1055loPI   C4B15872   7.713  12.258   8.425 -0.0618 -0.2625 -0.3198
 1056loPI    C115873  16.913   3.053   5.798 -0.0342 -0.1239 -0.3820
 1056loPI    C215874  17.278   2.964   5.935 -0.1791  0.0360  0.1338
 1056loPI    C315875  17.207   2.967   5.541  0.3191 -0.1956  0.0338
 1056loPI   PO415876  16.820   3.147   6.091 -0.1892 -0.0148 -0.1813
 1056loPI   GL115877  16.635   3.061   6.447  0.0466 -0.0137 -0.1239
 1056loPI   GL215878  17.025   3.142   6.547  0.4085 -0.3410 -0.1754
 1056loPI   C1A15879  16.666   2.853   6.816  0.0825  0.4616 -0.0908
 1056loPI   C2A15880  16.594   2.844   7.185 -0.0438 -0.3670 -0.0910
 1056loPI   C3A15881  16.581   2.835   7.635  0.0382  0.0124 -0.0777
 1056loPI   C4A15882  16.551   2.906   8.025  0.1142 -0.3799  0.0161
 1056loPI   C5A15883  16.577   2.817   8.364  0.0947 -0.4117  0.2222
 1056loPI   C6A15884  16.722   3.146   8.611  0.3134 -0.0167  0.3314
 1056loPI   C1B15885  16.968   3.232   6.965  0.1780  0.1270 -0.0843
 1056loPI   C2B15886  16.881   3.223   7.327  0.0177 -0.0168  0.1239
 1056loPI   C3B15887  16.920   3.205   7.760  0.0216 -0.0601  0.0150
 1056loPI   C4B15888  16.894   3.265   8.134 -0.0842 -0.0666  0.1381
 1057loPI    C115889  14.394   4.834   5.657  0.1514 -0.0639 -0.0130
 1057loPI    C215890  14.373   4.861   5.259  0.1289 -0.1016 -0.0144
 1057loPI    C315891  14.712   4.740   5.434  0.0462 -0.3717 -0.0372
 1057loPI   PO415892  14.213   4.793   5.718 -0.1873  0.1461 -0.4420
 1057loPI   GL115893  13.929   4.783   6.133 -0.0241 -0.0912  0.1137
 1057loPI   GL215894  14.031   5.039   6.183 -0.1388 -0.0535  0.1432
 1057loPI   C1A15895  14.008   4.729   6.694  0.1435  0.0188 -0.2306
 1057loPI   C2A15896  13.923   4.651   7.115  0.1377  0.3240  0.1623
 1057loPI   C3A15897  13.969   4.769   7.539  0.1839  0.0750 -0.2165
 1057loPI   C4A15898  14.055   4.667   7.914 -0.1654 -0.0036  0.2270
 1057loPI   C5A15899  14.225   4.561   8.377  0.0313 -0.1001 -0.2454
 1057loPI   C6A15900  14.036   4.316   8.665  0.1913 -0.0779 -0.0736
 1057loPI   C1B15901  13.856   5.190   6.568  0.0017  0.0897  0.1542
 1057loPI   C2B15902  13.745   5.099   6.987  0.1493 -0.3211  0.2193
 1057loPI   C3B15903  13.822   5.299   7.319  0.0509  0.0749  0.0193
 1057loPI   C4B15904  13.851   5.216   7.763 -0.0625  0.0347  0.0375
 1058loPI    C115905  16.488   2.911   5.620  0.1099  0.1038 -0.1092
 1058loPI    C215906  16.185   3.117   5.460 -0.1347 -0.1551  0.0085
 1058loPI    C315907  16.325   2.791   5.275 -0.1540 -0.2290  0.1237
 1058loPI   PO415908  16.432   2.874   5.996 -0.0907  0.0146 -0.1304
 1058loPI   GL115909  16.170   2.977   6.474  0.2986  0.1426 -0.0741
 1058loPI   GL215910  15.964   3.173   6.531 -0.1871 -0.2987  0.1115
 1058loPI   C1A15911  16.151   2.915   6.941  0.1333  0.0552  0.2619
 1058loPI   C2A15912  16.043   2.990   7.305  0.3050 -0.1411 -0.0375
 1058loPI   C3A15913  16.087   2.985   7.720 -0.0464  0.2351  0.3931
 1058loPI   C4A15914  16.102   2.977   8.137  0.1431  0.2034  0.5019
 1058loPI   C5A15915  16.016   2.856   8.514  0.0064 -0.1449  0.2345
 1058loPI   C6A15916  16.129   2.427   8.724 -0.0766  0.1794 -0.0209
 1058loPI   C1B15917  15.908   3.418   6.913  0.0674  0.0300 -0.1286
 1058loPI   C2B15918  15.971   3.516   7.399  0.0500  0.0939 -0.0852
 1058loPI   C3B15919  15.922   3.418   7.870 -0.0578  0.0062  0.0540
 1058loPI   C4B15920  15.870   3.361   8.228  0.0850 -0.3120  0.1695
 1059loPI    C115921   1.282   7.846   5.920 -0.1605 -0.1305 -0.0115
 1059loPI    C215922   1.419   8.208   5.819 -0.0052 -0.1447  0.1453
 1059loPI    C315923   1.255   7.972   5.541  0.2161 -0.0954 -0.0297
 1059loPI   PO415924   1.463   7.761   6.130  0.2863  0.1663 -0.1563
 1059loPI   GL115925   1.653   7.984   6.549  0.0148  0.0606 -0.1407
 1059loPI   GL215926   2.000   8.056   6.697 -0.3879  0.4238 -0.2349
 1059loPI   C1A15927   1.601   8.138   7.032  0.1687 -0.1548  0.1144
 1059loPI   C2A15928   1.539   8.146   7.396  0.0094 -0.0224  0.2433
 1059loPI   C3A15929   1.669   8.131   7.782 -0.2596  0.0473 -0.1139
 1059loPI   C4A15930   1.583   7.969   8.170  0.0014  0.0613 -0.1261
 1059loPI   C5A15931   1.642   7.925   8.602 -0.2837 -0.0998  0.2050
 1059loPI   C6A15932   1.655   8.157   8.910 -0.0455 -0.0195  0.0769
 1059loPI   C1B15933   2.045   8.014   7.123  0.1376  0.1136  0.0727
 1059loPI   C2B15934   2.084   7.921   7.619  0.3546 -0.1006 -0.0056
 1059loPI   C3B15935   2.070   7.883   7.988 -0.2464 -0.0596 -0.0756
 1059loPI   C4B15936   2.154   7.784   8.468  0.0506 -0.1575  0.1814
 1060loPI    C115937  14.437  10.390   6.202  0.2729  0.0296 -0.1970
 1060loPI    C215938  14.304  10.297   5.837  0.1854  0.0783 -0.1777
 1060loPI    C315939  14.673  10.190   5.948  0.1053 -0.2013 -0.1736
 1060loPI   PO415940  14.171  10.374   6.331 -0.2793 -0.1715 -0.1576
 1060loPI   GL115941  14.045  10.180   6.667 -0.0503  0.1526 -0.1360
 1060loPI   GL215942  14.073   9.903   6.798  0.2206 -0.1339 -0.1948
 1060loPI   C1A15943  14.277  10.308   7.078 -0.0766 -0.1907 -0.3323
 1060loPI   C2A15944  14.243  10.363   7.400  0.1992  0.0560 -0.0574
 1060loPI   C3A15945  14.214  10.367   7.868  0.0919  0.2912  0.0811
 1060loPI   C4A15946  14.289  10.460   8.261  0.4759  0.2845  0.0044
 1060loPI   C5A15947  14.208  10.587   8.653 -0.0246 -0.0148 -0.0182
 1060loPI   C6A15948  14.142  10.987   8.870 -0.1048 -0.1513  0.0801
 1060loPI   C1B15949  13.873   9.963   7.230 -0.3565 -0.3598  0.3091
 1060loPI   C2B15950  13.836   9.833   7.733  0.1403 -0.0143 -0.0664
 1060loPI   C3B15951  14.022   9.971   8.156 -0.1591  0.2278  0.0069
 1060loPI   C4B15952  13.927   9.784   8.544 -0.1079 -0.2973 -0.3713
 1061loPI    C115953   8.164   6.486   5.787  0.0008 -0.0132 -0.1133
 1061loPI    C215954   8.423   6.702   5.572  0.3045 -0.1415  0.1157
 1061loPI    C315955   8.474   6.307   5.608  0.0996 -0.1617  0.1997
 1061loPI   PO415956   8.110   6.628   5.955 -0.0682  0.1963 -0.2229
 1061loPI   GL115957   7.860   6.718   6.338  0.1843 -0.0389  0.1036
 1061loPI   GL215958   7.857   6.991   6.421 -0.0971 -0.1037 -0.0439
 1061loPI   C1A15959   7.966   6.553   6.659  0.1808  0.2184  0.1406
 1061loPI   C2A15960   7.903   6.525   7.217  0.0751  0.1580 -0.1888
 1061loPI   C3A15961   7.919   6.462   7.673 -0.0046 -0.0276 -0.1012
 1061loPI   C4A15962   7.965   6.572   8.125 -0.0452  0.2010  0.0573
 1061loPI   C5A15963   8.111   6.797   8.507 -0.1657  0.0865 -0.1248
 1061loPI   C6A15964   8.465   6.963   8.664 -0.0180 -0.2955 -0.0783
 1061loPI   C1B15965   7.809   7.012   6.930 -0.0225 -0.1418  0.0742
 1061loPI   C2B15966   7.835   7.003   7.239 -0.0619  0.0027  0.0087
 1061loPI   C3B15967   7.694   6.984   7.704  0.0026 -0.0803 -0.1520
 1061loPI   C4B15968   7.751   7.119   8.115  0.2839 -0.2051  0.0331
 1062loPI    C115969   0.655   1.850   5.777  0.2584 -0.2391  0.0267
 1062loPI    C215970   0.914   2.155   5.756  0.1707 -0.1711 -0.0828
 1062loPI    C315971   0.939   1.852   5.495  0.0261 -0.0735 -0.2119
 1062loPI   PO415972   0.631   1.806   6.068 -0.0487  0.1115  0.0845
 1062loPI   GL115973   0.691   1.900   6.443  0.1791 -0.3584 -0.2343
 1062loPI   GL215974   0.471   2.041   6.608 -0.0609 -0.0367 -0.0449
 1062loPI   C1A15975   0.627   1.651   6.890  0.1190  0.1606  0.1254
 1062loPI   C2A15976   0.690   1.651   7.258 -0.1630  0.2865 -0.1117
 1062loPI   C3A15977   0.713   1.652   7.681  0.0250  0.2780 -0.0755
 1062loPI   C4A15978   0.745   1.712   8.078 -0.1088 -0.2466 -0.1742
 1062loPI   C5A15979   0.712   1.734   8.466  0.1548  0.1961 -0.1689
 1062loPI   C6A15980   0.497   1.563   8.821  0.0583  0.0096 -0.1922
 1062loPI   C1B15981   0.435   2.187   6.992  0.0282  0.1605 -0.1317
 1062loPI   C2B15982   0.457   2.188   7.381 -0.0411  0.1129  0.2954
 1062loPI   C3B15983   0.477   2.175   7.853 -0.0278 -0.2192 -0.0201
 1062loPI   C4B15984   0.508   2.385   8.221 -0.0728 -0.2116  0.1263
 1063loPI    C115985   7.035  12.392   5.836  0.3038  0.0053 -0.0534
 1063loPI    C215986   7.200  12.095   6.047  0.2682 -0.0281 -0.0726
 1063loPI    C315987   6.986  12.013   5.719  0.1105  0.0067  0.0204
 1063loPI   PO415988   6.902  12.516   6.059 -0.2435  0.1680  0.1225
 1063loPI   GL115989   6.604  12.407   6.456 -0.0014  0.3095 -0.1594
 1063loPI   GL215990   6.839  12.104   6.533  0.3594  0.1979 -0.0118
 1063loPI   C1A15991   6.708  12.646   6.701  0.3356 -0.0289  0.1226
 1063loPI   C2A15992   6.774  12.785   7.186 -0.0863  0.0705 -0.0540
 1063loPI   C3A15993   6.797  12.714   7.628  0.2142  0.2785  0.1540
 1063loPI   C4A15994   6.830  12.772   8.079 -0.0290  0.1798 -0.1010
 1063loPI   C5A15995   6.850  12.879   8.450  0.0137 -0.2138  0.1413
 1063loPI   C6A15996   6.736  13.154   8.740 -0.0841  0.2034  0.0295
 1063loPI   C1B15997   6.698  12.162   6.947 -0.0533 -0.2851  0.3350
 1063loPI   C2B15998   6.661  12.230   7.371  0.2018  0.0946  0.2707
 1063loPI   C3B15999   6.793  12.238   7.812 -0.1836 -0.3064  0.0337
 1063loPI   C4B16000   6.864  12.238   8.204 -0.1147 -0.1312 -0.0722
 1064loPI    C116001   6.591   3.928   5.911  0.0420  0.1203  0.0307
 1064loPI    C216002   6.607   3.569   5.735  0.0153  0.1125  0.0443
 1064loPI    C316003   6.460   3.883   5.536  0.0358  0.1152  0.0335
 1064loPI   PO416004   6.432   3.849   6.160 -0.2482 -0.1047  0.0054
 1064loPI   GL116005   6.477   3.938   6.633 -0.3799 -0.0778 -0.0245
 1064loPI   GL216006   6.591   3.682   6.609  0.1931  0.0271  0.2052
 1064loPI   C1A16007   6.546   4.012   7.016  0.0188 -0.1360  0.2704
 1064loPI   C2A16008   6.535   4.050   7.443 -0.1900  0.0127 -0.3661
 1064loPI   C3A16009   6.427   4.043   7.890 -0.1072  0.1165  0.0267
 1064loPI   C4A16010   6.568   4.023   8.235  0.0170  0.1773 -0.0365
 1064loPI   C5A16011   6.858   3.838   8.525  0.2668  0.1025  0.2359
 1064loPI   C6A16012   6.783   3.414   8.681 -0.0115 -0.1909 -0.1158
 1064loPI   C1B16013   6.613   3.522   7.018  0.2304 -0.2465 -0.2021
 1064loPI   C2B16014   6.636   3.567   7.419  0.3499  0.0319  0.1441
 1064loPI   C3B16015   6.713   3.540   7.791  0.3460 -0.1566 -0.2321
 1064loPI   C4B16016   6.663   3.465   8.212  0.0182 -0.0803  0.1596
 1065loPI    C116017   4.890   2.073   5.946  0.0501 -0.2181  0.0099
 1065loPI    C216018   4.996   2.109   5.562 -0.1166 -0.1409 -0.0298
 1065loPI    C316019   4.642   1.951   5.657 -0.0551 -0.2052  0.0943
 1065loPI   PO416020   5.036   1.997   6.085 -0.1631  0.0789  0.2322
 1065loPI   GL116021   5.081   1.775   6.425 -0.1227 -0.0491 -0.2196
 1065loPI   GL216022   4.828   1.529   6.427 -0.2766 -0.0174  0.3979
 1065loPI   C1A16023   5.039   1.901   6.863  0.0261  0.2326  0.0634
 1065loPI   C2A16024   5.000   1.892   7.299 -0.3582 -0.1797  0.0010
 1065loPI   C3A16025   4.970   1.983   7.636  0.0296 -0.1309 -0.2545
 1065loPI   C4A16026   4.836   2.163   7.945  0.2158  0.0133  0.3876
 1065loPI   C5A16027   4.696   1.928   8.257 -0.1579 -0.0941 -0.0826
 1065loPI   C6A16028   4.624   1.932   8.690  0.1756 -0.0709  0.1225
 1065loPI   C1B16029   4.705   1.548   6.809 -0.0587 -0.1396  0.0076
 1065loPI   C2B16030   4.587   1.562   7.289 -0.2130  0.0191  0.3613
 1065loPI   C3B16031   4.500   1.672   7.741  0.1337  0.1890  0.0732
 1065loPI   C4B16032   4.406   1.572   8.217 -0.0512  0.1179 -0.1036
 1066loPI    C116033   3.589  15.503   5.870  0.1472 -0.0313  0.2383
 1066loPI    C216034   3.786  15.812   5.709 -0.0964 -0.0062 -0.0199
 1066loPI    C316035   3.406  15.741   5.606 -0.0053 -0.4674 -0.0609
 1066loPI   PO416036   3.577  15.509   6.117 -0.1404 -0.1156 -0.0160
 1066loPI   GL116037   3.736  15.433   6.558 -0.1560 -0.1108 -0.4176
 1066loPI   GL216038   3.536  15.764   6.534  0.1555  0.1683  0.2488
 1066loPI   C1A16039   3.673  15.235   6.970 -0.0258 -0.2091 -0.0228
 1066loPI   C2A16040   3.770  15.296   7.333  0.0665 -0.0313  0.3186
 1066loPI   C3A16041   3.808  15.279   7.753  0.0015  0.0714  0.0661
 1066loPI   C4A16042   3.845  15.319   8.207 -0.1181 -0.2648 -0.3342
 1066loPI   C5A16043   3.840  15.366   8.576  0.0969  0.0399 -0.0129
 1066loPI   C6A16044   4.100  15.501   8.832 -0.1210  0.1019 -0.0335
 1066loPI   C1B16045   3.432  15.960   6.980 -0.3936 -0.2115 -0.0527
 1066loPI   C2B16046   3.355  15.973   7.451  0.1295 -0.0157  0.0526
 1066loPI   C3B16047   3.431  15.975   7.883 -0.1544 -0.2510 -0.2039
 1066loPI   C4B16048   3.327  15.942   8.350  0.0746  0.0620  0.2025
 1067loPI    C116049   5.203   9.347   5.744 -0.0800  0.1974 -0.1274
 1067loPI    C216050   5.548   9.167   5.653  0.0693  0.2776  0.2636
 1067loPI    C316051   5.348   9.368   5.371  0.0930 -0.1713 -0.0844
 1067loPI   PO416052   5.219   9.411   5.984 -0.0419 -0.1088 -0.1064
 1067loPI   GL116053   5.281   9.312   6.330  0.0288  0.1797 -0.1486
 1067loPI   GL216054   5.069   9.461   6.437  0.2449  0.2220 -0.1341
 1067loPI   C1A16055   5.423   9.194   6.709  0.0025  0.1167 -0.3024
 1067loPI   C2A16056   5.395   9.225   7.105 -0.0026  0.3169 -0.0172
 1067loPI   C3A16057   5.438   9.189   7.567  0.2345  0.0931 -0.1101
 1067loPI   C4A16058   5.500   9.097   8.003  0.1057 -0.1417  0.0621
 1067loPI   C5A16059   5.356   9.211   8.426  0.3831  0.2293  0.1823
 1067loPI   C6A16060   4.912   9.294   8.457 -0.0336  0.0443 -0.2114
 1067loPI   C1B16061   4.902   9.326   6.760 -0.2450 -0.0310 -0.1550
 1067loPI   C2B16062   4.848   9.244   7.180 -0.4713  0.1411  0.0437
 1067loPI   C3B16063   4.923   9.264   7.585 -0.0941 -0.1519 -0.0650
 1067loPI   C4B16064   4.958   9.316   7.977  0.0589  0.2657 -0.2644
 1068loPI    C116065  13.441   1.268   5.878 -0.0328  0.2245 -0.1964
 1068loPI    C216066  13.197   0.958   5.944 -0.0799  0.3146  0.0629
 1068loPI    C316067  13.183   1.153   5.595 -0.0643  0.0396 -0.0939
 1068loPI   PO416068  13.498   1.412   6.061 -0.0091 -0.0652  0.0882
 1068loPI   GL116069  13.488   1.465   6.506 -0.2077 -0.2472  0.1446
 1068loPI   GL216070  13.185   1.537   6.577 -0.2214 -0.0264  0.2231
 1068loPI   C1A16071  13.702   1.551   6.833  0.1362  0.0396  0.2127
 1068loPI   C2A16072  13.745   1.492   7.181 -0.1945  0.2079 -0.1089
 1068loPI   C3A16073  13.760   1.544   7.621 -0.1284 -0.2303  0.0716
 1068loPI   C4A16074  13.697   1.466   8.013 -0.0254 -0.0751  0.1483
 1068loPI   C5A16075  13.730   1.458   8.459  0.2357 -0.0619  0.0182
 1068loPI   C6A16076  13.900   1.635   8.900  0.0421  0.0905  0.0670
 1068loPI   C1B16077  13.162   1.539   7.046 -0.2626 -0.0040 -0.2192
 1068loPI   C2B16078  13.194   1.550   7.515 -0.1593  0.2073  0.0083
 1068loPI   C3B16079  13.186   1.590   7.967 -0.0182  0.2874  0.1688
 1068loPI   C4B16080  13.234   1.626   8.333 -0.1078 -0.1767 -0.0131
 1069loPI    C116081  14.276   1.074   5.956 -0.0210 -0.0082  0.0849
 1069loPI    C216082  13.972   1.228   5.746  0.0950  0.3574  0.1765
 1069loPI    C316083  14.317   1.429   5.775  0.3088  0.0005  0.1701
 1069loPI   PO416084  14.246   1.015   6.233 -0.0371 -0.0208 -0.0204
 1069loPI   GL116085  14.128   1.221   6.591  0.0411  0.0952  0.0280
 1069loPI   GL216086  13.807   1.132   6.644  0.0897 -0.0221 -0.2196
 1069loPI   C1A16087  14.201   1.365   6.961  0.2401 -0.0125  0.0662
 1069loPI   C2A16088  14.197   1.436   7.422  0.0134  0.1265  0.0600
 1069loPI   C3A16089  14.275   1.432   7.804 -0.1329  0.3009  0.0617
 1069loPI   C4A16090  14.220   1.400   8.227 -0.1603  0.2370 -0.0172
 1069loPI   C5A16091  14.296   1.612   8.555  0.1471 -0.0023  0.1420
 1069loPI   C6A16092  14.371   1.539   9.067 -0.0308  0.0163 -0.1416
 1069loPI   C1B16093  13.748   1.021   7.052  0.0714  0.0255 -0.1337
 1069loPI   C2B16094  13.750   1.064   7.551  0.1225 -0.0800  0.0952
 1069loPI   C3B16095  13.910   1.046   7.991 -0.1441 -0.0056  0.0583
 1069loPI   C4B16096  13.743   0.979   8.383 -0.3006  0.2785 -0.0887
 1070loPI    C116097  10.139   9.980   5.833  0.1694 -0.2428  0.0482
 1070loPI    C216098   9.895  10.094   5.538 -0.0395 -0.0137  0.3033
 1070loPI    C316099  10.226   9.886   5.454 -0.2902 -0.2835 -0.0536
 1070loPI   PO416100  10.124  10.228   6.061  0.0451  0.0781  0.1629
 1070loPI   GL116101  10.134  10.425   6.473  0.0790 -0.0282  0.4046
 1070loPI   GL216102  10.461  10.531   6.646  0.1780 -0.3487 -0.0369
 1070loPI   C1A16103  10.150  10.181   6.852  0.4543 -0.1265  0.2519
 1070loPI   C2A16104  10.037  10.074   7.277 -0.1192 -0.1973  0.2662
 1070loPI   C3A16105  10.139  10.002   7.699 -0.1222  0.2393  0.1646
 1070loPI   C4A16106   9.991   9.858   8.067  0.0452 -0.0308 -0.1771
 1070loPI   C5A16107   9.796   9.871   8.478 -0.0620 -0.1231 -0.2653
 1070loPI   C6A16108   9.712   9.743   8.937  0.0682  0.1392  0.0310
 1070loPI   C1B16109  10.371  10.607   7.051  0.2966  0.4474  0.1684
 1070loPI   C2B16110  10.307  10.487   7.467 -0.3666 -0.0544  0.0769
 1070loPI   C3B16111  10.425  10.405   7.856 -0.0548 -0.2137 -0.0670
 1070loPI   C4B16112  10.359  10.154   8.160  0.3669 -0.1188 -0.1336
 1071loPI    C116113   5.586   1.373   5.829 -0.0458  0.1481 -0.0923
 1071loPI    C216114   5.422   1.657   6.059  0.0390  0.1767 -0.0670
 1071loPI    C316115   5.773   1.723   5.879  0.1471  0.0219  0.0839
 1071loPI   PO416116   5.578   1.145   6.019 -0.2237 -0.0444 -0.2049
 1071loPI   GL116117   5.716   0.870   6.287  0.2754  0.1266 -0.0349
 1071loPI   GL216118   5.976   0.915   6.259 -0.1790 -0.2764  0.4120
 1071loPI   C1A16119   5.681   0.875   6.703 -0.0733 -0.1754 -0.2455
 1071loPI   C2A16120   5.679   0.926   7.103 -0.1006 -0.0897  0.1033
 1071loPI   C3A16121   5.652   1.007   7.474  0.0636 -0.0852 -0.0779
 1071loPI   C4A16122   5.687   1.028   7.901  0.0487  0.0311  0.2522
 1071loPI   C5A16123   5.855   1.185   8.332  0.2626 -0.3390 -0.1598
 1071loPI   C6A16124   5.623   1.361   8.649  0.0682  0.1720 -0.2316
 1071loPI   C1B16125   6.110   1.115   6.683 -0.2221 -0.0549 -0.0223
 1071loPI   C2B16126   6.180   1.174   7.132  0.0831  0.3168  0.1627
 1071loPI   C3B16127   6.207   1.246   7.537  0.0776  0.0430 -0.0055
 1071loPI   C4B16128   6.170   1.387   7.992 -0.0046 -0.0168  0.0461
 1072loPI    C116129  16.149   5.390   6.032 -0.1407 -0.2551 -0.1589
 1072loPI    C216130  15.848   5.129   6.006 -0.1419 -0.2474 -0.2224
 1072loPI    C316131  15.972   5.325   5.680 -0.2706 -0.0229 -0.1384
 1072loPI   PO416132  16.085   5.538   6.190 -0.3235  0.2195  0.2725
 1072loPI   GL116133  16.156   5.527   6.620 -0.3378 -0.0232 -0.1748
 1072loPI   GL216134  16.335   5.729   6.743  0.2308 -0.0366 -0.1409
 1072loPI   C1A16135  16.166   5.276   7.072  0.1697 -0.0357  0.5740
 1072loPI   C2A16136  16.236   5.216   7.530 -0.0068  0.2435 -0.3511
 1072loPI   C3A16137  16.129   5.268   7.991 -0.1638  0.0400  0.0693
 1072loPI   C4A16138  16.203   5.208   8.412  0.0794 -0.0218 -0.0680
 1072loPI   C5A16139  16.373   5.015   8.752 -0.0752  0.1774 -0.6685
 1072loPI   C6A16140  16.730   4.707   8.821  0.2136 -0.2200 -0.2924
 1072loPI   C1B16141  16.436   5.631   7.235  0.2646  0.0206 -0.0326
 1072loPI   C2B16142  16.406   5.625   7.748 -0.0248  0.1001 -0.2906
 1072loPI   C3B16143  16.472   5.637   8.220 -0.2313  0.2097 -0.0137
 1072loPI   C4B16144  16.517   5.524   8.591  0.3219  0.0150  0.0800
 1073loPI    C116145   8.536   4.642   5.550  0.0312 -0.1936  0.0176
 1073loPI    C216146   8.218   4.722   5.321  0.1902 -0.0092 -0.1428
 1073loPI    C316147   8.482   4.443   5.208  0.2669  0.0792 -0.1838
 1073loPI   PO416148   8.406   4.612   5.836 -0.3189  0.1198 -0.1338
 1073loPI   GL116149   8.423   4.418   6.236  0.0950  0.0439  0.3242
 1073loPI   GL216150   8.721   4.647   6.310  0.6081  0.0237 -0.0902
 1073loPI   C1A16151   8.392   4.272   6.635  0.3092  0.1664 -0.0208
 1073loPI   C2A16152   8.364   4.207   7.059  0.0244  0.0073 -0.0053
 1073loPI   C3A16153   8.446   4.314   7.462 -0.0279  0.1603  0.1474
 1073loPI   C4A16154   8.344   4.264   7.882  0.1560  0.1724 -0.1739
 1073loPI   C5A16155   8.441   4.255   8.312  0.2152 -0.4807  0.1211
 1073loPI   C6A16156   8.280   4.274   8.668  0.2149 -0.0959  0.0839
 1073loPI   C1B16157   8.759   4.710   6.724  0.0041  0.1453 -0.1068
 1073loPI   C2B16158   8.712   4.619   7.138 -0.0208 -0.2351 -0.1796
 1073loPI   C3B16159   8.705   4.696   7.559  0.0745 -0.3658 -0.0319
 1073loPI   C4B16160   8.707   4.572   8.018  0.2829 -0.1772  0.0232
 1074loPI    C116161   5.611  15.215   5.942 -0.1343 -0.0068 -0.0024
 1074loPI    C216162   5.397  15.134   5.614  0.0697  0.0129 -0.1415
 1074loPI    C316163   5.578  15.489   5.652  0.2613 -0.0849 -0.1262
 1074loPI   PO416164   5.444  15.119   6.160 -0.0694  0.1744 -0.1437
 1074loPI   GL116165   5.205  15.198   6.492  0.1835 -0.2151  0.1590
 1074loPI   GL216166   5.451  15.054   6.672  0.1911 -0.0345  0.0150
 1074loPI   C1A16167   5.027  15.015   6.900  0.1506  0.2454 -0.2020
 1074loPI   C2A16168   5.094  14.949   7.372  0.0495  0.2228 -0.0539
 1074loPI   C3A16169   5.115  14.949   7.764  0.1629  0.1994  0.1793
 1074loPI   C4A16170   5.141  14.953   8.155  0.1495  0.2257  0.0720
 1074loPI   C5A16171   4.866  14.775   8.493 -0.0908 -0.0537 -0.2568
 1074loPI   C6A16172   4.600  14.529   8.649 -0.0017 -0.1573  0.1232
 1074loPI   C1B16173   5.505  15.128   7.040 -0.0918  0.1155 -0.0042
 1074loPI   C2B16174   5.556  15.168   7.494  0.1075 -0.0352  0.0117
 1074loPI   C3B16175   5.576  15.161   7.981  0.0751 -0.0686 -0.3379
 1074loPI   C4B16176   5.817  15.075   8.339  0.2367  0.1773  0.0072
 1075loPI    C116177   4.017   3.655   5.967 -0.2242  0.0274  0.1684
 1075loPI    C216178   4.204   3.877   5.692 -0.2117 -0.1764  0.0100
 1075loPI    C316179   4.027   3.535   5.585 -0.2826 -0.2133  0.2412
 1075loPI   PO416180   3.912   3.829   6.103  0.0169 -0.2036 -0.0590
 1075loPI   GL116181   3.780   4.039   6.428 -0.3994  0.1255  0.1568
 1075loPI   GL216182   3.893   4.401   6.462  0.2915 -0.2901  0.0137
 1075loPI   C1A16183   3.710   3.830   6.757  0.1696  0.0828  0.2110
 1075loPI   C2A16184   3.615   3.993   7.126 -0.0974 -0.2751 -0.1223
 1075loPI   C3A16185   3.526   4.027   7.545  0.0001  0.1929 -0.1680
 1075loPI   C4A16186   3.638   4.032   7.875 -0.0222  0.0799  0.3174
 1075loPI   C5A16187   3.582   4.167   8.307 -0.1299 -0.0618  0.1740
 1075loPI   C6A16188   3.736   3.839   8.556  0.0536 -0.0115 -0.0702
 1075loPI   C1B16189   4.002   4.347   6.917 -0.0199 -0.2661  0.1807
 1075loPI   C2B16190   3.972   4.347   7.414  0.1126  0.2331 -0.1520
 1075loPI   C3B16191   3.962   4.503   7.815 -0.1565  0.0661 -0.0709
 1075loPI   C4B16192   3.933   4.557   8.342  0.1071  0.2685  0.1383
 1076loPI    C116193  13.742   4.749   5.672  0.1535  0.2490 -0.1909
 1076loPI    C216194  13.490   4.714   5.363  0.1744  0.0583 -0.1880
 1076loPI    C316195  13.859   4.857   5.306  0.1144  0.2029 -0.2172
 1076loPI   PO416196  13.518   4.617   5.888 -0.0235 -0.0402  0.2016
 1076loPI   GL116197  13.279   4.695   6.169  0.0351  0.1364 -0.1066
 1076loPI   GL216198  12.933   4.573   6.140  0.3138 -0.2416 -0.2946
 1076loPI   C1A16199  13.453   4.793   6.592  0.0396 -0.2458 -0.2217
 1076loPI   C2A16200  13.442   4.743   7.042 -0.1959 -0.1338 -0.1024
 1076loPI   C3A16201  13.464   4.829   7.498  0.2374  0.0461 -0.2053
 1076loPI   C4A16202  13.572   4.789   7.866  0.2299 -0.1830  0.0694
 1076loPI   C5A16203  13.562   4.721   8.223  0.0114  0.3876  0.0179
 1076loPI   C6A16204  13.339   4.900   8.475  0.1860 -0.2425  0.2247
 1076loPI   C1B16205  12.910   4.873   6.466 -0.0959 -0.0636  0.0647
 1076loPI   C2B16206  12.934   4.970   6.969  0.1581  0.0331 -0.1560
 1076loPI   C3B16207  12.942   4.948   7.375  0.1408 -0.0215 -0.1120
 1076loPI   C4B16208  13.016   4.893   7.818  0.0315  0.0094 -0.1408
 1077loPI    C116209   2.418   4.973   5.914  0.3846  0.3370 -0.0099
 1077loPI    C216210   2.698   4.823   5.671  0.1986  0.1431 -0.1082
 1077loPI    C316211   2.327   4.887   5.534  0.1088  0.0928  0.1070
 1077loPI   PO416212   2.458   5.096   6.040  0.0221 -0.1475 -0.0712
 1077loPI   GL116213   2.364   4.950   6.446 -0.1732 -0.1331  0.0275
 1077loPI   GL216214   2.688   5.066   6.445 -0.2195 -0.0106 -0.1842
 1077loPI   C1A16215   2.207   5.212   6.686 -0.0215 -0.0158  0.3907
 1077loPI   C2A16216   2.203   5.188   7.035  0.0880  0.1522 -0.0669
 1077loPI   C3A16217   2.239   5.201   7.511  0.2715 -0.1727 -0.1017
 1077loPI   C4A16218   2.118   5.171   7.906  0.0827 -0.3940  0.3161
 1077loPI   C5A16219   2.089   5.237   8.346 -0.0822 -0.1238  0.0759
 1077loPI   C6A16220   1.825   4.976   8.639 -0.3030  0.2554 -0.0154
 1077loPI   C1B16221   2.730   5.154   6.866 -0.0854 -0.0883  0.2359
 1077loPI   C2B16222   2.651   5.036   7.233  0.0026  0.0071  0.2524
 1077loPI   C3B16223   2.755   5.128   7.714 -0.2588  0.0554  0.0558
 1077loPI   C4B16224   2.681   5.093   8.113  0.0321 -0.0687 -0.1173
 1078loPI    C116225   5.835   4.515   5.415  0.0488 -0.0888 -0.2230
 1078loPI    C216226   5.499   4.711   5.320 -0.0009 -0.0308  0.0622
 1078loPI    C316227   5.534   4.321   5.236 -0.0851 -0.0064 -0.0898
 1078loPI   PO416228   5.877   4.616   5.674  0.0461 -0.0270  0.1931
 1078loPI   GL116229   5.782   4.536   6.123  0.1513 -0.0682 -0.0865
 1078loPI   GL216230   5.624   4.306   6.198  0.2155 -0.1515 -0.0741
 1078loPI   C1A16231   5.790   4.605   6.580 -0.2751  0.1426  0.0548
 1078loPI   C2A16232   5.756   4.593   7.043 -0.4534 -0.1128 -0.3827
 1078loPI   C3A16233   5.826   4.597   7.486 -0.1626 -0.1373  0.2404
 1078loPI   C4A16234   5.787   4.581   7.924  0.0448  0.4492 -0.0826
 1078loPI   C5A16235   5.658   4.332   8.288  0.0089 -0.0700 -0.1005
 1078loPI   C6A16236   5.372   4.231   8.424  0.1320  0.1163 -0.0125
 1078loPI   C1B16237   5.558   4.156   6.574  0.2925 -0.0404  0.2129
 1078loPI   C2B16238   5.453   4.068   6.969 -0.0362  0.0855 -0.0652
 1078loPI   C3B16239   5.427   4.155   7.365 -0.0461 -0.3451 -0.1408
 1078loPI   C4B16240   5.463   4.206   7.769  0.3226 -0.0441 -0.1054
 1079loPI    C116241   2.420  13.236   6.121  0.0310  0.2023 -0.0901
 1079loPI    C216242   2.442  13.625   6.032 -0.2334  0.1826 -0.2516
 1079loPI    C316243   2.463  13.351   5.741  0.2378  0.0601 -0.1117
 1079loPI   PO416244   2.552  13.235   6.312  0.0427  0.0254 -0.0228
 1079loPI   GL116245   2.577  13.256   6.753 -0.1562 -0.0208 -0.0095
 1079loPI   GL216246   2.296  13.378   6.918  0.3106 -0.1292  0.0925
 1079loPI   C1A16247   2.650  13.105   7.176  0.2555  0.2011  0.2284
 1079loPI   C2A16248   2.708  13.161   7.569  0.1003 -0.1110 -0.0407
 1079loPI   C3A16249   2.842  13.224   7.954  0.1695 -0.0441 -0.0587
 1079loPI   C4A16250   2.922  13.185   8.412  0.1670  0.0202  0.0920
 1079loPI   C5A16251   3.112  13.245   8.902  0.0714 -0.2356  0.2215
 1079loPI   C6A16252   2.999  13.564   9.184 -0.2122 -0.0526 -0.0533
 1079loPI   C1B16253   2.283  13.475   7.302  0.0140 -0.0444  0.2381
 1079loPI   C2B16254   2.322  13.536   7.784 -0.1552  0.1078 -0.2046
 1079loPI   C3B16255   2.478  13.401   8.209 -0.0281  0.1195  0.0017
 1079loPI   C4B16256   2.249  13.440   8.499 -0.3481 -0.0381  0.0889
 1080loPI    C116257   1.871   6.729   5.759  0.0170  0.2024  0.0394
 1080loPI    C216258   1.669   7.050   5.632 -0.3803 -0.0063  0.1286
 1080loPI    C316259   1.614   6.696   5.454  0.1204 -0.0140 -0.0266
 1080loPI   PO416260   1.855   6.790   5.995  0.1425  0.0746 -0.1059
 1080loPI   GL116261   1.508   6.952   6.342  0.0618 -0.1380  0.1452
 1080loPI   GL216262   1.184   6.800   6.463 -0.0141  0.2435  0.1329
 1080loPI   C1A16263   1.671   7.002   6.686 -0.1057 -0.0683 -0.0958
 1080loPI   C2A16264   1.901   7.113   7.009 -0.1060  0.0197  0.0071
 1080loPI   C3A16265   1.958   7.121   7.387 -0.3069 -0.2050 -0.1099
 1080loPI   C4A16266   1.976   7.032   7.834 -0.1718  0.0176 -0.0021
 1080loPI   C5A16267   1.903   6.946   8.212 -0.0690  0.0951  0.2373
 1080loPI   C6A16268   1.775   7.260   8.553 -0.1025  0.1081 -0.3921
 1080loPI   C1B16269   1.227   6.806   6.802  0.0939 -0.0705 -0.4702
 1080loPI   C2B16270   1.447   6.835   7.087 -0.0411  0.1776  0.0222
 1080loPI   C3B16271   1.448   6.643   7.450 -0.5010 -0.0303 -0.2301
 1080loPI   C4B16272   1.642   6.615   7.893 -0.2956 -0.0361  0.0953
 1081loPI    C116273   2.263   2.703   5.753  0.0134  0.0397 -0.1295
 1081loPI    C216274   2.017   2.654   5.441 -0.0290 -0.0624 -0.0806
 1081loPI    C316275   2.269   2.965   5.451 -0.2492  0.1184 -0.0693
 1081loPI   PO416276   2.131   2.661   6.037 -0.1718 -0.1100 -0.0932
 1081loPI   GL116277   2.378   2.572   6.434 -0.0403 -0.0676  0.0405
 1081loPI   GL216278   2.128   2.815   6.513 -0.1866 -0.0920 -0.1025
 1081loPI   C1A16279   2.205   2.450   6.815 -0.0261 -0.1799  0.0880
 1081loPI   C2A16280   2.238   2.343   7.215  0.0239 -0.2820  0.0086
 1081loPI   C3A16281   2.219   2.401   7.637 -0.1109  0.2301 -0.0729
 1081loPI   C4A16282   2.251   2.388   8.099  0.2302 -0.0473  0.0830
 1081loPI   C5A16283   2.398   2.538   8.453 -0.0109  0.2100  0.0592
 1081loPI   C6A16284   2.272   2.851   8.752 -0.1859  0.1644 -0.0323
 1081loPI   C1B16285   2.153   2.901   6.966  0.1477 -0.0294 -0.0769
 1081loPI   C2B16286   2.162   2.918   7.343  0.0340  0.0594  0.0374
 1081loPI   C3B16287   2.088   2.875   7.767  0.0721  0.1325  0.2061
 1081loPI   C4B16288   2.202   2.916   8.190 -0.2365 -0.1181  0.0936
 1082loPI    C116289  14.209   5.775   5.691 -0.0181 -0.0271 -0.1227
 1082loPI    C216290  14.454   6.002   5.471  0.1673  0.0095  0.1182
 1082loPI    C316291  14.196   5.755   5.292  0.3025  0.0521 -0.1396
 1082loPI   PO416292  14.147   5.968   5.965 -0.0652  0.0662 -0.0985
 1082loPI   GL116293  14.139   5.839   6.372  0.1534  0.1799 -0.2469
 1082loPI   GL216294  13.995   5.627   6.344  0.2291 -0.0639  0.1919
 1082loPI   C1A16295  13.980   6.080   6.786  0.0178 -0.3631  0.2480
 1082loPI   C2A16296  14.037   6.214   7.100  0.0525 -0.1136 -0.2411
 1082loPI   C3A16297  13.908   6.222   7.500  0.1812  0.1858  0.2095
 1082loPI   C4A16298  13.935   6.092   7.835 -0.1399 -0.0151  0.0101
 1082loPI   C5A16299  13.990   5.917   8.357  0.4315 -0.1041  0.1669
 1082loPI   C6A16300  14.115   5.467   8.454 -0.0778 -0.2983 -0.0592
 1082loPI   C1B16301  14.043   5.604   6.789 -0.1178  0.0471 -0.1666
 1082loPI   C2B16302  14.087   5.754   7.209 -0.0810 -0.0690 -0.1598
 1082loPI   C3B16303  14.131   5.671   7.634  0.0573 -0.2559  0.3315
 1082loPI   C4B16304  14.099   5.614   7.969  0.1193  0.0767  0.0801
 1083loPI    C116305   3.986  11.962   6.070 -0.1641 -0.1504  0.0792
 1083loPI    C216306   3.607  12.035   5.964 -0.0991 -0.0841 -0.1118
 1083loPI    C316307   3.897  12.044   5.688  0.0068 -0.3884 -0.0144
 1083loPI   PO416308   3.949  12.095   6.320  0.0402 -0.0755  0.1890
 1083loPI   GL116309   3.980  11.781   6.677  0.1558 -0.1866  0.1238
 1083loPI   GL216310   4.324  11.981   6.686  0.1172 -0.1602  0.0781
 1083loPI   C1A16311   4.039  11.766   7.128 -0.0733 -0.2670  0.3728
 1083loPI   C2A16312   4.234  11.818   7.533  0.1193  0.0973  0.0004
 1083loPI   C3A16313   4.566  11.723   7.728  0.0823  0.3414  0.1435
 1083loPI   C4A16314   4.727  11.503   8.137  0.0957 -0.1971  0.2106
 1083loPI   C5A16315   5.091  11.440   8.520  0.0475 -0.0805  0.1157
 1083loPI   C6A16316   5.302  11.773   8.871  0.1428 -0.0036  0.3367
 1083loPI   C1B16317   4.475  11.970   7.132 -0.2479  0.0614  0.1852
 1083loPI   C2B16318   4.522  12.230   7.485  0.0645  0.1626  0.1446
 1083loPI   C3B16319   4.573  12.194   7.945 -0.1862  0.0501  0.0449
 1083loPI   C4B16320   4.539  11.938   8.168  0.1020 -0.1172 -0.2377
 1084loPI    C116321   4.668  16.635   5.734 -0.0910 -0.0411 -0.0059
 1084loPI    C216322   4.633  16.979   5.532  0.0948 -0.0971 -0.1355
 1084loPI    C316323   4.349  16.699   5.501  0.1145 -0.0994 -0.3106
 1084loPI   PO416324   4.756  16.759   6.029  0.1180  0.0748 -0.0715
 1084loPI   GL116325   4.691  16.562   6.461 -0.0421  0.0972  0.2273
 1084loPI   GL216326   4.857  16.804   6.585 -0.0012 -0.0141  0.1483
 1084loPI   C1A16327   4.698  16.366   6.838 -0.2231 -0.0898 -0.0851
 1084loPI   C2A16328   4.678  16.202   7.251 -0.0441 -0.1108  0.2125
 1084loPI   C3A16329   4.714  16.273   7.643 -0.2703  0.0799 -0.2387
 1084loPI   C4A16330   4.790  16.290   8.051  0.0143 -0.0577  0.1827
 1084loPI   C5A16331   4.731  16.466   8.457 -0.3713 -0.0232 -0.1244
 1084loPI   C6A16332   4.954  16.778   8.626 -0.1060 -0.1358 -0.0580
 1084loPI   C1B16333   4.715  17.047   6.962 -0.2530  0.0323  0.0727
 1084loPI   C2B16334   4.660  17.086   7.374 -0.1101  0.0133  0.0433
 1084loPI   C3B16335   4.743  16.763   7.651 -0.0240 -0.0831  0.2346
 1084loPI   C4B16336   4.827  16.786   8.075 -0.0573 -0.0694 -0.0243
 1085loPI    C116337   8.845  16.206   5.696 -0.1236 -0.0259  0.2525
 1085loPI    C216338   8.481  16.182   5.532 -0.0206  0.1374 -0.0064
 1085loPI    C316339   8.772  16.381   5.343  0.2402 -0.1045  0.1342
 1085loPI   PO416340   8.805  16.268   5.933  0.0181  0.2143 -0.1975
 1085loPI   GL116341   8.647  16.108   6.383  0.1675 -0.3209 -0.0328
 1085loPI   GL216342   8.393  15.939   6.483  0.0832 -0.1137  0.0889
 1085loPI   C1A16343   8.834  16.210   6.790 -0.1049  0.2222  0.1230
 1085loPI   C2A16344   8.803  16.250   7.308 -0.1324 -0.2637 -0.0702
 1085loPI   C3A16345   8.820  16.089   7.649  0.1169  0.1829 -0.1612
 1085loPI   C4A16346   8.862  16.228   8.074  0.1113  0.0945 -0.1006
 1085loPI   C5A16347   9.010  16.388   8.442 -0.0868 -0.0290  0.0346
 1085loPI   C6A16348   9.061  16.289   8.828 -0.0887 -0.3387 -0.0532
 1085loPI   C1B16349   8.496  15.888   6.937 -0.1754 -0.0333 -0.0823
 1085loPI   C2B16350   8.410  15.889   7.452  0.1099 -0.0046  0.1313
 1085loPI   C3B16351   8.344  15.924   7.881  0.0693  0.2012  0.2421
 1085loPI   C4B16352   8.241  16.117   8.162 -0.0658 -0.2241 -0.0193
 1086loPI    C116353   3.525   0.778   5.822  0.1506 -0.0683  0.0150
 1086loPI    C216354   3.130   0.818   5.778  0.1560  0.0451  0.0664
 1086loPI    C316355   3.279   0.489   5.949  0.0834  0.0058  0.0543
 1086loPI   PO416356   3.557   1.055   5.993 -0.0607  0.2512  0.1208
 1086loPI   GL116357   3.601   1.224   6.416 -0.0545  0.2694  0.0684
 1086loPI   GL216358   3.794   1.503   6.576  0.0255 -0.1579  0.0289
 1086loPI   C1A16359   3.795   1.046   6.860  0.1816  0.0486  0.1423
 1086loPI   C2A16360   3.794   1.206   7.162  0.1888 -0.1295  0.0115
 1086loPI   C3A16361   3.693   1.355   7.615  0.0916 -0.0912  0.1402
 1086loPI   C4A16362   3.637   1.197   8.040 -0.0488  0.0750 -0.0029
 1086loPI   C5A16363   3.577   1.192   8.480 -0.0542 -0.0269 -0.1729
 1086loPI   C6A16364   3.815   1.375   8.841 -0.1840 -0.5020  0.4571
 1086loPI   C1B16365   3.632   1.637   6.931  0.1502  0.1274 -0.0270
 1086loPI   C2B16366   3.671   1.747   7.268 -0.0841  0.0835 -0.3506
 1086loPI   C3B16367   3.416   1.837   7.601 -0.1264  0.1438  0.1536
 1086loPI   C4B16368   3.462   1.704   8.042 -0.0663  0.0708  0.1054
 1087loPI    C116369  13.791  10.897   6.136 -0.0011  0.0709 -0.0368
 1087loPI    C216370  14.080  10.745   5.906 -0.0711 -0.1351  0.0094
 1087loPI    C316371  13.730  10.852   5.744 -0.0166 -0.0078 -0.0254
 1087loPI   PO416372  13.875  10.834   6.382  0.1198  0.2847  0.1200
 1087loPI   GL116373  14.087  10.709   6.721  0.1396 -0.0305  0.1963
 1087loPI   GL216374  14.378  10.648   6.742 -0.1740 -0.1432  0.1266
 1087loPI   C1A16375  14.047  10.779   7.172  0.0709 -0.1754  0.1489
 1087loPI   C2A16376  13.954  10.769   7.674 -0.1839 -0.1893  0.0137
 1087loPI   C3A16377  14.133  10.851   8.032 -0.1921  0.1461 -0.0613
 1087loPI   C4A16378  14.326  10.978   8.389 -0.0793 -0.2397  0.0149
 1087loPI   C5A16379  14.527  11.159   8.619  0.1042 -0.0094  0.4041
 1087loPI   C6A16380  14.531  11.390   9.094 -0.3233 -0.0125  0.2867
 1087loPI   C1B16381  14.536  10.688   7.190  0.2892  0.2918  0.1937
 1087loPI   C2B16382  14.464  10.859   7.600 -0.0658 -0.2392  0.0125
 1087loPI   C3B16383  14.616  10.767   8.043 -0.1618  0.0771  0.4007
 1087loPI   C4B16384  14.709  10.676   8.526  0.3266 -0.2803  0.3039
 1088loPI    C116385   5.401  11.392   6.270 -0.2252  0.0452  0.1467
 1088loPI    C216386   5.391  11.565   5.909  0.0984 -0.1204  0.0543
 1088loPI    C316387   5.169  11.240   5.982 -0.3132  0.1746  0.1488
 1088loPI   PO416388   5.276  11.612   6.429 -0.2002 -0.0283 -0.2676
 1088loPI   GL116389   5.382  11.755   6.798 -0.3608  0.3037 -0.0829
 1088loPI   GL216390   5.332  12.038   6.687 -0.0147 -0.3552  0.2427
 1088loPI   C1A16391   5.740  11.727   7.147 -0.2101 -0.0937 -0.1404
 1088loPI   C2A16392   5.812  11.830   7.615  0.0326 -0.0623  0.1642
 1088loPI   C3A16393   5.815  11.814   8.034 -0.0707  0.1705  0.1664
 1088loPI   C4A16394   5.977  11.857   8.380  0.0832  0.1793  0.0500
 1088loPI   C5A16395   6.041  11.725   8.763  0.1845 -0.2390  0.0642
 1088loPI   C6A16396   5.777  11.587   9.106 -0.0433 -0.1150  0.0784
 1088loPI   C1B16397   5.330  12.048   7.147 -0.1718 -0.1426  0.0900
 1088loPI   C2B16398   5.403  12.154   7.606  0.0512 -0.2578 -0.0558
 1088loPI   C3B16399   5.405  12.208   8.093 -0.2849 -0.2916 -0.1201
 1088loPI   C4B16400   5.458  12.174   8.568  0.0701 -0.1606 -0.1876
 1089loPI    C116401   7.022   8.452   6.020 -0.0648  0.1977  0.0048
 1089loPI    C216402   6.816   8.376   5.686  0.0541  0.0245 -0.0305
 1089loPI    C316403   7.176   8.549   5.664  0.0208  0.1002  0.0149
 1089loPI   PO416404   6.866   8.446   6.185  0.0227  0.2240 -0.0591
 1089loPI   GL116405   6.669   8.451   6.607  0.0153  0.1493 -0.0102
 1089loPI   GL216406   6.541   8.225   6.487 -0.4999  0.0845  0.1253
 1089loPI   C1A16407   6.642   8.443   7.033  0.0196  0.0150  0.0119
 1089loPI   C2A16408   6.573   8.524   7.437  0.0842  0.3088  0.0448
 1089loPI   C3A16409   6.742   8.456   7.804 -0.2057 -0.0239  0.3152
 1089loPI   C4A16410   6.740   8.526   8.227 -0.3176  0.1388 -0.0570
 1089loPI   C5A16411   7.053   8.789   8.453  0.2538  0.0179  0.0421
 1089loPI   C6A16412   6.918   9.022   8.863  0.0627  0.3531  0.1243
 1089loPI   C1B16413   6.301   8.126   6.866 -0.0486  0.1343  0.3864
 1089loPI   C2B16414   6.359   8.117   7.342  0.0157  0.0779  0.0938
 1089loPI   C3B16415   6.412   8.119   7.759 -0.0379  0.3588 -0.1050
 1089loPI   C4B16416   6.374   8.167   8.225  0.2354  0.1078 -0.1310
 1090loPI    C116417  10.596   2.105   5.800 -0.0215 -0.0053 -0.0248
 1090loPI    C216418  10.545   2.318   5.466  0.1786  0.0778 -0.0035
 1090loPI    C316419  10.739   1.969   5.453  0.0719  0.0178  0.0044
 1090loPI   PO416420  10.364   2.120   5.979 -0.3688 -0.0446  0.0842
 1090loPI   GL116421  10.346   2.329   6.317  0.0864 -0.1233 -0.1544
 1090loPI   GL216422  10.438   1.992   6.568  0.1307 -0.0234 -0.1326
 1090loPI   C1A16423  10.492   2.589   6.604  0.1007  0.1239  0.0118
 1090loPI   C2A16424  10.430   2.606   7.037 -0.2279  0.0802 -0.0618
 1090loPI   C3A16425  10.423   2.533   7.438  0.2561 -0.0106 -0.0046
 1090loPI   C4A16426  10.480   2.674   7.850  0.2276 -0.1365 -0.0499
 1090loPI   C5A16427  10.676   2.558   8.251  0.2897  0.0696 -0.0777
 1090loPI   C6A16428  11.052   2.374   8.438  0.1938  0.0037  0.0664
 1090loPI   C1B16429  10.525   2.171   6.898 -0.1567  0.0445 -0.0066
 1090loPI   C2B16430  10.590   2.010   7.333  0.0746 -0.1859  0.1007
 1090loPI   C3B16431  10.607   2.127   7.735 -0.3962  0.0036  0.0488
 1090loPI   C4B16432  10.716   2.095   8.122  0.0436  0.2232 -0.2769
 1091loPI    C116433   9.135  10.843   5.991  0.0891  0.0118  0.1704
 1091loPI    C216434   9.454  10.816   5.750  0.0440  0.1027  0.0997
 1091loPI    C316435   9.092  10.890   5.596 -0.0579 -0.2687  0.1506
 1091loPI   PO416436   9.237  10.727   6.198 -0.1150  0.1460  0.1506
 1091loPI   GL116437   9.303  10.414   6.574  0.1060 -0.0740  0.2273
 1091loPI   GL216438   9.244  10.079   6.559  0.0422 -0.3198 -0.2196
 1091loPI   C1A16439   9.313  10.377   7.100  0.0712  0.0246 -0.0374
 1091loPI   C2A16440   9.345  10.409   7.554 -0.4184  0.2283  0.1079
 1091loPI   C3A16441   9.363  10.389   7.943 -0.0042  0.0521 -0.0100
 1091loPI   C4A16442   9.393  10.206   8.400 -0.0468 -0.0882  0.3587
 1091loPI   C5A16443   9.363  10.169   8.791 -0.1804  0.1890 -0.2969
 1091loPI   C6A16444   9.672  10.261   9.091  0.0883 -0.1827 -0.0160
 1091loPI   C1B16445   9.089   9.928   6.979  0.1663  0.2302  0.3532
 1091loPI   C2B16446   8.980   9.940   7.366 -0.1762 -0.1942 -0.2336
 1091loPI   C3B16447   8.996  10.045   7.759 -0.0423  0.1996 -0.0127
 1091loPI   C4B16448   8.907   9.969   8.214 -0.0589 -0.2353 -0.1160
 1092loPI    C116449   3.593   9.970   5.816 -0.2227  0.1004  0.0214
 1092loPI    C216450   3.564   9.709   5.515 -0.0750  0.1148 -0.0063
 1092loPI    C316451   3.732  10.066   5.454 -0.0354  0.1140  0.0959
 1092loPI   PO416452   3.447   9.861   6.032 -0.0944  0.2866 -0.1700
 1092loPI   GL116453   3.474   9.809   6.445 -0.0350  0.1467  0.1012
 1092loPI   GL216454   3.367  10.057   6.593 -0.2462 -0.0274 -0.0558
 1092loPI   C1A16455   3.450   9.643   6.859  0.2609  0.1213  0.0506
 1092loPI   C2A16456   3.521   9.647   7.319 -0.2332 -0.0519  0.1726
 1092loPI   C3A16457   3.432   9.490   7.681 -0.2021  0.3940  0.0061
 1092loPI   C4A16458   3.437   9.438   8.073 -0.1294  0.1470 -0.2488
 1092loPI   C5A16459   3.364   9.439   8.570  0.0742  0.0168 -0.1505
 1092loPI   C6A16460   3.411   9.610   9.106  0.1915 -0.0965  0.0106
 1092loPI   C1B16461   3.279  10.047   7.013  0.1413 -0.1916 -0.2210
 1092loPI   C2B16462   3.330  10.170   7.411 -0.0068  0.2444 -0.1390
 1092loPI   C3B16463   3.341   9.952   7.832 -0.4034 -0.0817 -0.2648
 1092loPI   C4B16464   3.277   9.939   8.257 -0.4558 -0.1404 -0.1831
 1093loPI    C116465  16.085  17.057   5.870 -0.0592  0.1542 -0.1222
 1093loPI    C216466  16.353  17.318   5.729  0.0388  0.0874 -0.0612
 1093loPI    C316467  16.134  17.100   5.476 -0.2298  0.4137 -0.1178
 1093loPI   PO416468  16.073  17.153   6.168  0.2122  0.0185  0.0461
 1093loPI   GL116469  15.990  17.053   6.533  0.2555  0.0209 -0.0441
 1093loPI   GL216470  15.719  16.935   6.607  0.0008  0.1693 -0.0329
 1093loPI   C1A16471  16.159  17.412   6.841 -0.3508 -0.0174  0.2033
 1093loPI   C2A16472  16.086  17.449   7.350  0.0565  0.1982 -0.1220
 1093loPI   C3A16473  16.128  17.481   7.798  0.1414  0.1440  0.1286
 1093loPI   C4A16474  16.056  17.470   8.215 -0.2156  0.0887 -0.3073
 1093loPI   C5A16475  16.197  17.462   8.567  0.1141 -0.1181 -0.0870
 1093loPI   C6A16476  16.576  17.342   8.593  0.1254  0.0003  0.1165
 1093loPI   C1B16477  15.717  17.065   7.075  0.1457 -0.0688 -0.0579
 1093loPI   C2B16478  15.755  17.097   7.519  0.2274 -0.2125  0.1455
 1093loPI   C3B16479  15.745  17.073   7.967  0.1079  0.0035  0.2656
 1093loPI   C4B16480  15.786  17.049   8.323  0.0212 -0.1275  0.0761
 1094loPI    C116481   9.074   1.050   5.945 -0.0765 -0.0658  0.0156
 1094loPI    C216482   9.291   0.796   5.724  0.0957 -0.1010  0.2220
 1094loPI    C316483   9.018   1.030   5.549  0.2009 -0.1572 -0.0218
 1094loPI   PO416484   9.194   1.138   6.174 -0.2280  0.3910  0.0019
 1094loPI   GL116485   9.158   1.351   6.512 -0.2880  0.3148 -0.1310
 1094loPI   GL216486   9.454   1.453   6.479  0.2231  0.0057 -0.0731
 1094loPI   C1A16487   9.004   1.428   6.837  0.3444 -0.2282 -0.0341
 1094loPI   C2A16488   9.044   1.457   7.244 -0.0194  0.1771  0.1546
 1094loPI   C3A16489   9.377   1.401   7.629  0.0271  0.1149 -0.0713
 1094loPI   C4A16490   9.407   1.357   8.125 -0.4256  0.2806  0.1695
 1094loPI   C5A16491   9.296   1.341   8.449  0.1901  0.1067  0.1619
 1094loPI   C6A16492   9.308   1.741   8.739  0.1239 -0.0917  0.2172
 1094loPI   C1B16493   9.487   1.330   7.002 -0.0252  0.0007  0.2189
 1094loPI   C2B16494   9.831   1.278   7.226  0.2587  0.2167 -0.0660
 1094loPI   C3B16495   9.846   1.305   7.656 -0.1200 -0.0829 -0.1183
 1094loPI   C4B16496  10.040   1.417   7.951 -0.1201 -0.0983  0.0576
 1095loPI    C116497   5.591   9.858   5.977  0.0417 -0.2408  0.2214
 1095loPI    C216498   5.708   9.616   5.681  0.0185  0.1697 -0.1314
 1095loPI    C316499   5.363   9.817   5.651 -0.1509 -0.0407  0.3280
 1095loPI   PO416500   5.615   9.747   6.135 -0.0962  0.1183 -0.1210
 1095loPI   GL116501   5.386   9.837   6.530 -0.2039  0.0271  0.0508
 1095loPI   GL216502   5.667   9.981   6.729  0.2178  0.0734 -0.0067
 1095loPI   C1A16503   5.261   9.746   6.950  0.0031  0.2769  0.0574
 1095loPI   C2A16504   5.256   9.698   7.341 -0.0297 -0.2618 -0.3311
 1095loPI   C3A16505   5.250   9.688   7.803  0.2054 -0.1322 -0.0490
 1095loPI   C4A16506   5.208   9.647   8.247 -0.2743 -0.0913  0.1053
 1095loPI   C5A16507   5.034   9.763   8.726  0.1659  0.1315  0.1886
 1095loPI   C6A16508   4.770   9.611   8.936 -0.1603  0.2155 -0.0622
 1095loPI   C1B16509   5.654   9.971   7.174 -0.0489 -0.3475 -0.1146
 1095loPI   C2B16510   5.653   9.965   7.707 -0.0253  0.0262  0.0860
 1095loPI   C3B16511   5.520  10.040   8.089 -0.5441 -0.2047  0.0549
 1095loPI   C4B16512   5.598  10.117   8.574  0.2533 -0.0330  0.4319
 1096loPI    C116513   4.164  13.935   5.782  0.2400 -0.2560 -0.1900
 1096loPI    C216514   3.806  14.040   5.637  0.2471  0.0113 -0.0207
 1096loPI    C316515   4.101  13.939   5.387  0.1047 -0.0437 -0.1680
 1096loPI   PO416516   4.108  13.812   6.055  0.0750 -0.1763 -0.2509
 1096loPI   GL116517   4.202  13.864   6.487  0.1922 -0.0245  0.0081
 1096loPI   GL216518   3.931  13.643   6.615 -0.0772  0.2140 -0.1701
 1096loPI   C1A16519   4.180  13.931   6.946  0.0090  0.2233 -0.1841
 1096loPI   C2A16520   4.159  13.991   7.372  0.1759 -0.2445 -0.0335
 1096loPI   C3A16521   4.152  14.031   7.767  0.2332  0.1757 -0.0143
 1096loPI   C4A16522   4.208  14.020   8.202 -0.2414  0.0380  0.0880
 1096loPI   C5A16523   4.283  14.142   8.619  0.1824 -0.1156  0.1129
 1096loPI   C6A16524   4.496  13.754   8.812  0.2235 -0.0657 -0.0887
 1096loPI   C1B16525   3.708  13.730   6.978 -0.0666 -0.2491  0.0729
 1096loPI   C2B16526   3.732  13.731   7.458  0.0738  0.2887 -0.2221
 1096loPI   C3B16527   3.643  13.706   7.826  0.1023  0.0552 -0.1383
 1096loPI   C4B16528   3.739  13.687   8.273 -0.2052  0.0593  0.0437
 1097loPI    C116529  15.831   4.643   6.082  0.0696  0.1511 -0.0745
 1097loPI    C216530  15.997   4.749   5.734 -0.0760  0.2008 -0.1298
 1097loPI    C316531  15.635   4.580   5.739  0.0740 -0.1256 -0.0283
 1097loPI   PO416532  15.951   4.703   6.238 -0.0482 -0.1583 -0.2885
 1097loPI   GL116533  16.034   4.803   6.638  0.0354  0.1236  0.0086
 1097loPI   GL216534  16.376   4.854   6.835 -0.0649  0.0196 -0.0833
 1097loPI   C1A16535  15.930   4.828   7.214  0.4114 -0.1645  0.0645
 1097loPI   C2A16536  15.806   4.793   7.649 -0.2546 -0.0333  0.0905
 1097loPI   C3A16537  15.807   4.810   8.022  0.1013 -0.0420  0.3746
 1097loPI   C4A16538  15.894   4.758   8.374  0.1299 -0.4288  0.0642
 1097loPI   C5A16539  15.952   4.594   8.770  0.0229  0.1365 -0.1582
 1097loPI   C6A16540  16.203   4.231   8.919 -0.1581  0.1581 -0.1329
 1097loPI   C1B16541  16.408   4.824   7.285 -0.0580  0.3789 -0.2663
 1097loPI   C2B16542  16.338   4.738   7.739 -0.0017 -0.0034  0.3405
 1097loPI   C3B16543  16.312   4.739   8.139  0.0523  0.1023 -0.0135
 1097loPI   C4B16544  16.337   4.542   8.531 -0.1723 -0.2597  0.0253
 1098loPI    C116545   1.963   8.989   6.098 -0.0300  0.0854 -0.0727
 1098loPI    C216546   2.117   8.621   6.084 -0.3215 -0.0428  0.0261
 1098loPI    C316547   2.053   8.823   5.745  0.1608  0.0576 -0.0119
 1098loPI   PO416548   1.760   8.917   6.284 -0.0253 -0.1201  0.3276
 1098loPI   GL116549   1.840   8.655   6.703  0.0596  0.0181  0.1176
 1098loPI   GL216550   2.079   8.587   6.576  0.1011 -0.0371 -0.2166
 1098loPI   C1A16551   1.885   8.509   7.176  0.0379 -0.0756 -0.1563
 1098loPI   C2A16552   1.968   8.456   7.642 -0.0083  0.1148 -0.0864
 1098loPI   C3A16553   1.977   8.401   8.071 -0.1606  0.1056 -0.3148
 1098loPI   C4A16554   1.942   8.243   8.401 -0.0290 -0.1169 -0.1537
 1098loPI   C5A16555   2.086   8.161   8.771  0.0081  0.2202  0.0949
 1098loPI   C6A16556   2.517   8.099   8.812 -0.0019 -0.0684 -0.1256
 1098loPI   C1B16557   2.360   8.431   7.028 -0.0826 -0.1317  0.0035
 1098loPI   C2B16558   2.430   8.474   7.476  0.0275  0.2247 -0.0936
 1098loPI   C3B16559   2.435   8.355   7.931  0.0132  0.1774 -0.1675
 1098loPI   C4B16560   2.444   8.175   8.283 -0.0565 -0.1849 -0.4043
 1099loPI    C116561   0.903   4.650   6.317 -0.2505  0.3271  0.1460
 1099loPI    C216562   0.528   4.682   6.181 -0.1401  0.2498 -0.1840
 1099loPI    C316563   0.834   4.664   5.924  0.0484 -0.2420  0.0633
 1099loPI   PO416564   0.955   4.900   6.511  0.0712 -0.0260 -0.0076
 1099loPI   GL116565   1.025   4.993   6.833 -0.2530 -0.0408 -0.0532
 1099loPI   GL216566   1.392   4.953   6.811 -0.0618 -0.1483  0.0782
 1099loPI   C1A16567   0.877   4.997   7.202 -0.0018  0.1625  0.1387
 1099loPI   C2A16568   0.852   4.930   7.639 -0.1854 -0.0443 -0.1402
 1099loPI   C3A16569   0.882   4.913   8.140  0.1207 -0.0234  0.0967
 1099loPI   C4A16570   0.735   5.096   8.474 -0.2127 -0.0272 -0.4985
 1099loPI   C5A16571   0.360   4.920   8.680 -0.0663  0.3688  0.2721
 1099loPI   C6A16572   0.018   5.099   8.618  0.3077  0.3917  0.0500
 1099loPI   C1B16573   1.359   4.807   7.268  0.1228 -0.2458 -0.2081
 1099loPI   C2B16574   1.369   4.823   7.611  0.2067 -0.2130  0.0959
 1099loPI   C3B16575   1.338   4.826   8.028 -0.0014 -0.1557 -0.1951
 1099loPI   C4B16576   1.335   4.830   8.492  0.1316 -0.0970  0.0005
 1100loPI    C116577   2.721   1.080   5.846  0.0930  0.1202 -0.1615
 1100loPI    C216578   2.411   0.999   5.605  0.0684  0.0261 -0.0989
 1100loPI    C316579   2.570   1.366   5.610 -0.2394  0.1611  0.0927
 1100loPI   PO416580   2.755   0.987   6.061 -0.1036 -0.0673 -0.0758
 1100loPI   GL116581   2.674   1.020   6.445  0.3411  0.3124 -0.1901
 1100loPI   GL216582   2.919   0.926   6.646 -0.1684 -0.1747 -0.0888
 1100loPI   C1A16583   2.497   0.582   6.664 -0.0102 -0.0754 -0.0286
 1100loPI   C2A16584   2.574   0.538   7.146 -0.2695 -0.1167 -0.1070
 1100loPI   C3A16585   2.536   0.532   7.593  0.0289  0.0505 -0.0880
 1100loPI   C4A16586   2.507   0.489   8.112  0.1412  0.0004 -0.3594
 1100loPI   C5A16587   2.391   0.512   8.598  0.0465 -0.1304  0.2112
 1100loPI   C6A16588   1.983   0.442   8.768  0.0464  0.3143 -0.0464
 1100loPI   C1B16589   2.974   0.967   7.099 -0.1591 -0.0531 -0.0546
 1100loPI   C2B16590   2.853   0.929   7.504 -0.1231 -0.1109  0.3209
 1100loPI   C3B16591   2.831   0.865   7.982  0.1040 -0.1104  0.1349
 1100loPI   C4B16592   2.795   0.772   8.446 -0.1824 -0.0720  0.1021
 1101loPI    C116593   2.398   0.152   5.833 -0.1560  0.1164  0.1456
 1101loPI    C216594   2.317   0.489   5.633  0.0358  0.0838  0.0100
 1101loPI    C316595   2.513   0.191   5.451  0.0431 -0.0222  0.1897
 1101loPI   PO416596   2.462   0.160   6.104  0.1350  0.0003  0.2569
 1101loPI   GL116597   2.427  -0.135   6.452  0.0302  0.2018  0.0854
 1101loPI   GL216598   2.648   0.078   6.518 -0.0981  0.0240 -0.1514
 1101loPI   C1A16599   2.405  -0.439   6.743  0.2042 -0.3328  0.1489
 1101loPI   C2A16600   2.419  -0.381   7.158  0.0436  0.2482 -0.1666
 1101loPI   C3A16601   2.395  -0.352   7.618 -0.2711  0.2647 -0.2566
 1101loPI   C4A16602   2.480  -0.336   7.993  0.1480 -0.2445  0.1887
 1101loPI   C5A16603   2.336  -0.387   8.356  0.0909 -0.1596 -0.3390
 1101loPI   C6A16604   2.294  -0.738   8.674  0.0550  0.2278 -0.0912
 1101loPI   C1B16605   2.752   0.041   7.004  0.0171  0.0643 -0.1949
 1101loPI   C2B16606   2.778   0.031   7.405  0.2197  0.1619 -0.1481
 1101loPI   C3B16607   2.726   0.106   7.844  0.0514 -0.0198  0.0034
 1101loPI   C4B16608   2.663   0.011   8.316 -0.0051  0.3304  0.0551
 1102loPI    C116609  17.236   2.464   5.852 -0.0000 -0.0726  0.0224
 1102loPI    C216610  16.843   2.502   5.789 -0.0362 -0.1441  0.1979
 1102loPI    C316611  17.065   2.282   5.539 -0.0452  0.1783 -0.1009
 1102loPI   PO416612  17.291   2.456   6.047 -0.1682 -0.0699 -0.1582
 1102loPI   GL116613  17.294   2.361   6.395  0.2080  0.0441 -0.2410
 1102loPI   GL216614  17.117   2.639   6.676  0.1047 -0.0137 -0.2208
 1102loPI   C1A16615  17.304   2.266   6.833  0.0637  0.0903 -0.4326
 1102loPI   C2A16616  17.227   2.258   7.244  0.0155  0.0359  0.0601
 1102loPI   C3A16617  17.350   2.232   7.694 -0.1203  0.2496  0.0377
 1102loPI   C4A16618  17.295   2.380   8.101 -0.4297 -0.2518 -0.2888
 1102loPI   C5A16619  17.309   2.455   8.561 -0.1577  0.0634  0.0397
 1102loPI   C6A16620  17.406   2.396   8.984 -0.1621 -0.3466 -0.0291
 1102loPI   C1B16621  17.108   2.741   7.126  0.1977 -0.2190 -0.0422
 1102loPI   C2B16622  17.105   2.812   7.579  0.1559 -0.1970  0.0338
 1102loPI   C3B16623  17.059   2.794   8.023  0.1129  0.0651 -0.0289
 1102loPI   C4B16624  17.098   2.886   8.427 -0.1048 -0.0225  0.3629
 1103loPI    C116625   6.179   9.552   5.942 -0.1000  0.1837 -0.0344
 1103loPI    C216626   6.182   9.712   5.575 -0.1641 -0.2172 -0.2159
 1103loPI    C316627   6.505   9.520   5.712 -0.1253 -0.0324 -0.0424
 1103loPI   PO416628   6.136   9.710   6.125  0.1181 -0.2516  0.0925
 1103loPI   GL116629   5.912   9.569   6.535 -0.2802 -0.0872 -0.2041
 1103loPI   GL216630   6.191   9.299   6.426  0.2159  0.0723 -0.1489
 1103loPI   C1A16631   5.734   9.522   6.923  0.2881  0.1358  0.0300
 1103loPI   C2A16632   5.782   9.531   7.398 -0.3518  0.0917  0.2376
 1103loPI   C3A16633   5.751   9.511   7.900 -0.3461 -0.1195  0.0383
 1103loPI   C4A16634   5.675   9.580   8.378 -0.1845 -0.1274 -0.0265
 1103loPI   C5A16635   5.526   9.642   8.784  0.2219 -0.2801  0.1585
 1103loPI   C6A16636   5.351   9.508   9.052 -0.1557  0.0749  0.0469
 1103loPI   C1B16637   6.263   9.443   6.920  0.0466 -0.1778 -0.2571
 1103loPI   C2B16638   6.331   9.430   7.395 -0.0561 -0.2453  0.0858
 1103loPI   C3B16639   6.319   9.490   7.858 -0.1926  0.0956  0.0423
 1103loPI   C4B16640   6.230   9.495   8.301  0.1570 -0.1252 -0.0196
 1104loPI    C116641   4.976  14.329   5.712 -0.0086 -0.1612  0.0611
 1104loPI    C216642   5.195  14.626   5.557 -0.1186 -0.0593  0.0989
 1104loPI    C316643   4.991  14.381   5.315 -0.2864  0.0967  0.0804
 1104loPI   PO416644   5.077  14.190   5.892 -0.0227 -0.1028 -0.0661
 1104loPI   GL116645   5.142  13.945   6.199  0.0679 -0.1112  0.1843
 1104loPI   GL216646   5.325  13.741   6.302  0.1362  0.0935  0.2168
 1104loPI   C1A16647   5.113  13.912   6.740 -0.0851  0.0844  0.0572
 1104loPI   C2A16648   5.120  13.853   7.159 -0.1058 -0.1702  0.1543
 1104loPI   C3A16649   5.088  13.887   7.621 -0.1085  0.0095  0.0249
 1104loPI   C4A16650   5.067  14.019   8.065 -0.0980  0.1737  0.0308
 1104loPI   C5A16651   5.113  14.338   8.439 -0.3214 -0.0506  0.2812
 1104loPI   C6A16652   5.339  14.595   8.639 -0.1093  0.0318  0.3672
 1104loPI   C1B16653   5.526  13.596   6.678 -0.0072 -0.0556 -0.1235
 1104loPI   C2B16654   5.508  13.509   7.096  0.1210 -0.0977  0.2905
 1104loPI   C3B16655   5.518  13.601   7.539 -0.0330  0.0087  0.0672
 1104loPI   C4B16656   5.453  13.613   7.989 -0.1778  0.0875  0.2023
 1105loPI    C116657   3.723   2.484   5.691  0.1889 -0.2137 -0.1246
 1105loPI    C216658   3.800   2.823   5.493 -0.1264 -0.0529  0.0204
 1105loPI    C316659   4.004   2.490   5.406  0.0534  0.1249 -0.2568
 1105loPI   PO416660   3.702   2.476   5.917 -0.1254 -0.0525 -0.0765
 1105loPI   GL116661   3.870   2.540   6.303 -0.2752 -0.1962 -0.1119
 1105loPI   GL216662   4.081   2.370   6.301  0.1439 -0.0680  0.0696
 1105loPI   C1A16663   3.826   2.454   6.807 -0.0617  0.0934  0.2532
 1105loPI   C2A16664   3.626   2.657   7.186  0.1213 -0.0509  0.0358
 1105loPI   C3A16665   3.617   2.619   7.565  0.4106  0.0568  0.0984
 1105loPI   C4A16666   3.527   2.662   8.105 -0.1292 -0.2836  0.0332
 1105loPI   C5A16667   3.682   2.401   8.493  0.3117  0.0437  0.0658
 1105loPI   C6A16668   3.935   2.147   8.730  0.1170 -0.0779 -0.0844
 1105loPI   C1B16669   4.344   2.346   6.632  0.3572 -0.0732  0.3644
 1105loPI   C2B16670   4.248   2.464   7.120 -0.1959  0.2404 -0.1812
 1105loPI   C3B16671   4.110   2.527   7.636 -0.0097 -0.0170  0.3081
 1105loPI   C4B16672   4.020   2.539   8.055 -0.1977  0.0223 -0.1167
 1106loPI    C116673   9.550   6.351   5.991  0.2403 -0.0312 -0.0535
 1106loPI    C216674   9.656   6.298   5.609  0.1286 -0.0304 -0.0850
 1106loPI    C316675   9.392   6.583   5.706  0.2861  0.0833  0.0138
 1106loPI   PO416676   9.431   6.113   6.046  0.0824 -0.3086 -0.2246
 1106loPI   GL116677   9.405   6.155   6.438  0.1450 -0.3018  0.1687
 1106loPI   GL216678   9.170   5.974   6.442 -0.0118  0.1237  0.2402
 1106loPI   C1A16679   9.498   6.295   6.841 -0.1886 -0.0793  0.4609
 1106loPI   C2A16680   9.480   6.351   7.260 -0.2243  0.0969 -0.1993
 1106loPI   C3A16681   9.399   6.319   7.597 -0.1944 -0.1269 -0.4211
 1106loPI   C4A16682   9.429   6.342   7.933 -0.0511  0.1166 -0.2016
 1106loPI   C5A16683   9.367   6.490   8.315 -0.1488  0.2125 -0.0265
 1106loPI   C6A16684   9.235   6.527   8.704  0.2695 -0.0362 -0.0002
 1106loPI   C1B16685   9.127   5.927   6.857 -0.1665 -0.1375  0.3862
 1106loPI   C2B16686   9.119   5.909   7.266  0.0871 -0.3003 -0.0834
 1106loPI   C3B16687   9.087   5.937   7.746  0.1251 -0.0853 -0.1911
 1106loPI   C4B16688   9.152   5.975   8.163  0.0449  0.1170 -0.1384
 1107loPI    C116689   9.547   3.632   5.419 -0.0411 -0.0475 -0.1234
 1107loPI    C216690   9.847   3.580   5.159  0.1200  0.0285  0.0446
 1107loPI    C316691   9.572   3.862   5.093 -0.0400 -0.1841 -0.2208
 1107loPI   PO416692   9.589   3.608   5.614 -0.1361  0.3459 -0.0075
 1107loPI   GL116693   9.440   3.593   5.970 -0.1181 -0.0107  0.0070
 1107loPI   GL216694   9.164   3.473   6.182 -0.2610 -0.1958  0.2600
 1107loPI   C1A16695   9.624   3.636   6.377 -0.0279  0.1058  0.0726
 1107loPI   C2A16696   9.591   3.633   6.855 -0.2647 -0.1045  0.0136
 1107loPI   C3A16697   9.670   3.618   7.237  0.1151  0.1400 -0.0675
 1107loPI   C4A16698   9.515   3.600   7.738  0.1919 -0.2930 -0.2101
 1107loPI   C5A16699   9.381   3.601   8.143  0.1203  0.2638 -0.0220
 1107loPI   C6A16700   9.328   3.572   8.561 -0.1252 -0.3300  0.0823
 1107loPI   C1B16701   9.351   3.285   6.566  0.0277  0.0638 -0.0244
 1107loPI   C2B16702   9.336   3.195   7.060 -0.1567  0.1351  0.4150
 1107loPI   C3B16703   9.271   3.191   7.575 -0.1081 -0.1663  0.3119
 1107loPI   C4B16704   9.274   3.131   7.952  0.3775 -0.0931  0.0249
 1108loPI    C116705   2.941   3.296   5.950  0.2306 -0.1142 -0.0241
 1108loPI    C216706   3.065   3.164   5.593  0.0712  0.2457 -0.2171
 1108loPI    C316707   2.678   3.144   5.690  0.1109  0.1704 -0.0727
 1108loPI   PO416708   3.161   3.259   6.108 -0.0493 -0.1898  0.0682
 1108loPI   GL116709   3.234   3.269   6.444  0.4384  0.0634 -0.1966
 1108loPI   GL216710   3.325   3.521   6.543  0.2274  0.1097  0.3797
 1108loPI   C1A16711   2.981   3.296   6.832 -0.3691 -0.1868 -0.2345
 1108loPI   C2A16712   2.946   3.269   7.280 -0.2617  0.4563 -0.2354
 1108loPI   C3A16713   2.998   3.252   7.727 -0.2094 -0.0077  0.0955
 1108loPI   C4A16714   2.943   3.351   8.163 -0.1731  0.0357  0.1976
 1108loPI   C5A16715   3.088   3.255   8.583 -0.1322 -0.1940  0.1237
 1108loPI   C6A16716   3.231   2.955   8.907  0.2041 -0.0791 -0.1466
 1108loPI   C1B16717   3.285   3.665   6.970 -0.5031  0.4519 -0.0464
 1108loPI   C2B16718   3.211   3.641   7.428 -0.2566  0.0370  0.1469
 1108loPI   C3B16719   3.266   3.621   7.892  0.1390  0.0634  0.0176
 1108loPI   C4B16720   3.316   3.696   8.216  0.3369  0.0308 -0.0321
 1109loPI    C116721  11.828  12.300   6.411 -0.2116 -0.0771 -0.0549
 1109loPI    C216722  11.869  12.392   6.024  0.0686 -0.0063 -0.0101
 1109loPI    C316723  12.188  12.283   6.239 -0.0945 -0.0981  0.1886
 1109loPI   PO416724  11.620  12.100   6.484  0.0381 -0.0520 -0.2201
 1109loPI   GL116725  11.673  11.822   6.792 -0.1402  0.0084 -0.0340
 1109loPI   GL216726  11.334  11.806   6.760  0.0520 -0.1412  0.2823
 1109loPI   C1A16727  11.775  11.553   7.092 -0.1812  0.1852  0.2926
 1109loPI   C2A16728  11.790  11.516   7.454 -0.1863 -0.0252  0.0147
 1109loPI   C3A16729  11.649  11.339   7.842  0.0914 -0.1934  0.0335
 1109loPI   C4A16730  11.383  11.047   8.084  0.0221  0.3102  0.0132
 1109loPI   C5A16731  10.948  11.113   7.996 -0.1342  0.1309 -0.1259
 1109loPI   C6A16732  10.671  11.245   7.821  0.1661  0.0797  0.1113
 1109loPI   C1B16733  11.376  11.830   7.175  0.1730  0.0794  0.0813
 1109loPI   C2B16734  11.435  11.853   7.585 -0.0898  0.2758  0.1689
 1109loPI   C3B16735  11.659  11.828   8.007 -0.0646 -0.1399  0.0190
 1109loPI   C4B16736  11.566  11.511   8.411  0.0282 -0.2580  0.2377
 1110loPI    C116737  16.005  16.220   5.865 -0.0376 -0.3202  0.0872
 1110loPI    C216738  15.987  16.574   5.681  0.1771 -0.2876  0.1254
 1110loPI    C316739  15.861  16.244   5.492  0.2609 -0.2344 -0.0252
 1110loPI   PO416740  15.981  16.300   6.096  0.3465  0.1557  0.2545
 1110loPI   GL116741  16.064  16.260   6.458 -0.2302 -0.1425  0.0108
 1110loPI   GL216742  16.156  16.581   6.608 -0.1465  0.2164 -0.1184
 1110loPI   C1A16743  15.807  16.264   6.820  0.3638  0.2058  0.1153
 1110loPI   C2A16744  15.674  16.230   7.232  0.0202  0.1688  0.2594
 1110loPI   C3A16745  15.711  16.157   7.606  0.1507 -0.1292 -0.0732
 1110loPI   C4A16746  15.770  16.123   7.986  0.1378 -0.2396 -0.2156
 1110loPI   C5A16747  15.864  15.931   8.380 -0.1059  0.0408 -0.0732
 1110loPI   C6A16748  15.739  16.034   8.809 -0.3149  0.5282 -0.1967
 1110loPI   C1B16749  16.095  16.649   7.023  0.0502 -0.0939  0.2283
 1110loPI   C2B16750  15.919  16.646   7.430  0.1878  0.3202 -0.1433
 1110loPI   C3B16751  15.940  16.593   7.826  0.3862  0.2096 -0.2044
 1110loPI   C4B16752  16.000  16.563   8.260  0.0285 -0.0201  0.2589
 1111loPI    C116753   1.027  16.260   5.883 -0.1082  0.0912 -0.0012
 1111loPI    C216754   1.194  15.899   5.931  0.0630  0.1962  0.2112
 1111loPI    C316755   1.111  16.034   5.564 -0.1416 -0.1203  0.1372
 1111loPI   PO416756   1.170  16.349   6.109 -0.0843 -0.1138  0.0550
 1111loPI   GL116757   1.345  16.506   6.361  0.0647  0.0086  0.2182
 1111loPI   GL216758   1.561  16.395   6.505  0.0578  0.2890  0.2036
 1111loPI   C1A16759   1.122  16.787   6.635 -0.0011 -0.0987  0.0378
 1111loPI   C2A16760   1.123  16.708   6.961 -0.4547  0.2375 -0.1965
 1111loPI   C3A16761   1.089  16.707   7.394 -0.2934 -0.0005 -0.2306
 1111loPI   C4A16762   1.146  16.675   7.842  0.1289 -0.2116  0.1124
 1111loPI   C5A16763   1.023  16.672   8.205  0.0381  0.1301 -0.3918
 1111loPI   C6A16764   0.753  16.358   8.479 -0.3175  0.0695  0.1990
 1111loPI   C1B16765   1.590  16.527   6.944  0.0011  0.0219 -0.4841
 1111loPI   C2B16766   1.628  16.522   7.406  0.0052 -0.1583 -0.1245
 1111loPI   C3B16767   1.634  16.627   7.839 -0.3366 -0.1380 -0.1161
 1111loPI   C4B16768   1.475  16.660   8.227 -0.1907 -0.1476  0.0475
 1112loPI    C116769   3.609  13.818   6.033  0.0423  0.0470  0.0286
 1112loPI    C216770   3.327  14.061   5.887  0.1460  0.0533 -0.1649
 1112loPI    C316771   3.409  13.716   5.702 -0.1103 -0.2084  0.1960
 1112loPI   PO416772   3.666  13.944   6.294  0.3541  0.1747  0.1995
 1112loPI   GL116773   3.764  14.132   6.629 -0.0629  0.0563  0.0146
 1112loPI   GL216774   4.016  14.310   6.611 -0.3845  0.1649 -0.3179
 1112loPI   C1A16775   3.602  14.236   6.982 -0.1410  0.1871  0.0602
 1112loPI   C2A16776   3.732  14.201   7.330 -0.3190  0.2037  0.1426
 1112loPI   C3A16777   3.726  14.247   7.736 -0.1486  0.2228  0.1003
 1112loPI   C4A16778   3.744  14.228   8.153  0.0274 -0.1553 -0.2746
 1112loPI   C5A16779   3.702  14.081   8.638  0.0008 -0.0795 -0.1019
 1112loPI   C6A16780   3.356  13.933   8.962 -0.1049  0.4321 -0.1014
 1112loPI   C1B16781   4.112  14.414   7.080  0.1863  0.0154  0.1126
 1112loPI   C2B16782   4.174  14.501   7.495  0.0003  0.1349 -0.0682
 1112loPI   C3B16783   4.117  14.482   7.937 -0.0333  0.1182 -0.2432
 1112loPI   C4B16784   4.042  14.522   8.428 -0.1470  0.2935 -0.1563
 1113loPI    C116785   8.898  12.316   6.275 -0.0627  0.1594 -0.0350
 1113loPI    C216786   9.136  12.080   6.057  0.0317  0.1034  0.1270
 1113loPI    C316787   9.004  12.426   5.905  0.3414  0.2091  0.0914
 1113loPI   PO416788   8.691  12.110   6.415 -0.3165  0.2066  0.0237
 1113loPI   GL116789   8.598  12.084   6.760 -0.3788 -0.1752  0.2372
 1113loPI   GL216790   8.582  12.404   6.853 -0.0563  0.1591  0.0273
 1113loPI   C1A16791   8.387  12.019   7.146 -0.1215 -0.0339 -0.1011
 1113loPI   C2A16792   8.460  12.041   7.614 -0.0325  0.0448 -0.0743
 1113loPI   C3A16793   8.460  12.113   8.029  0.0929  0.1023 -0.1013
 1113loPI   C4A16794   8.624  12.084   8.510  0.2206 -0.1067  0.1504
 1113loPI   C5A16795   8.382  12.134   8.841 -0.2743 -0.2203  0.0248
 1113loPI   C6A16796   7.902  12.119   8.868 -0.3936  0.0658  0.1194
 1113loPI   C1B16797   8.496  12.484   7.286  0.0842  0.0498 -0.1620
 1113loPI   C2B16798   8.528  12.563   7.624  0.1057 -0.0432 -0.1097
 1113loPI   C3B16799   8.526  12.591   7.984  0.0286  0.1444  0.1269
 1113loPI   C4B16800   8.523  12.731   8.381 -0.0001 -0.0202 -0.1998
 1114loPI    C116801  10.079  13.541   6.408 -0.2542 -0.1821  0.2348
 1114loPI    C216802   9.737  13.452   6.222 -0.1582  0.1871 -0.1336
 1114loPI    C316803   9.989  13.716   6.060  0.3244 -0.1094  0.1118
 1114loPI   PO416804  10.046  13.618   6.632 -0.1813 -0.1734 -0.1123
 1114loPI   GL116805   9.910  13.995   6.840  0.1445 -0.1726  0.1873
 1114loPI   GL216806  10.169  14.273   6.849  0.1213 -0.2053  0.0069
 1114loPI   C1A16807   9.913  13.968   7.307  0.1712  0.1594  0.0227
 1114loPI   C2A16808   9.893  13.948   7.729  0.4239  0.0785 -0.2410
 1114loPI   C3A16809   9.896  13.842   8.135 -0.0138 -0.2501 -0.1314
 1114loPI   C4A16810  10.000  13.833   8.501  0.1197  0.0467 -0.1279
 1114loPI   C5A16811  10.464  13.721   8.667  0.4771  0.0096  0.2681
 1114loPI   C6A16812  10.803  13.555   8.885  0.0357 -0.1728 -0.0715
 1114loPI   C1B16813  10.272  14.300   7.170  0.0645 -0.0182  0.1109
 1114loPI   C2B16814  10.235  14.269   7.588  0.0589 -0.1157 -0.1883
 1114loPI   C3B16815  10.232  14.228   8.021  0.2182 -0.2893 -0.1202
 1114loPI   C4B16816  10.071  14.339   8.505 -0.0583 -0.0151  0.2505
 1115loPI    C116817   3.253  16.874   5.975 -0.0263  0.0025 -0.1538
 1115loPI    C216818   3.382  17.184   5.758  0.0830 -0.0624 -0.1822
 1115loPI    C316819   3.458  16.810   5.638  0.2995 -0.0988  0.0589
 1115loPI   PO416820   3.327  16.884   6.181 -0.3124  0.0690  0.1597
 1115loPI   GL116821   3.546  16.843   6.591 -0.0934  0.2059  0.0420
 1115loPI   GL216822   3.655  17.139   6.705 -0.0035  0.2555  0.2300
 1115loPI   C1A16823   3.411  16.817   7.036 -0.0870 -0.0497 -0.1776
 1115loPI   C2A16824   3.486  16.722   7.462 -0.0911 -0.0421  0.0565
 1115loPI   C3A16825   3.836  16.731   7.782 -0.1892  0.2788 -0.2324
 1115loPI   C4A16826   3.911  16.766   8.143  0.1637  0.0481  0.1361
 1115loPI   C5A16827   4.192  16.885   8.302 -0.2325  0.0290 -0.0229
 1115loPI   C6A16828   4.340  16.777   8.643 -0.0657 -0.1352  0.1498
 1115loPI   C1B16829   3.748  17.253   7.088 -0.5375  0.0973 -0.0554
 1115loPI   C2B16830   3.771  17.218   7.602  0.0422 -0.0191  0.1699
 1115loPI   C3B16831   3.698  17.192   8.018 -0.1634  0.3758  0.2847
 1115loPI   C4B16832   3.760  17.061   8.518  0.1208  0.0745 -0.1404
 1116loPI    C116833  12.335  10.896   6.180  0.0503 -0.1067  0.0826
 1116loPI    C216834  12.518  10.946   5.827 -0.1066 -0.0248  0.0115
 1116loPI    C316835  12.149  10.792   5.841 -0.1214  0.0210  0.1363
 1116loPI   PO416836  12.562  11.074   6.333  0.1583  0.0907 -0.0277
 1116loPI   GL116837  12.547  11.124   6.764 -0.1153  0.2585  0.3333
 1116loPI   GL216838  12.864  11.069   6.768  0.2630 -0.0206  0.1436
 1116loPI   C1A16839  12.569  10.900   7.245 -0.2955 -0.0979 -0.0267
 1116loPI   C2A16840  12.505  10.879   7.652 -0.3438  0.1136 -0.2915
 1116loPI   C3A16841  12.505  10.888   8.077  0.1848 -0.2249  0.0029
 1116loPI   C4A16842  12.313  10.756   8.421 -0.2613  0.1237  0.1503
 1116loPI   C5A16843  12.116  10.355   8.611 -0.2519  0.1002  0.0599
 1116loPI   C6A16844  12.029  10.481   9.046 -0.1794 -0.0485 -0.0744
 1116loPI   C1B16845  13.055  10.876   7.166 -0.0352 -0.1821 -0.0591
 1116loPI   C2B16846  12.974  10.867   7.565 -0.1467  0.4386  0.0625
 1116loPI   C3B16847  13.024  10.792   8.045  0.1329  0.1543 -0.2833
 1116loPI   C4B16848  12.928  10.796   8.550  0.0067 -0.2201  0.0260
 1117loPI    C116849  16.471  14.698   5.965 -0.0919  0.1666  0.1069
 1117loPI    C216850  16.719  14.989   6.083  0.0281  0.1119 -0.0074
 1117loPI    C316851  16.533  15.015   5.729  0.1292 -0.0040 -0.0698
 1117loPI   PO416852  16.403  14.374   6.104  0.1096 -0.0472 -0.0306
 1117loPI   GL116853  16.461  14.212   6.487 -0.0546  0.2062 -0.1750
 1117loPI   GL216854  16.796  14.253   6.475 -0.0918 -0.2880 -0.1386
 1117loPI   C1A16855  16.417  14.139   6.900  0.3366  0.0533 -0.0537
 1117loPI   C2A16856  16.377  14.148   7.343  0.1734  0.1583  0.2442
 1117loPI   C3A16857  16.496  14.244   7.797 -0.0844  0.1301 -0.0849
 1117loPI   C4A16858  16.521  14.361   8.230 -0.2820 -0.3429  0.2133
 1117loPI   C5A16859  16.359  14.102   8.662 -0.2272 -0.1010  0.1435
 1117loPI   C6A16860  16.263  14.018   9.031  0.1033  0.1546 -0.0111
 1117loPI   C1B16861  16.752  14.462   6.884  0.1105 -0.1130  0.1498
 1117loPI   C2B16862  16.806  14.590   7.288  0.1430 -0.1632 -0.1646
 1117loPI   C3B16863  16.725  14.661   7.714 -0.1382  0.0660 -0.5660
 1117loPI   C4B16864  16.814  14.735   8.137  0.0377 -0.2189  0.3926
 1118loPI    C116865   1.567  13.004   6.088  0.1339  0.1740  0.0177
 1118loPI    C216866   1.746  12.845   5.768 -0.0207  0.0576 -0.0120
 1118loPI    C316867   1.504  13.161   5.726 -0.1732 -0.0606 -0.0354
 1118loPI   PO416868   1.675  13.038   6.243 -0.2198 -0.2125 -0.4282
 1118loPI   GL116869   1.631  13.038   6.705 -0.4307 -0.0905  0.1004
 1118loPI   GL216870   1.362  13.226   6.549 -0.3375  0.0714  0.0708
 1118loPI   C1A16871   1.836  13.172   7.169 -0.0739 -0.1310 -0.0141
 1118loPI   C2A16872   1.876  13.285   7.566 -0.0981 -0.0415  0.0945
 1118loPI   C3A16873   1.868  13.254   7.976 -0.0139  0.2968  0.0242
 1118loPI   C4A16874   1.790  13.385   8.392  0.1875  0.1176 -0.2756
 1118loPI   C5A16875   1.884  13.746   8.688 -0.0969  0.1828  0.0663
 1118loPI   C6A16876   2.297  13.989   8.922  0.1478  0.0740  0.2498
 1118loPI   C1B16877   1.386  13.436   7.012  0.3125  0.0223 -0.1088
 1118loPI   C2B16878   1.414  13.440   7.501  0.1982 -0.1615  0.1531
 1118loPI   C3B16879   1.403  13.532   7.913  0.0668 -0.0685 -0.2088
 1118loPI   C4B16880   1.535  13.769   8.329 -0.0083  0.0220  0.1402
 1119loPI    C116881  15.436   3.403   5.692  0.1040 -0.1180  0.2239
 1119loPI    C216882  15.469   3.005   5.668 -0.1775 -0.1153 -0.4241
 1119loPI    C316883  15.678   3.239   5.419  0.1854  0.1654  0.1218
 1119loPI   PO416884  15.492   3.508   5.942  0.1995  0.0830  0.0461
 1119loPI   GL116885  15.466   3.565   6.440  0.3261  0.1127 -0.2276
 1119loPI   GL216886  15.648   3.790   6.578  0.0197  0.0472  0.1150
 1119loPI   C1A16887  15.480   3.150   6.673  0.0424 -0.3201 -0.1172
 1119loPI   C2A16888  15.447   3.072   7.075 -0.0427  0.3858 -0.0999
 1119loPI   C3A16889  15.590   3.066   7.538 -0.0487 -0.1028  0.2192
 1119loPI   C4A16890  15.609   3.047   7.922  0.0001  0.1038  0.1104
 1119loPI   C5A16891  15.525   2.959   8.335 -0.2182 -0.1590 -0.0637
 1119loPI   C6A16892  15.226   2.620   8.438  0.2765 -0.1610  0.0533
 1119loPI   C1B16893  15.667   3.911   6.995  0.0725 -0.1034 -0.2384
 1119loPI   C2B16894  15.679   3.905   7.473 -0.0871 -0.1015 -0.0780
 1119loPI   C3B16895  15.702   3.860   7.871  0.1106  0.0596 -0.0251
 1119loPI   C4B16896  15.679   3.853   8.191 -0.0652 -0.0004 -0.0494
 1120loPI    C116897  11.976   6.597   5.828  0.0085  0.0031  0.0259
 1120loPI    C216898  11.767   6.922   5.726  0.0297  0.0147  0.0193
 1120loPI    C316899  11.595   6.634   5.943 -0.0594 -0.0768 -0.1711
 1120loPI   PO416900  12.153   6.680   5.996  0.3405 -0.2221  0.0462
 1120loPI   GL116901  12.000   6.658   6.401  0.1158 -0.1466  0.1914
 1120loPI   GL216902  11.762   6.813   6.388  0.0513 -0.0591  0.0951
 1120loPI   C1A16903  11.905   6.430   6.796  0.1819  0.1431 -0.0869
 1120loPI   C2A16904  11.880   6.431   7.320  0.1520 -0.1299  0.0296
 1120loPI   C3A16905  11.871   6.433   7.774  0.1823 -0.1096  0.1696
 1120loPI   C4A16906  11.953   6.486   8.192  0.2474 -0.3597  0.1519
 1120loPI   C5A16907  11.902   6.312   8.572  0.0380 -0.0972 -0.0513
 1120loPI   C6A16908  11.630   6.410   8.894 -0.0503 -0.1114 -0.0612
 1120loPI   C1B16909  11.757   7.004   6.686  0.3171 -0.4173 -0.0255
 1120loPI   C2B16910  11.687   6.986   7.180  0.1660  0.0015 -0.0747
 1120loPI   C3B16911  11.772   6.954   7.658  0.0798 -0.0645 -0.0023
 1120loPI   C4B16912  11.769   6.963   8.185  0.0419 -0.1221 -0.0567
 1121loPI    C116913   6.583   5.077   5.871 -0.0046  0.0775 -0.1112
 1121loPI    C216914   6.809   5.399   5.803 -0.1440  0.1704 -0.1397
 1121loPI    C316915   6.761   5.125   5.516  0.1504  0.0130 -0.0431
 1121loPI   PO416916   6.678   4.974   6.062  0.2893 -0.0404  0.0478
 1121loPI   GL116917   6.690   4.913   6.428  0.0033  0.0645  0.4089
 1121loPI   GL216918   6.450   4.716   6.508 -0.1837  0.0960 -0.0856
 1121loPI   C1A16919   6.989   4.878   6.830 -0.0142  0.0154 -0.2988
 1121loPI   C2A16920   7.136   4.900   7.283  0.0949 -0.1166  0.1478
 1121loPI   C3A16921   7.035   4.877   7.689  0.0055  0.3069  0.1249
 1121loPI   C4A16922   7.068   4.771   8.141 -0.2266  0.0049  0.0207
 1121loPI   C5A16923   6.986   4.924   8.580  0.0504 -0.0197  0.0283
 1121loPI   C6A16924   7.104   5.035   8.948  0.0695 -0.2423 -0.1361
 1121loPI   C1B16925   6.546   4.916   6.940 -0.0888  0.0582  0.1498
 1121loPI   C2B16926   6.629   4.874   7.374  0.2094  0.1695 -0.0005
 1121loPI   C3B16927   6.583   4.944   7.845 -0.2662 -0.0787  0.0406
 1121loPI   C4B16928   6.568   5.092   8.290  0.0839 -0.3372  0.3712
 1122loPI    C116929  13.953  14.388   6.105 -0.0362 -0.1044 -0.0549
 1122loPI    C216930  14.315  14.497   5.974 -0.0493 -0.0962 -0.0846
 1122loPI    C316931  13.992  14.572   5.751 -0.1011  0.1597  0.0723
 1122loPI   PO416932  13.914  14.430   6.362  0.4911  0.1027 -0.0760
 1122loPI   GL116933  13.912  14.604   6.711 -0.0930  0.3455  0.0322
 1122loPI   GL216934  14.192  14.496   6.916 -0.1251  0.1332 -0.1371
 1122loPI   C1A16935  13.624  14.591   7.039  0.0385 -0.1915 -0.0536
 1122loPI   C2A16936  13.625  14.571   7.570  0.1153 -0.0260 -0.0855
 1122loPI   C3A16937  13.507  14.638   7.955  0.2014  0.0673 -0.0276
 1122loPI   C4A16938  13.402  14.720   8.343 -0.1632  0.0338  0.0621
 1122loPI   C5A16939  13.430  15.005   8.574 -0.3878 -0.0066 -0.2414
 1122loPI   C6A16940  13.098  15.402   8.613 -0.1514  0.1766  0.0382
 1122loPI   C1B16941  14.112  14.418   7.364 -0.2008 -0.2464 -0.1957
 1122loPI   C2B16942  14.031  14.495   7.844 -0.3263  0.1063 -0.1423
 1122loPI   C3B16943  13.976  14.634   8.197  0.0667 -0.0245  0.1471
 1122loPI   C4B16944  13.930  14.853   8.592 -0.0928 -0.0693 -0.1713
 1123loPI    C116945   5.959   2.280   5.778 -0.0140 -0.1109  0.1304
 1123loPI    C216946   6.175   1.985   5.616  0.0902 -0.0681  0.1902
 1123loPI    C316947   5.803   2.056   5.486  0.1630 -0.0506 -0.0122
 1123loPI   PO416948   5.910   2.224   6.020 -0.0811 -0.0161 -0.2516
 1123loPI   GL116949   5.714   2.307   6.461  0.1032  0.2722  0.0185
 1123loPI   GL216950   5.420   2.279   6.313  0.0095 -0.0519 -0.3940
 1123loPI   C1A16951   5.783   2.262   6.937 -0.1680  0.0725 -0.1026
 1123loPI   C2A16952   5.772   2.308   7.345  0.0286  0.2224  0.2075
 1123loPI   C3A16953   5.765   2.238   7.774  0.0409  0.1558 -0.2869
 1123loPI   C4A16954   5.782   2.269   8.218  0.1738 -0.1438  0.0590
 1123loPI   C5A16955   5.716   2.497   8.543 -0.1434 -0.0223  0.0560
 1123loPI   C6A16956   5.461   2.833   8.698  0.1016 -0.1979 -0.0501
 1123loPI   C1B16957   5.319   2.338   6.745  0.1866  0.0635 -0.2063
 1123loPI   C2B16958   5.305   2.368   7.237 -0.2352 -0.1373  0.0815
 1123loPI   C3B16959   5.268   2.362   7.702  0.0272  0.1281  0.0954
 1123loPI   C4B16960   5.175   2.539   8.088 -0.1831 -0.0092  0.0508
 1124loPI    C116961  10.152   7.637   5.895 -0.1392 -0.0013  0.2326
 1124loPI    C216962   9.931   7.913   5.708 -0.1180 -0.0876  0.0785
 1124loPI    C316963  10.235   7.737   5.517 -0.0835 -0.1626  0.2015
 1124loPI   PO416964  10.061   7.679   6.136  0.0249 -0.0563 -0.0378
 1124loPI   GL116965   9.892   7.909   6.580  0.1395  0.0172  0.4732
 1124loPI   GL216966  10.218   7.794   6.579 -0.0930 -0.0802 -0.0638
 1124loPI   C1A16967   9.757   8.158   6.948  0.0415 -0.0896  0.0115
 1124loPI   C2A16968   9.738   8.160   7.390  0.1179  0.0577  0.1086
 1124loPI   C3A16969   9.650   8.055   7.747 -0.1702  0.1420 -0.2401
 1124loPI   C4A16970   9.668   8.056   8.217  0.3989 -0.1585 -0.0371
 1124loPI   C5A16971   9.713   8.091   8.658  0.0638  0.2471 -0.1321
 1124loPI   C6A16972  10.044   8.170   8.934 -0.0765 -0.1579  0.3114
 1124loPI   C1B16973  10.067   7.642   6.950 -0.0702 -0.1611  0.0951
 1124loPI   C2B16974   9.962   7.575   7.362 -0.4247  0.1556  0.0498
 1124loPI   C3B16975   9.926   7.583   7.695  0.2208 -0.2209 -0.1280
 1124loPI   C4B16976   9.874   7.624   8.180  0.3805  0.0876  0.0586
 1125loPI    C116977   0.880   2.793   6.113  0.1328 -0.0930 -0.1897
 1125loPI    C216978   0.850   2.632   5.748 -0.0556 -0.0465 -0.1962
 1125loPI    C316979   0.840   3.029   5.792 -0.2755 -0.0594 -0.1197
 1125loPI   PO416980   0.677   2.782   6.251  0.1519  0.1977 -0.0845
 1125loPI   GL116981   0.435   2.529   6.586  0.1444 -0.1824  0.0558
 1125loPI   GL216982   0.768   2.551   6.725 -0.2651  0.0337 -0.2001
 1125loPI   C1A16983   0.254   2.664   6.946 -0.2788  0.1772  0.2510
 1125loPI   C2A16984   0.286   2.658   7.401 -0.0016 -0.1115 -0.0235
 1125loPI   C3A16985   0.258   2.679   7.805  0.1329  0.1811 -0.1771
 1125loPI   C4A16986   0.224   2.864   8.183  0.1226 -0.4095  0.1560
 1125loPI   C5A16987   0.445   2.847   8.591  0.0135 -0.0617  0.1222
 1125loPI   C6A16988   0.472   3.198   8.837  0.1541  0.0250  0.0428
 1125loPI   C1B16989   0.806   2.681   7.097  0.0683  0.1933  0.1037
 1125loPI   C2B16990   0.747   2.542   7.587 -0.0850 -0.0685  0.0029
 1125loPI   C3B16991   0.839   2.671   7.980  0.0182 -0.0083  0.2788
 1125loPI   C4B16992   0.863   2.688   8.447  0.2585 -0.3216 -0.1217
 1126loPI    C116993  15.570   8.299   5.968 -0.0226  0.2607 -0.1103
 1126loPI    C216994  15.229   8.133   5.839  0.0264 -0.0812  0.1831
 1126loPI    C316995  15.544   8.161   5.593 -0.1342  0.0157 -0.0147
 1126loPI   PO416996  15.578   8.537   6.080 -0.1360  0.0368  0.0295
 1126loPI   GL116997  15.571   8.523   6.456 -0.0013  0.0430 -0.2255
 1126loPI   GL216998  15.829   8.551   6.613  0.1601  0.1404  0.0097
 1126loPI   C1A16999  15.540   8.179   6.852  0.0086  0.0641  0.3899
 1126loPI   C2A17000  15.538   8.277   7.254 -0.5751  0.0777  0.1949
 1126loPI   C3A17001  15.484   8.244   7.667  0.0602 -0.4107  0.1297
 1126loPI   C4A17002  15.592   8.058   8.052  0.0148 -0.2302 -0.1763
 1126loPI   C5A17003  15.564   7.881   8.504 -0.1042 -0.2854 -0.1017
 1126loPI   C6A17004  15.491   7.966   8.964 -0.0277 -0.2698  0.1074
 1126loPI   C1B17005  15.799   8.666   6.987 -0.2823 -0.4755 -0.3033
 1126loPI   C2B17006  15.909   8.763   7.384  0.0387  0.1226 -0.1178
 1126loPI   C3B17007  15.848   8.624   7.785  0.0695 -0.1624  0.2096
 1126loPI   C4B17008  15.905   8.485   8.209  0.0993  0.1379 -0.1340
 1127loPI    C117009   5.435   6.871   5.836 -0.0535  0.2182  0.1874
 1127loPI    C217010   5.213   6.798   5.511 -0.1484 -0.1865  0.3367
 1127loPI    C317011   5.533   7.037   5.486 -0.2644 -0.0614 -0.0090
 1127loPI   PO417012   5.328   6.815   6.024  0.2679  0.0841  0.3561
 1127loPI   GL117013   5.585   6.857   6.454  0.0994 -0.2178 -0.1293
 1127loPI   GL217014   5.827   6.883   6.479  0.3554  0.0395 -0.2660
 1127loPI   C1A17015   5.284   6.923   6.700  0.5117 -0.0074  0.0465
 1127loPI   C2A17016   5.415   6.940   7.122  0.3524 -0.0756  0.1285
 1127loPI   C3A17017   5.414   6.972   7.435  0.0385 -0.1168  0.0832
 1127loPI   C4A17018   5.358   6.866   7.850  0.1803 -0.1631 -0.1567
 1127loPI   C5A17019   5.275   6.863   8.306 -0.0181 -0.0073 -0.2129
 1127loPI   C6A17020   5.436   7.182   8.644  0.1334 -0.0058 -0.0114
 1127loPI   C1B17021   5.915   6.780   6.869  0.1302  0.0863  0.1818
 1127loPI   C2B17022   5.912   6.813   7.286 -0.0906 -0.3572 -0.0053
 1127loPI   C3B17023   5.861   6.838   7.712  0.2784 -0.0547 -0.0987
 1127loPI   C4B17024   5.871   6.854   8.129  0.1869 -0.0845 -0.2138
 1128loPI    C117025   9.680   1.076   5.890 -0.0372 -0.1911  0.1483
 1128loPI    C217026   9.566   1.457   5.927 -0.0886 -0.2023  0.1055
 1128loPI    C317027   9.445   1.241   5.613 -0.0634 -0.2554  0.1321
 1128loPI   PO417028   9.677   0.990   6.156  0.2077  0.1382 -0.0252
 1128loPI   GL117029   9.638   1.034   6.646 -0.1084  0.3181 -0.0374
 1128loPI   GL217030   9.351   0.872   6.677 -0.1003  0.0576  0.0762
 1128loPI   C1A17031   9.997   1.212   6.696  0.1124 -0.3388 -0.1860
 1128loPI   C2A17032  10.287   1.211   7.003 -0.1935  0.2357  0.3593
 1128loPI   C3A17033  10.430   1.203   7.403  0.2919  0.1937  0.1908
 1128loPI   C4A17034  10.462   1.255   7.844  0.1426 -0.1025 -0.1350
 1128loPI   C5A17035  10.342   1.199   8.303  0.2144  0.0038 -0.1300
 1128loPI   C6A17036  10.109   0.950   8.683 -0.1603  0.3726  0.2380
 1128loPI   C1B17037   9.114   1.008   7.058  0.0875  0.2844 -0.0398
 1128loPI   C2B17038   8.976   1.010   7.447 -0.1846 -0.0438 -0.1921
 1128loPI   C3B17039   9.084   1.078   7.944  0.0703 -0.0765 -0.0868
 1128loPI   C4B17040   9.262   0.837   8.381 -0.1226  0.1793  0.1456
 1129loPI    C117041   7.501   0.476   5.705 -0.0359  0.0832  0.0213
 1129loPI    C217042   7.216   0.756   5.721 -0.0562  0.0585  0.0968
 1129loPI    C317043   7.165   0.430   5.494 -0.1522 -0.0169  0.2252
 1129loPI   PO417044   7.624   0.508   5.943  0.3904  0.0364 -0.0962
 1129loPI   GL117045   7.637   0.322   6.301  0.0257  0.2343  0.2064
 1129loPI   GL217046   7.800   0.659   6.416  0.0742 -0.0282  0.0353
 1129loPI   C1A17047   7.547   0.404   6.722  0.0841 -0.1404 -0.3274
 1129loPI   C2A17048   7.577   0.379   7.053 -0.1942 -0.0429  0.0455
 1129loPI   C3A17049   7.590   0.255   7.419 -0.1753 -0.0687 -0.2155
 1129loPI   C4A17050   7.512   0.329   7.785 -0.3525  0.0879 -0.0704
 1129loPI   C5A17051   7.630   0.422   8.124 -0.0492  0.0768  0.0906
 1129loPI   C6A17052   7.786   0.316   8.514 -0.0643  0.1204  0.0975
 1129loPI   C1B17053   7.993   1.017   6.606  0.0007  0.0667  0.0842
 1129loPI   C2B17054   8.199   1.029   7.009  0.2062 -0.1542  0.2580
 1129loPI   C3B17055   8.218   1.114   7.445 -0.0889  0.4424  0.1631
 1129loPI   C4B17056   7.999   1.148   7.803  0.0087 -0.2755 -0.1673
 1130loPI    C117057   8.237  14.633   5.816 -0.0274  0.0151  0.2889
 1130loPI    C217058   8.593  14.471   5.901  0.0440 -0.1226 -0.2384
 1130loPI    C317059   8.574  14.820   5.705 -0.1140  0.0149  0.0173
 1130loPI   PO417060   8.080  14.612   6.025 -0.0406  0.0101 -0.0009
 1130loPI   GL117061   8.329  14.562   6.426 -0.0552  0.0379 -0.3831
 1130loPI   GL217062   8.235  14.298   6.624  0.2051  0.0927  0.3275
 1130loPI   C1A17063   8.286  14.842   6.808  0.3441 -0.1648  0.2089
 1130loPI   C2A17064   8.229  14.836   7.254 -0.0596 -0.2363 -0.0944
 1130loPI   C3A17065   8.217  14.965   7.673  0.3516  0.2594 -0.2126
 1130loPI   C4A17066   8.195  14.960   8.069 -0.0553  0.2217 -0.1842
 1130loPI   C5A17067   7.976  15.084   8.394 -0.1936  0.3871  0.1574
 1130loPI   C6A17068   8.046  15.406   8.813  0.0502  0.0870  0.1451
 1130loPI   C1B17069   8.143  14.362   7.000  0.0096 -0.0224 -0.1523
 1130loPI   C2B17070   8.138  14.320   7.445 -0.1369 -0.0564 -0.3468
 1130loPI   C3B17071   8.075  14.468   7.876 -0.1174  0.1760 -0.1749
 1130loPI   C4B17072   7.997  14.552   8.312 -0.0491 -0.2435  0.0352
 1131loPI    C117073   2.535  16.286   5.803 -0.0057  0.1633 -0.1534
 1131loPI    C217074   2.697  16.292   5.437 -0.0668  0.0632 -0.1824
 1131loPI    C317075   2.300  16.277   5.479 -0.0521 -0.1764 -0.1136
 1131loPI   PO417076   2.565  16.510   5.973  0.0158 -0.0388 -0.0214
 1131loPI   GL117077   2.482  16.531   6.342  0.1460 -0.1714 -0.0250
 1131loPI   GL217078   2.219  16.570   6.314  0.4017  0.1036 -0.0706
 1131loPI   C1A17079   2.702  16.473   6.710 -0.2383  0.2267 -0.1104
 1131loPI   C2A17080   2.607  16.417   7.083 -0.2263 -0.0342  0.3053
 1131loPI   C3A17081   2.599  16.494   7.481  0.1855 -0.1848 -0.4965
 1131loPI   C4A17082   2.615  16.538   7.868 -0.1364  0.0028 -0.0262
 1131loPI   C5A17083   2.636  16.559   8.302 -0.1327  0.1910  0.0165
 1131loPI   C6A17084   2.863  16.860   8.576  0.0869  0.0666  0.1090
 1131loPI   C1B17085   2.124  16.481   6.755  0.1269 -0.3261 -0.0853
 1131loPI   C2B17086   2.093  16.567   7.209 -0.1385 -0.0182  0.4406
 1131loPI   C3B17087   2.105  16.497   7.583  0.1394 -0.2003 -0.2373
 1131loPI   C4B17088   2.090  16.562   8.094 -0.5339 -0.1067 -0.1192
 1132loPI    C117089  16.793   0.539   5.990  0.1386  0.0426  0.1085
 1132loPI    C217090  16.792   0.154   5.880 -0.2936  0.1092 -0.1436
 1132loPI    C317091  17.129   0.368   5.856 -0.0834 -0.2139 -0.1362
 1132loPI   PO417092  16.791   0.545   6.285  0.0250  0.2048  0.1067
 1132loPI   GL117093  16.865   0.642   6.726 -0.0152  0.0782  0.0662
 1132loPI   GL217094  16.837   1.051   6.727  0.1535  0.0071 -0.0661
 1132loPI   C1A17095  16.980   0.447   7.065 -0.0763  0.1302 -0.1250
 1132loPI   C2A17096  16.966   0.407   7.542  0.1144  0.1178  0.0354
 1132loPI   C3A17097  16.967   0.510   7.987  0.1186 -0.0113  0.0215
 1132loPI   C4A17098  17.012   0.503   8.428  0.1213  0.0429  0.0831
 1132loPI   C5A17099  16.669   0.561   8.704  0.1669 -0.0580 -0.1144
 1132loPI   C6A17100  16.331   0.867   8.622 -0.0516  0.2745 -0.3377
 1132loPI   C1B17101  16.879   0.906   7.209  0.0079 -0.2580 -0.1913
 1132loPI   C2B17102  16.842   0.883   7.657  0.2712 -0.0098  0.3168
 1132loPI   C3B17103  16.753   0.935   8.109  0.1115 -0.3614  0.0385
 1132loPI   C4B17104  16.877   1.114   8.516  0.1234  0.1208  0.0617
 1133loPI    C117105  10.468  15.783   6.222 -0.0871  0.1312 -0.1473
 1133loPI    C217106  10.433  16.158   6.356 -0.3402  0.1420 -0.2372
 1133loPI    C317107  10.553  16.090   5.981  0.3681  0.1117 -0.0207
 1133loPI   PO417108  10.656  15.602   6.386 -0.0815  0.0863  0.0420
 1133loPI   GL117109  11.136  15.605   6.611 -0.0079 -0.0765  0.4663
 1133loPI   GL217110  11.071  15.185   6.633 -0.0327  0.2284 -0.0408
 1133loPI   C1A17111  11.269  15.512   7.010  0.1346  0.2167 -0.1731
 1133loPI   C2A17112  11.313  15.558   7.406 -0.2583  0.1145 -0.0401
 1133loPI   C3A17113  11.422  15.549   7.868 -0.4302  0.1615  0.0892
 1133loPI   C4A17114  11.550  15.630   8.255  0.1095  0.0036  0.0942
 1133loPI   C5A17115  11.510  15.840   8.745 -0.0660  0.2885  0.2448
 1133loPI   C6A17116  11.320  16.208   8.963 -0.1514  0.1523 -0.1064
 1133loPI   C1B17117  10.956  15.086   7.033 -0.1393 -0.1040  0.1739
 1133loPI   C2B17118  10.984  15.120   7.486 -0.1127 -0.1989 -0.1308
 1133loPI   C3B17119  10.997  15.230   7.969 -0.1267  0.1040  0.1665
 1133loPI   C4B17120  10.914  14.962   8.295 -0.0050 -0.2029  0.1108
 1134loPI    C117121  12.970  12.531   5.983 -0.2003  0.1550  0.1179
 1134loPI    C217122  13.191  12.710   5.702  0.0456 -0.0785  0.1578
 1134loPI    C317123  13.035  12.348   5.634 -0.1021 -0.0294  0.2308
 1134loPI   PO417124  13.136  12.684   6.239  0.0860 -0.0398  0.2581
 1134loPI   GL117125  13.043  12.766   6.660 -0.0837 -0.2224 -0.0739
 1134loPI   GL217126  13.212  12.592   6.950  0.0099  0.0449  0.1750
 1134loPI   C1A17127  12.716  12.879   6.954  0.0010  0.1421 -0.0549
 1134loPI   C2A17128  12.632  12.995   7.416 -0.0158  0.1518 -0.2048
 1134loPI   C3A17129  12.726  12.873   7.830  0.1619  0.1803 -0.1424
 1134loPI   C4A17130  12.658  12.814   8.253  0.1591  0.0369 -0.2402
 1134loPI   C5A17131  12.833  12.715   8.662  0.0002  0.1402  0.4198
 1134loPI   C6A17132  12.753  12.385   8.940  0.3334 -0.2400 -0.0626
 1134loPI   C1B17133  13.174  12.853   7.336  0.0215 -0.0206 -0.0177
 1134loPI   C2B17134  13.158  12.810   7.666 -0.2853  0.0045 -0.1548
 1134loPI   C3B17135  13.227  12.835   8.097  0.0824 -0.3316 -0.0186
 1134loPI   C4B17136  13.319  12.635   8.395  0.0972 -0.1166 -0.3187
 1135loPI    C117137   2.004  10.562   6.141 -0.1405 -0.1113 -0.2068
 1135loPI    C217138   2.348  10.564   5.937 -0.0439 -0.0541 -0.0461
 1135loPI    C317139   2.082  10.859   5.884  0.1795  0.2043  0.2392
 1135loPI   PO417140   2.060  10.558   6.416  0.1019 -0.0911  0.0642
 1135loPI   GL117141   2.217  10.628   6.774 -0.2264  0.0046 -0.0307
 1135loPI   GL217142   2.196  10.942   6.774 -0.2093 -0.1372  0.1089
 1135loPI   C1A17143   2.584  10.634   6.936  0.0722 -0.0485 -0.1825
 1135loPI   C2A17144   2.648  10.618   7.335  0.0153  0.1613 -0.0756
 1135loPI   C3A17145   2.586  10.602   7.831  0.0492  0.0429  0.2135
 1135loPI   C4A17146   2.626  10.564   8.260 -0.2167  0.1963  0.1074
 1135loPI   C5A17147   2.688  10.602   8.698 -0.1176  0.0075  0.0110
 1135loPI   C6A17148   2.800  10.312   9.079 -0.2961 -0.0394  0.3816
 1135loPI   C1B17149   2.363  11.002   7.178 -0.2046  0.0901 -0.2863
 1135loPI   C2B17150   2.377  10.985   7.602  0.1470 -0.0951 -0.1921
 1135loPI   C3B17151   2.512  11.076   7.995  0.1289 -0.0385 -0.0342
 1135loPI   C4B17152   2.531  11.012   8.443  0.0072 -0.0679  0.2652
 1136loPI    C117153  16.992  16.624   5.653  0.1398 -0.1234  0.0876
 1136loPI    C217154  16.821  16.414   5.359 -0.1162 -0.0209  0.1605
 1136loPI    C317155  17.009  16.757   5.277 -0.0792 -0.0553  0.1007
 1136loPI   PO417156  16.784  16.446   5.906  0.2132 -0.2617  0.0239
 1136loPI   GL117157  16.791  16.529   6.360  0.0801 -0.0610  0.0078
 1136loPI   GL217158  16.612  16.326   6.492  0.1771  0.0538  0.1956
 1136loPI   C1A17159  17.123  16.483   6.678  0.0016 -0.1380 -0.1581
 1136loPI   C2A17160  17.067  16.486   7.189 -0.0491 -0.0851 -0.0509
 1136loPI   C3A17161  17.065  16.390   7.488  0.1912 -0.0500 -0.2556
 1136loPI   C4A17162  17.079  16.417   7.929 -0.2323 -0.0356 -0.0216
 1136loPI   C5A17163  16.991  16.479   8.366  0.0301 -0.0667  0.0906
 1136loPI   C6A17164  17.029  16.338   8.689  0.2621  0.1912 -0.0708
 1136loPI   C1B17165  16.543  16.445   6.855  0.1091  0.1610  0.0754
 1136loPI   C2B17166  16.544  16.540   7.305  0.0502  0.0054  0.3499
 1136loPI   C3B17167  16.558  16.521   7.735  0.1131 -0.3128 -0.1547
 1136loPI   C4B17168  16.527  16.582   8.141 -0.2594 -0.1074 -0.3587
 1137loPI    C117169   5.011  12.888   6.012 -0.2788  0.0402  0.3310
 1137loPI    C217170   4.628  12.862   5.901 -0.1627 -0.0557 -0.0618
 1137loPI    C317171   4.918  12.837   5.627  0.1337 -0.2157  0.2592
 1137loPI   PO417172   5.036  12.670   6.310  0.0384  0.1548  0.4688
 1137loPI   GL117173   5.157  12.546   6.693  0.0419 -0.2467 -0.3731
 1137loPI   GL217174   4.902  12.723   6.746  0.4691 -0.1460  0.0428
 1137loPI   C1A17175   5.418  12.504   7.052 -0.0741 -0.0675 -0.1426
 1137loPI   C2A17176   5.454  12.624   7.404  0.1611 -0.1800  0.0048
 1137loPI   C3A17177   5.534  12.629   7.888 -0.0428 -0.0982 -0.1688
 1137loPI   C4A17178   5.572  12.681   8.317  0.2280  0.2044 -0.0446
 1137loPI   C5A17179   5.679  12.617   8.765  0.2462 -0.0094 -0.2153
 1137loPI   C6A17180   6.055  12.636   9.058  0.0439 -0.2494 -0.0477
 1137loPI   C1B17181   5.061  12.920   7.166  0.2584 -0.0483  0.0615
 1137loPI   C2B17182   5.098  12.935   7.578  0.0062 -0.1366 -0.2432
 1137loPI   C3B17183   5.110  12.910   8.017 -0.1312  0.1246  0.2060
 1137loPI   C4B17184   5.102  12.875   8.404 -0.0808  0.0727 -0.2885
 1138loPI    C117185   4.263  16.282   5.755  0.2198 -0.0971 -0.2100
 1138loPI    C217186   4.092  16.227   5.398 -0.0298 -0.0963 -0.0933
 1138loPI    C317187   4.490  16.209   5.434 -0.0024 -0.0944 -0.3703
 1138loPI   PO417188   4.165  16.134   5.885  0.0469 -0.0917  0.2480
 1138loPI   GL117189   4.221  16.083   6.282 -0.0772  0.1063  0.1199
 1138loPI   GL217190   4.114  15.867   6.516 -0.2870 -0.0733  0.0768
 1138loPI   C1A17191   4.242  16.254   6.829 -0.1095  0.0577 -0.1659
 1138loPI   C2A17192   4.173  16.169   7.218  0.1816  0.2293 -0.0333
 1138loPI   C3A17193   4.267  15.975   7.684 -0.3504 -0.3439 -0.2999
 1138loPI   C4A17194   4.355  16.016   8.095  0.0859  0.1335  0.1531
 1138loPI   C5A17195   4.633  15.959   8.489 -0.3024  0.3368 -0.0215
 1138loPI   C6A17196   4.628  15.506   8.752  0.1028 -0.2348  0.0042
 1138loPI   C1B17197   3.900  15.865   6.887 -0.2145  0.5734 -0.3315
 1138loPI   C2B17198   3.739  15.758   7.298  0.1913  0.0468  0.0251
 1138loPI   C3B17199   3.821  15.748   7.752 -0.0358  0.0731  0.2424
 1138loPI   C4B17200   3.816  15.786   8.267  0.1645  0.1444  0.1893
 1139loPI    C117201   2.469   7.795   5.659 -0.1862  0.2143 -0.0479
 1139loPI    C217202   2.234   8.037   5.444 -0.1147  0.1718 -0.1749
 1139loPI    C317203   2.542   7.851   5.270 -0.0568  0.1358 -0.0354
 1139loPI   PO417204   2.299   7.670   5.840  0.0293  0.3286 -0.0967
 1139loPI   GL117205   2.310   7.293   6.201  0.0043 -0.0434 -0.0143
 1139loPI   GL217206   2.138   7.116   6.480 -0.1181  0.2611  0.3139
 1139loPI   C1A17207   2.683   7.281   6.504  0.2290  0.0123  0.1305
 1139loPI   C2A17208   2.828   7.476   6.910  0.0913  0.0607  0.0594
 1139loPI   C3A17209   2.762   7.394   7.329 -0.0636 -0.0439 -0.2356
 1139loPI   C4A17210   2.811   7.365   7.818 -0.1130  0.6650  0.1344
 1139loPI   C5A17211   2.819   7.272   8.207 -0.0075 -0.0666 -0.0216
 1139loPI   C6A17212   2.791   6.887   8.447 -0.0934  0.0118 -0.1305
 1139loPI   C1B17213   2.417   6.963   6.842  0.0765  0.1407  0.2390
 1139loPI   C2B17214   2.496   6.994   7.269 -0.0286  0.1558  0.3716
 1139loPI   C3B17215   2.524   6.986   7.676  0.2344  0.0319  0.1708
 1139loPI   C4B17216   2.464   6.965   8.070 -0.2351 -0.1393 -0.1127
 1140loPI    C117217   5.090   2.554   5.772  0.0407 -0.1020  0.1546
 1140loPI    C217218   4.699   2.492   5.712  0.0319 -0.0886  0.1980
 1140loPI    C317219   4.934   2.599   5.406 -0.0212  0.0232  0.1959
 1140loPI   PO417220   5.007   2.534   6.104 -0.2377  0.1996  0.0879
 1140loPI   GL117221   5.190   2.692   6.459  0.1757 -0.1095  0.2542
 1140loPI   GL217222   4.954   2.942   6.482 -0.2776  0.2005 -0.0180
 1140loPI   C1A17223   5.136   2.791   6.923 -0.3109 -0.0924  0.1034
 1140loPI   C2A17224   5.077   2.876   7.384  0.0757  0.1227 -0.0658
 1140loPI   C3A17225   4.992   2.912   7.863 -0.1743  0.0246 -0.0067
 1140loPI   C4A17226   4.999   3.041   8.315  0.2574 -0.0252 -0.1614
 1140loPI   C5A17227   4.971   3.167   8.733  0.0397 -0.0349  0.4573
 1140loPI   C6A17228   4.839   3.396   8.954  0.2236  0.0400  0.2064
 1140loPI   C1B17229   4.680   2.866   6.814  0.2990  0.3335 -0.0081
 1140loPI   C2B17230   4.550   2.850   7.209  0.0783 -0.4653  0.1936
 1140loPI   C3B17231   4.489   2.931   7.581 -0.2103  0.0258  0.2740
 1140loPI   C4B17232   4.551   3.123   8.021  0.0187  0.1399  0.1505
 1141loPI    C117233   6.916   1.083   5.885  0.0444 -0.1427 -0.1252
 1141loPI    C217234   6.540   0.996   5.779 -0.0383 -0.1867  0.1930
 1141loPI    C317235   6.720   1.320   5.629 -0.2100 -0.1541  0.0545
 1141loPI   PO417236   6.911   1.082   6.185 -0.0091  0.2685 -0.0950
 1141loPI   GL117237   6.892   1.056   6.582 -0.1596  0.0235  0.2563
 1141loPI   GL217238   6.714   1.345   6.615 -0.0780  0.0352 -0.1932
 1141loPI   C1A17239   7.063   1.090   6.989  0.1815  0.2002  0.0456
 1141loPI   C2A17240   7.065   1.107   7.370  0.1037 -0.1800 -0.0822
 1141loPI   C3A17241   7.287   1.193   7.729 -0.0112 -0.0403 -0.0012
 1141loPI   C4A17242   7.156   1.173   8.159 -0.3291 -0.0867 -0.0591
 1141loPI   C5A17243   7.388   1.096   8.560 -0.1100 -0.1031  0.2054
 1141loPI   C6A17244   7.782   0.844   8.686 -0.2676 -0.0023 -0.1614
 1141loPI   C1B17245   6.704   1.445   7.060  0.0921  0.0586 -0.1850
 1141loPI   C2B17246   6.648   1.467   7.420  0.1249  0.2164  0.1022
 1141loPI   C3B17247   6.618   1.506   7.872  0.1672 -0.0290  0.3108
 1141loPI   C4B17248   6.589   1.667   8.372 -0.0183  0.1217 -0.0884
 1142loPI    C117249   4.761   9.597   5.788 -0.0447 -0.2524 -0.0307
 1142loPI    C217250   4.585   9.774   5.476  0.0960 -0.0418  0.0076
 1142loPI    C317251   4.840   9.472   5.416 -0.1594 -0.2481 -0.0570
 1142loPI   PO417252   4.419   9.518   5.955  0.0390  0.1137  0.1775
 1142loPI   GL117253   4.232   9.248   6.255 -0.1295 -0.1044 -0.1743
 1142loPI   GL217254   4.181   8.901   6.379 -0.0023 -0.0119 -0.0087
 1142loPI   C1A17255   4.370   9.428   6.692 -0.0400 -0.0086  0.3106
 1142loPI   C2A17256   4.370   9.390   7.142 -0.1466 -0.1103 -0.0474
 1142loPI   C3A17257   4.414   9.388   7.544 -0.0353 -0.1200 -0.0600
 1142loPI   C4A17258   4.397   9.339   7.938 -0.1868 -0.1227  0.0827
 1142loPI   C5A17259   4.437   9.414   8.472 -0.2777  0.0002 -0.0064
 1142loPI   C6A17260   4.298   9.689   8.811  0.2387 -0.2440  0.1766
 1142loPI   C1B17261   4.137   9.027   6.796  0.3230  0.1714 -0.0835
 1142loPI   C2B17262   4.122   8.908   7.212  0.1405  0.1318  0.1111
 1142loPI   C3B17263   4.135   8.920   7.671 -0.1726  0.1767 -0.2234
 1142loPI   C4B17264   4.127   8.906   8.083 -0.0771  0.1412 -0.2275
 1143loPI    C117265   0.455   9.569   6.325  0.0634  0.2048 -0.0352
 1143loPI    C217266   0.807   9.440   6.184  0.0399  0.0588  0.0369
 1143loPI    C317267   0.475   9.397   5.964  0.0521  0.1133  0.0074
 1143loPI   PO417268   0.482   9.456   6.558 -0.0780  0.0154  0.1309
 1143loPI   GL117269   0.249   9.445   6.925 -0.0376 -0.0660  0.0978
 1143loPI   GL217270   0.229   9.133   6.834  0.3457 -0.3008 -0.0125
 1143loPI   C1A17271   0.237   9.284   7.435  0.1106  0.3301 -0.0903
 1143loPI   C2A17272   0.216   9.243   7.894 -0.2104 -0.0506 -0.0831
 1143loPI   C3A17273   0.227   9.166   8.378  0.1644  0.3569  0.0804
 1143loPI   C4A17274   0.327   8.998   8.785 -0.0443  0.1957  0.3022
 1143loPI   C5A17275   0.422   8.530   8.876  0.0313  0.3831  0.1750
 1143loPI   C6A17276   0.686   8.133   8.969 -0.1905 -0.1560  0.2922
 1143loPI   C1B17277  -0.104   9.011   7.095 -0.1164  0.0828  0.1255
 1143loPI   C2B17278  -0.109   8.915   7.590  0.0292 -0.1324 -0.2542
 1143loPI   C3B17279  -0.106   8.803   8.023 -0.1314 -0.1172  0.0902
 1143loPI   C4B17280  -0.071   8.727   8.346 -0.1518  0.2203 -0.3377
 1144loPI    C117281  11.668  16.673   6.118 -0.0871 -0.1209 -0.0701
 1144loPI    C217282  11.933  16.747   5.828 -0.1151  0.1137 -0.0374
 1144loPI    C317283  11.582  16.940   5.833 -0.2071 -0.0535  0.0280
 1144loPI   PO417284  11.794  16.704   6.312 -0.1816  0.1946 -0.3128
 1144loPI   GL117285  11.573  16.698   6.699  0.0267  0.2851 -0.4374
 1144loPI   GL217286  11.710  16.437   6.717  0.0537 -0.0166 -0.1179
 1144loPI   C1A17287  11.414  16.822   7.030 -0.1717  0.1200  0.1532
 1144loPI   C2A17288  11.482  16.971   7.396 -0.0314  0.2013 -0.2462
 1144loPI   C3A17289  11.503  16.880   7.855 -0.1583 -0.1889 -0.1914
 1144loPI   C4A17290  11.597  16.796   8.287  0.2575 -0.2119 -0.1931
 1144loPI   C5A17291  11.413  17.037   8.679  0.0800 -0.1745 -0.2648
 1144loPI   C6A17292  11.158  17.232   8.988 -0.0152 -0.1819  0.1175
 1144loPI   C1B17293  11.649  16.323   7.067 -0.2489 -0.0189 -0.0217
 1144loPI   C2B17294  11.577  16.460   7.495  0.0370  0.2368  0.1924
 1144loPI   C3B17295  11.603  16.369   7.923 -0.0993 -0.0637  0.0166
 1144loPI   C4B17296  11.783  16.323   8.381 -0.2825 -0.2907 -0.1491
 1145loPI    C117297  16.221  13.896   6.043 -0.1896  0.3094 -0.2258
 1145loPI    C217298  16.290  13.678   5.715  0.1790  0.2417 -0.1082
 1145loPI    C317299  15.965  13.911   5.735 -0.1586 -0.1978 -0.2851
 1145loPI   PO417300  16.258  13.735   6.224 -0.1059  0.0386  0.1188
 1145loPI   GL117301  16.565  13.695   6.575  0.0542  0.0209  0.1495
 1145loPI   GL217302  16.483  13.289   6.493 -0.1230 -0.1275  0.0658
 1145loPI   C1A17303  16.618  13.636   7.065  0.0292  0.0750 -0.5116
 1145loPI   C2A17304  16.629  13.691   7.526 -0.2136  0.0906 -0.0761
 1145loPI   C3A17305  16.640  13.716   7.951  0.2400  0.0674  0.0032
 1145loPI   C4A17306  16.701  13.919   8.358  0.2873  0.2849  0.3980
 1145loPI   C5A17307  16.983  13.956   8.740  0.0946 -0.1054  0.0481
 1145loPI   C6A17308  17.068  13.742   9.177 -0.0694 -0.1732 -0.1277
 1145loPI   C1B17309  16.796  13.186   6.843  0.2021 -0.0552  0.0675
 1145loPI   C2B17310  16.860  13.247   7.250 -0.0589  0.0497  0.1231
 1145loPI   C3B17311  16.865  13.270   7.692 -0.3108  0.2106 -0.0401
 1145loPI   C4B17312  16.835  13.259   8.136 -0.5302 -0.2204 -0.2929
 1146loPI    C117313  15.473   7.619   5.832 -0.1680 -0.2827 -0.0204
 1146loPI    C217314  15.099   7.532   5.719 -0.2119  0.0750 -0.1627
 1146loPI    C317315  15.344   7.726   5.469 -0.0515  0.1705  0.0653
 1146loPI   PO417316  15.404   7.702   6.087  0.2027  0.1337 -0.2490
 1146loPI   GL117317  15.379   7.543   6.542  0.2343  0.1403  0.1359
 1146loPI   GL217318  15.237   7.780   6.635 -0.1629 -0.0447 -0.2920
 1146loPI   C1A17319  15.475   7.315   6.990 -0.0973 -0.2078  0.0314
 1146loPI   C2A17320  15.454   7.285   7.452  0.0593  0.1782  0.0694
 1146loPI   C3A17321  15.386   7.208   7.891 -0.0109  0.0815  0.1509
 1146loPI   C4A17322  15.403   7.143   8.351  0.0283  0.1356  0.1326
 1146loPI   C5A17323  15.430   6.940   8.684 -0.2679  0.2102  0.1335
 1146loPI   C6A17324  15.508   6.537   8.615  0.2873  0.4128  0.0972
 1146loPI   C1B17325  15.242   7.818   7.007  0.2266  0.2278  0.0075
 1146loPI   C2B17326  15.170   7.921   7.390 -0.0427 -0.2101  0.0635
 1146loPI   C3B17327  15.139   7.807   7.834 -0.3545 -0.1213  0.4158
 1146loPI   C4B17328  15.172   7.698   8.222  0.0147  0.1987  0.1984
 1147loPI    C117329   1.520  16.674   5.963 -0.1760 -0.0574  0.0369
 1147loPI    C217330   1.544  16.343   5.740 -0.1535  0.1024 -0.2017
 1147loPI    C317331   1.624  16.700   5.578  0.0543  0.2032  0.1132
 1147loPI   PO417332   1.730  16.732   6.151  0.1872 -0.0334  0.2343
 1147loPI   GL117333   1.849  16.937   6.587  0.1259  0.2443 -0.0220
 1147loPI   GL217334   1.535  16.988   6.673 -0.2406  0.0563 -0.0168
 1147loPI   C1A17335   1.958  16.999   6.949  0.1601 -0.3011 -0.2012
 1147loPI   C2A17336   1.980  17.021   7.407 -0.0832 -0.2418 -0.0399
 1147loPI   C3A17337   1.905  17.061   7.857 -0.0647  0.2468  0.1516
 1147loPI   C4A17338   1.858  17.022   8.253  0.0379  0.2163 -0.0399
 1147loPI   C5A17339   1.822  16.847   8.707  0.3071 -0.3348 -0.0140
 1147loPI   C6A17340   1.554  16.817   9.021  0.3879  0.3210 -0.2143
 1147loPI   C1B17341   1.452  16.978   7.131 -0.3082 -0.1543  0.0991
 1147loPI   C2B17342   1.451  17.016   7.610  0.1742 -0.0581 -0.2615
 1147loPI   C3B17343   1.345  17.108   8.054  0.2899  0.0066  0.0442
 1147loPI   C4B17344   1.351  17.065   8.485 -0.3652  0.1334  0.1078
 1148POPI    C117345  13.345  15.157   6.208  0.0510 -0.1160 -0.1574
 1148POPI    C217346  13.164  15.386   5.934  0.0229 -0.0257 -0.0640
 1148POPI    C317347  13.442  15.120   5.821  0.2695  0.2603 -0.1435
 1148POPI   PO417348  13.481  15.392   6.390 -0.1570  0.1075  0.1361
 1148POPI   GL117349  13.430  15.538   6.763  0.0890 -0.3443 -0.0960
 1148POPI   GL217350  13.756  15.543   6.873 -0.3204  0.1289 -0.1977
 1148POPI   C1A17351  13.355  15.590   7.247 -0.1178 -0.0887  0.0333
 1148POPI   D2A17352  13.237  15.526   7.660 -0.0200  0.1676  0.0261
 1148POPI   C3A17353  13.465  15.617   7.953 -0.0774 -0.1343 -0.1110
 1148POPI   C4A17354  13.574  15.471   8.385 -0.0896  0.2868  0.1974
 1148POPI   C1B17355  13.890  15.469   7.241  0.1830 -0.1597 -0.2367
 1148POPI   C2B17356  13.934  15.486   7.709  0.1366 -0.1295  0.0258
 1148POPI   C3B17357  14.018  15.512   8.099  0.0304  0.0377  0.0762
 1148POPI   C4B17358  14.119  15.367   8.566 -0.1390  0.1355  0.2292
 1149POPI    C117359  11.608   8.462   5.839  0.0851  0.2956 -0.0906
 1149POPI    C217360  11.898   8.425   5.566  0.1511  0.1109  0.0029
 1149POPI    C317361  11.676   8.108   5.665  0.0604  0.2009  0.0900
 1149POPI   PO417362  11.688   8.586   5.989  0.1264 -0.0860 -0.0942
 1149POPI   GL117363  11.763   8.687   6.478 -0.0746 -0.0207 -0.0600
 1149POPI   GL217364  11.929   8.838   6.728 -0.0955 -0.1683 -0.0300
 1149POPI   C1A17365  11.492   8.792   6.889 -0.0561 -0.2355  0.3420
 1149POPI   D2A17366  11.441   8.791   7.325  0.0840  0.3485  0.5643
 1149POPI   C3A17367  11.403   8.828   7.804  0.0614 -0.0906 -0.2265
 1149POPI   C4A17368  11.484   8.764   8.227 -0.0439  0.4492  0.1737
 1149POPI   C1B17369  11.946   8.748   7.133 -0.0029 -0.1706  0.0951
 1149POPI   C2B17370  12.052   8.781   7.555 -0.1177  0.0070 -0.3447
 1149POPI   C3B17371  11.904   8.747   7.970  0.0692  0.2305  0.1911
 1149POPI   C4B17372  11.970   8.674   8.331 -0.1727 -0.1383 -0.1331
 1150POPI    C117373   8.210  15.249   5.861 -0.1199  0.1381 -0.0295
 1150POPI    C217374   8.143  15.046   5.523  0.0620 -0.0396  0.0391
 1150POPI    C317375   8.457  15.292   5.549  0.1029 -0.0990  0.1105
 1150POPI   PO417376   8.229  15.092   6.044  0.1066  0.0805  0.1466
 1150POPI   GL117377   7.870  15.127   6.363  0.0880 -0.0730 -0.0708
 1150POPI   GL217378   7.942  14.876   6.385 -0.0760  0.2936  0.1450
 1150POPI   C1A17379   7.873  15.109   6.893 -0.3674 -0.0016  0.0047
 1150POPI   D2A17380   7.872  15.241   7.261  0.0441 -0.0608 -0.1888
 1150POPI   C3A17381   7.805  15.194   7.743 -0.1759  0.0999  0.0679
 1150POPI   C4A17382   7.647  15.333   8.068  0.0342 -0.0448 -0.2567
 1150POPI   C1B17383   7.850  14.653   6.688 -0.0623 -0.1429 -0.2522
 1150POPI   C2B17384   7.708  14.654   7.166  0.0916 -0.1435 -0.1503
 1150POPI   C3B17385   7.726  14.725   7.564 -0.0105 -0.2181 -0.0612
 1150POPI   C4B17386   7.701  14.808   8.013  0.0622  0.1453  0.0393
 1151POPI    C117387   3.656  11.173   6.025 -0.0980  0.0851  0.0707
 1151POPI    C217388   3.760  11.545   5.920 -0.1606  0.0065 -0.2820
 1151POPI    C317389   3.989  11.235   5.813  0.0173 -0.0413  0.2128
 1151POPI   PO417390   3.483  11.177   6.231  0.0396  0.0389 -0.1523
 1151POPI   GL117391   3.637  11.143   6.641  0.1945 -0.0615  0.1248
 1151POPI   GL217392   3.948  10.913   6.617  0.2324 -0.2074 -0.1175
 1151POPI   C1A17393   3.704  11.390   6.939 -0.1669  0.1276  0.3811
 1151POPI   D2A17394   3.732  11.324   7.307  0.1630 -0.2458 -0.0936
 1151POPI   C3A17395   3.842  11.430   7.742  0.1722 -0.0031  0.0026
 1151POPI   C4A17396   4.077  11.709   8.023  0.2932 -0.1900  0.1794
 1151POPI   C1B17397   4.085  11.032   7.048 -0.1377  0.1916  0.0135
 1151POPI   C2B17398   4.043  10.811   7.435 -0.0899  0.1169 -0.1772
 1151POPI   C3B17399   3.930  10.836   7.878 -0.2158  0.1338  0.1410
 1151POPI   C4B17400   3.806  11.172   8.181 -0.1742  0.1673 -0.3212
 1152POPI    C117401  11.984  14.206   6.103 -0.0470 -0.2640  0.0997
 1152POPI    C217402  11.615  14.191   5.951 -0.0915  0.0189  0.1722
 1152POPI    C317403  11.932  14.172   5.708 -0.1556 -0.0262  0.0914
 1152POPI   PO417404  11.997  14.404   6.259 -0.2525 -0.1914 -0.1364
 1152POPI   GL117405  11.818  14.507   6.671 -0.1232  0.1666 -0.2291
 1152POPI   GL217406  11.826  14.845   6.641  0.0699  0.0064  0.0524
 1152POPI   C1A17407  11.622  14.529   7.029 -0.2153 -0.0555 -0.1647
 1152POPI   D2A17408  11.617  14.481   7.474 -0.1340  0.1613 -0.1961
 1152POPI   C3A17409  11.678  14.433   7.877  0.0537 -0.1799  0.1706
 1152POPI   C4A17410  11.575  14.431   8.333 -0.0957 -0.1944 -0.3696
 1152POPI   C1B17411  12.021  14.897   7.077 -0.2180  0.2405  0.1634
 1152POPI   C2B17412  11.976  14.893   7.492  0.1506 -0.1460  0.1618
 1152POPI   C3B17413  12.017  14.903   7.955  0.3216  0.2563 -0.0341
 1152POPI   C4B17414  11.925  14.741   8.447 -0.1117 -0.0058 -0.4005
 1153POPI    C117415  16.651  16.966   5.931  0.3096  0.0207  0.0657
 1153POPI    C217416  16.743  17.063   5.554  0.2237 -0.0631  0.0230
 1153POPI    C317417  16.484  16.766   5.627  0.0376  0.1260  0.1426
 1153POPI   PO417418  16.791  16.895   6.055  0.2965 -0.0969  0.0463
 1153POPI   GL117419  16.678  17.245   6.343  0.3240  0.2160  0.1481
 1153POPI   GL217420  16.459  17.004   6.439 -0.1552 -0.2018 -0.1317
 1153POPI   C1A17421  16.728  17.373   6.711 -0.0269 -0.2330 -0.2456
 1153POPI   D2A17422  16.750  17.307   7.212  0.0973 -0.0889 -0.0343
 1153POPI   C3A17423  16.596  17.324   7.676 -0.3784 -0.1891 -0.1104
 1153POPI   C4A17424  16.688  17.390   8.098 -0.0381  0.1390  0.1437
 1153POPI   C1B17425  16.489  16.997   6.859  0.0193 -0.0736 -0.1994
 1153POPI   C2B17426  16.330  16.996   7.231  0.0231 -0.3050  0.0020
 1153POPI   C3B17427  16.250  16.926   7.672 -0.1676  0.0881 -0.1833
 1153POPI   C4B17428  16.214  16.990   8.083 -0.1143  0.1163 -0.1570
 1154POPI    C117429  13.840   2.560   5.625 -0.2283 -0.0059 -0.0214
 1154POPI    C217430  14.214   2.594   5.488 -0.1779 -0.0400  0.1065
 1154POPI    C317431  13.908   2.583   5.231 -0.0870 -0.0712 -0.0016
 1154POPI   PO417432  13.950   2.472   5.933  0.0072  0.3018 -0.1850
 1154POPI   GL117433  13.847   2.527   6.321  0.0308  0.0568 -0.2613
 1154POPI   GL217434  13.833   2.224   6.538  0.1680  0.0292 -0.0677
 1154POPI   C1A17435  13.685   2.902   6.596 -0.0953  0.0994 -0.0017
 1154POPI   D2A17436  13.736   2.888   7.067  0.2249 -0.3369  0.0318
 1154POPI   C3A17437  13.639   2.968   7.518 -0.1177  0.0888 -0.0305
 1154POPI   C4A17438  13.693   2.987   7.917 -0.3640 -0.3962 -0.0092
 1154POPI   C1B17439  13.835   2.408   6.822  0.1244 -0.0466  0.2853
 1154POPI   C2B17440  13.737   2.478   7.319 -0.0777 -0.0110 -0.2855
 1154POPI   C3B17441  13.761   2.436   7.745 -0.1228 -0.0411  0.0935
 1154POPI   C4B17442  13.815   2.450   8.125  0.0178  0.3196  0.1009
 1155POPI    C117443   0.858  12.379   6.345  0.2256 -0.0398  0.0255
 1155POPI    C217444   1.013  12.395   5.977 -0.0619  0.2185 -0.0890
 1155POPI    C317445   0.624  12.316   6.027  0.0063  0.0321  0.1700
 1155POPI   PO417446   1.067  12.253   6.491  0.3678 -0.2283  0.0691
 1155POPI   GL117447   1.020  12.078   6.780 -0.1063  0.0927 -0.1159
 1155POPI   GL217448   1.191  12.345   6.975  0.1868  0.0055 -0.0520
 1155POPI   C1A17449   1.085  11.867   7.200 -0.0147 -0.0066  0.1546
 1155POPI   D2A17450   1.202  11.918   7.564 -0.0041 -0.1634 -0.1211
 1155POPI   C3A17451   0.968  11.997   7.890 -0.1598 -0.0724  0.1844
 1155POPI   C4A17452   0.949  11.932   8.399  0.0903 -0.3428  0.1785
 1155POPI   C1B17453   1.170  12.416   7.361  0.0161 -0.1246 -0.2384
 1155POPI   C2B17454   1.204  12.473   7.800 -0.0775 -0.0874 -0.3499
 1155POPI   C3B17455   1.327  12.334   8.180  0.0307 -0.1154  0.1892
 1155POPI   C4B17456   1.459  12.103   8.533  0.0635  0.1299 -0.2657
 1156POPI    C117457  13.215  11.144   6.326  0.2146 -0.0957 -0.1132
 1156POPI    C217458  13.338  11.142   5.945 -0.1424  0.2150 -0.2369
 1156POPI    C317459  12.949  11.175   6.029 -0.0858 -0.0431  0.1567
 1156POPI   PO417460  13.295  10.955   6.437  0.2072 -0.4246 -0.0113
 1156POPI   GL117461  13.413  11.040   6.797  0.0339  0.0131  0.0507
 1156POPI   GL217462  13.617  10.869   6.806 -0.0635 -0.0732 -0.0436
 1156POPI   C1A17463  13.528  10.853   7.306  0.0983  0.0230 -0.1244
 1156POPI   D2A17464  13.433  10.848   7.743 -0.0779  0.0330 -0.1095
 1156POPI   C3A17465  13.585  10.839   8.141  0.3331  0.0971  0.2740
 1156POPI   C4A17466  13.489  10.692   8.564 -0.0531  0.0412 -0.1130
 1156POPI   C1B17467  13.766  10.397   7.016 -0.0426 -0.1702  0.0436
 1156POPI   C2B17468  13.691  10.390   7.485  0.0604  0.1214 -0.0140
 1156POPI   C3B17469  13.625  10.378   7.882 -0.3183 -0.1158  0.1269
 1156POPI   C4B17470  13.780  10.401   8.316  0.2232 -0.2851  0.3507
 1157POPI    C117471   7.894  10.884   5.725  0.1770  0.0321  0.0070
 1157POPI    C217472   7.972  11.137   5.426 -0.2517 -0.0931 -0.2190
 1157POPI    C317473   8.200  10.813   5.479 -0.1688 -0.0672 -0.4072
 1157POPI   PO417474   7.890  10.998   5.978  0.1771  0.1113  0.0297
 1157POPI   GL117475   7.707  11.118   6.390 -0.1962 -0.1333  0.1677
 1157POPI   GL217476   7.676  11.467   6.554  0.0787  0.0232 -0.4064
 1157POPI   C1A17477   7.447  10.996   6.694  0.1717  0.1953  0.0659
 1157POPI   D2A17478   7.534  11.052   7.176  0.2571 -0.3086  0.2002
 1157POPI   C3A17479   7.561  11.168   7.572 -0.0262  0.0614 -0.0308
 1157POPI   C4A17480   7.602  11.188   8.010  0.4358  0.1570 -0.1137
 1157POPI   C1B17481   7.490  11.513   7.000 -0.4507  0.0288  0.2370
 1157POPI   C2B17482   7.536  11.689   7.318 -0.3753  0.3543 -0.1623
 1157POPI   C3B17483   7.557  11.652   7.702 -0.0906  0.3653  0.0550
 1157POPI   C4B17484   7.719  11.676   8.130  0.1057  0.1982 -0.1049
 1158POPI    C117485   7.849   7.811   5.797  0.0693  0.0613  0.0531
 1158POPI    C217486   8.126   7.824   5.510 -0.2366 -0.0421 -0.2541
 1158POPI    C317487   7.763   7.976   5.443 -0.2177  0.2158  0.1912
 1158POPI   PO417488   7.965   7.600   5.958  0.1841 -0.0806  0.0648
 1158POPI   GL117489   7.747   7.430   6.323  0.1473  0.1684  0.0041
 1158POPI   GL217490   7.514   7.721   6.220  0.1077  0.3040 -0.3376
 1158POPI   C1A17491   7.620   7.418   6.716  0.1816  0.0440  0.0092
 1158POPI   D2A17492   7.623   7.566   7.157  0.0439 -0.0288  0.1155
 1158POPI   C3A17493   7.483   7.423   7.648  0.2790  0.3780 -0.3512
 1158POPI   C4A17494   7.524   7.574   8.038  0.1127  0.2519 -0.2838
 1158POPI   C1B17495   7.434   7.909   6.634 -0.0342  0.1095  0.2736
 1158POPI   C2B17496   7.315   7.999   7.013 -0.1063 -0.0686 -0.2316
 1158POPI   C3B17497   7.441   7.933   7.432 -0.1898 -0.0538  0.3235
 1158POPI   C4B17498   7.372   8.001   7.767 -0.3479  0.1460 -0.0565
 1159POPI    C117499   4.722   6.475   5.534  0.0652  0.2141 -0.1683
 1159POPI    C217500   4.487   6.390   5.222  0.1638  0.1017 -0.2127
 1159POPI    C317501   4.811   6.167   5.295  0.1450  0.1316 -0.0336
 1159POPI   PO417502   4.562   6.437   5.772  0.0127 -0.0673  0.0031
 1159POPI   GL117503   4.461   6.470   6.304 -0.3818 -0.1837  0.3020
 1159POPI   GL217504   4.817   6.671   6.265  0.3165  0.4604  0.1071
 1159POPI   C1A17505   4.453   6.579   6.722  0.0338 -0.0540 -0.0212
 1159POPI   D2A17506   4.579   6.666   7.223 -0.0591 -0.2315  0.1553
 1159POPI   C3A17507   4.406   6.618   7.662  0.2377 -0.2474  0.2800
 1159POPI   C4A17508   4.368   6.634   8.170 -0.1879  0.0920  0.0832
 1159POPI   C1B17509   4.946   6.529   6.690 -0.0622 -0.1512 -0.0421
 1159POPI   C2B17510   5.070   6.602   7.087 -0.0651  0.0628 -0.0083
 1159POPI   C3B17511   5.001   6.622   7.559 -0.2895  0.0470 -0.1759
 1159POPI   C4B17512   4.929   6.540   8.032 -0.0470  0.0644 -0.0853
 1160POPI    C117513  16.850   6.217   5.904 -0.0384  0.1345  0.0027
 1160POPI    C217514  16.996   5.846   5.937 -0.3335  0.0264  0.1325
 1160POPI    C317515  17.133   6.090   5.651 -0.2355 -0.2293 -0.0426
 1160POPI   PO417516  16.704   6.217   6.122  0.0068  0.2516  0.0458
 1160POPI   GL117517  16.913   6.381   6.489 -0.0317 -0.0025 -0.0107
 1160POPI   GL217518  16.587   6.217   6.636  0.2726  0.1659  0.2530
 1160POPI   C1A17519  17.018   6.539   6.894 -0.0500 -0.1849 -0.1494
 1160POPI   D2A17520  17.159   6.707   7.229  0.0719 -0.1774 -0.2895
 1160POPI   C3A17521  17.125   6.501   7.706  0.0418  0.2900 -0.1396
 1160POPI   C4A17522  17.091   6.460   8.180 -0.4435 -0.3502 -0.2006
 1160POPI   C1B17523  16.729   6.135   7.016 -0.0259 -0.1317 -0.0789
 1160POPI   C2B17524  16.844   6.109   7.435  0.1591  0.0904 -0.0337
 1160POPI   C3B17525  16.784   6.056   7.902  0.0231  0.2290  0.0060
 1160POPI   C4B17526  16.810   6.037   8.256  0.0087 -0.1436 -0.0658
 1161POPI    C117527  13.585   5.206   5.632  0.0933  0.0750  0.2494
 1161POPI    C217528  13.480   5.212   5.246  0.2137  0.0098  0.2153
 1161POPI    C317529  13.669   5.526   5.406 -0.0374  0.1311  0.2790
 1161POPI   PO417530  13.330   5.093   5.709 -0.3740 -0.0435 -0.1326
 1161POPI   GL117531  13.114   5.207   6.130  0.0725  0.1813  0.2066
 1161POPI   GL217532  13.492   5.178   6.223 -0.3558  0.2027  0.2267
 1161POPI   C1A17533  12.898   5.464   6.488  0.0500 -0.1370 -0.0398
 1161POPI   D2A17534  12.750   5.452   6.909 -0.1765  0.0587  0.1877
 1161POPI   C3A17535  12.823   5.389   7.317 -0.1278  0.1664 -0.0585
 1161POPI   C4A17536  12.809   5.365   7.755 -0.1787  0.0155  0.3851
 1161POPI   C1B17537  13.375   5.430   6.621 -0.1793  0.0438 -0.0466
 1161POPI   C2B17538  13.311   5.335   7.053  0.1222 -0.2395  0.0495
 1161POPI   C3B17539  13.273   5.288   7.574 -0.0980  0.2083  0.2385
 1161POPI   C4B17540  13.310   5.180   8.061 -0.0568 -0.1595 -0.1500
 1162POPI    C117541  17.024  13.294   5.849  0.2430 -0.0264 -0.1665
 1162POPI    C217542  16.817  13.568   5.645 -0.0146 -0.0461  0.0629
 1162POPI    C317543  16.762  13.179   5.570  0.1072 -0.0454 -0.0327
 1162POPI   PO417544  16.959  13.471   6.214  0.0233 -0.0486 -0.1797
 1162POPI   GL117545  17.033  13.698   6.530 -0.1992  0.0137 -0.0036
 1162POPI   GL217546  17.136  13.471   6.668 -0.0225  0.1611  0.0864
 1162POPI   C1A17547  16.907  13.992   6.851 -0.0369 -0.0635  0.1175
 1162POPI   D2A17548  16.879  14.115   7.276  0.0019  0.0517 -0.1785
 1162POPI   C3A17549  16.938  14.085   7.728 -0.1845 -0.2118 -0.0655
 1162POPI   C4A17550  17.020  14.207   8.133 -0.0810 -0.1895  0.0110
 1162POPI   C1B17551  17.156  13.573   7.096  0.1971 -0.0429  0.1908
 1162POPI   C2B17552  17.123  13.663   7.527  0.1171  0.1237 -0.0465
 1162POPI   C3B17553  17.131  13.690   8.010 -0.0422 -0.3498  0.0965
 1162POPI   C4B17554  17.219  13.720   8.391  0.0156 -0.0544 -0.1109
 1163POPI    C117555   4.171  10.445   6.093  0.0139 -0.1432  0.0126
 1163POPI    C217556   3.987  10.777   5.965  0.1079 -0.0995 -0.0097
 1163POPI    C317557   3.894  10.423   5.805 -0.2591 -0.1349  0.2691
 1163POPI   PO417558   4.104  10.545   6.367  0.2088 -0.1671  0.3785
 1163POPI   GL117559   3.998  10.377   6.698 -0.1855 -0.0536 -0.0613
 1163POPI   GL217560   3.813  10.099   6.810  0.2514 -0.3714 -0.1225
 1163POPI   C1A17561   4.163  10.529   7.007  0.0400  0.0028  0.0083
 1163POPI   D2A17562   4.240  10.392   7.285  0.3014  0.2326  0.0901
 1163POPI   C3A17563   4.083  10.312   7.669 -0.1914 -0.1752 -0.0366
 1163POPI   C4A17564   4.166  10.240   8.055  0.4039 -0.3006  0.1192
 1163POPI   C1B17565   3.870   9.996   7.265 -0.1546 -0.3213  0.0096
 1163POPI   C2B17566   3.793   9.887   7.678 -0.0406 -0.1115  0.0859
 1163POPI   C3B17567   3.786   9.877   8.080 -0.1643 -0.1865  0.3875
 1163POPI   C4B17568   3.767   9.763   8.512  0.0267 -0.2515 -0.1334
 1164POPI    C117569   7.354  15.217   5.595 -0.2441  0.0250  0.0621
 1164POPI    C217570   7.479  15.436   5.284  0.3328  0.1020  0.3358
 1164POPI    C317571   7.660  15.091   5.371 -0.1214 -0.1478  0.3234
 1164POPI   PO417572   7.298  15.499   5.822  0.0607 -0.0958  0.0019
 1164POPI   GL117573   7.176  15.463   6.296 -0.0253 -0.1333  0.0326
 1164POPI   GL217574   6.769  15.398   6.320 -0.1354  0.2338 -0.0581
 1164POPI   C1A17575   7.328  15.533   6.735 -0.3769  0.0725 -0.0107
 1164POPI   D2A17576   7.584  15.449   6.954  0.1500 -0.1967  0.2907
 1164POPI   C3A17577   7.429  15.423   7.367 -0.0442  0.0476 -0.0509
 1164POPI   C4A17578   7.409  15.587   7.751 -0.2640 -0.1476 -0.0607
 1164POPI   C1B17579   6.963  15.170   6.593 -0.2735  0.4361 -0.0663
 1164POPI   C2B17580   7.025  15.265   7.064  0.1694 -0.0559 -0.1990
 1164POPI   C3B17581   6.935  15.205   7.442 -0.0308 -0.1161  0.1013
 1164POPI   C4B17582   6.982  15.352   7.803 -0.0788  0.0170  0.3311
 1165POPI    C117583  11.595   9.681   6.065  0.1192 -0.2403  0.0226
 1165POPI    C217584  11.246   9.878   6.067  0.1043 -0.2640 -0.1600
 1165POPI    C317585  11.563  10.033   5.877  0.1914 -0.2469 -0.0023
 1165POPI   PO417586  11.651   9.608   6.284  0.3708  0.1759 -0.2010
 1165POPI   GL117587  11.399   9.718   6.525 -0.1985  0.1144  0.2626
 1165POPI   GL217588  11.633  10.091   6.370 -0.3421 -0.2440 -0.0221
 1165POPI   C1A17589  11.170   9.696   6.877 -0.4025  0.1317 -0.1343
 1165POPI   D2A17590  11.030   9.909   7.209 -0.1375  0.0968  0.2631
 1165POPI   C3A17591  11.001   9.751   7.636 -0.0320 -0.0082  0.0880
 1165POPI   C4A17592  11.076   9.694   8.022 -0.0874  0.0300 -0.1329
 1165POPI   C1B17593  11.579   9.956   6.871  0.1051  0.1146  0.0530
 1165POPI   C2B17594  11.488   9.834   7.288  0.0183 -0.1264  0.0934
 1165POPI   C3B17595  11.546   9.667   7.798  0.2416 -0.0585  0.1628
 1165POPI   C4B17596  11.532   9.668   8.175  0.1338  0.1488 -0.1974
 1166POPI    C117597   7.684   1.309   5.594  0.0685  0.0847 -0.0359
 1166POPI    C217598   7.703   0.925   5.705 -0.0145  0.0581 -0.1116
 1166POPI    C317599   7.924   1.056   5.398 -0.1204  0.0303 -0.2000
 1166POPI   PO417600   7.617   1.534   5.880  0.0985 -0.0197 -0.1191
 1166POPI   GL117601   7.587   1.622   6.232 -0.2717 -0.2086  0.1536
 1166POPI   GL217602   7.708   1.431   6.418 -0.0898  0.0280 -0.0320
 1166POPI   C1A17603   7.619   1.845   6.655  0.0417 -0.0605  0.1400
 1166POPI   D2A17604   7.680   1.850   7.136  0.1912 -0.1225  0.2890
 1166POPI   C3A17605   7.740   2.027   7.554  0.1539 -0.2216 -0.0110
 1166POPI   C4A17606   7.867   2.005   7.967 -0.2120  0.0410  0.3362
 1166POPI   C1B17607   7.820   1.382   6.878 -0.2892  0.0268 -0.2823
 1166POPI   C2B17608   7.713   1.406   7.342  0.1507 -0.2346  0.0666
 1166POPI   C3B17609   7.611   1.546   7.705  0.0293  0.0636 -0.3577
 1166POPI   C4B17610   7.471   1.690   8.107  0.0051 -0.0807 -0.0305
 1167POPI    C117611   3.980   1.593   6.109  0.0864  0.1586 -0.1294
 1167POPI    C217612   3.587   1.577   6.040  0.0637  0.0448  0.0207
 1167POPI    C317613   3.841   1.404   5.785  0.0041 -0.0474  0.0234
 1167POPI   PO417614   4.054   1.849   6.165  0.2331 -0.1848 -0.1299
 1167POPI   GL117615   4.069   1.947   6.616 -0.1495 -0.1638 -0.0284
 1167POPI   GL217616   3.805   1.980   6.630 -0.2503 -0.1928 -0.1744
 1167POPI   C1A17617   4.026   2.054   7.095 -0.3846  0.0498 -0.1170
 1167POPI   D2A17618   3.809   2.215   7.357  0.3459 -0.2009  0.1973
 1167POPI   C3A17619   3.773   2.166   7.694 -0.1225 -0.1569  0.0016
 1167POPI   C4A17620   3.738   2.134   8.001  0.2047 -0.1294 -0.2007
 1167POPI   C1B17621   3.479   2.150   6.961  0.0607 -0.0760 -0.1602
 1167POPI   C2B17622   3.230   2.270   7.436 -0.2052  0.2309  0.1561
 1167POPI   C3B17623   3.226   2.194   7.858 -0.1055  0.0803 -0.0266
 1167POPI   C4B17624   3.328   2.129   8.307  0.1009  0.0294 -0.0208
 1168POPI    C117625   3.596   7.488   5.911  0.0553  0.2752  0.0404
 1168POPI    C217626   3.630   7.097   5.836 -0.1792  0.1935  0.3369
 1168POPI    C317627   3.627   7.359   5.534 -0.1582 -0.0435  0.1274
 1168POPI   PO417628   3.455   7.503   6.122 -0.1801 -0.0643 -0.1799
 1168POPI   GL117629   3.460   7.609   6.477  0.0213  0.0319 -0.0342
 1168POPI   GL217630   3.161   7.653   6.501  0.0073  0.1099 -0.1668
 1168POPI   C1A17631   3.704   7.408   6.787  0.2944  0.1024  0.0400
 1168POPI   D2A17632   3.826   7.141   7.056 -0.0272 -0.0531  0.0445
 1168POPI   C3A17633   3.792   7.285   7.471 -0.1189 -0.0697  0.0649
 1168POPI   C4A17634   3.792   7.272   7.912  0.1237  0.2064  0.0684
 1168POPI   C1B17635   3.429   7.812   6.881 -0.0813  0.0210 -0.2267
 1168POPI   C2B17636   3.544   7.714   7.294  0.1013  0.0725 -0.1281
 1168POPI   C3B17637   3.662   7.728   7.758 -0.1001  0.1843  0.0845
 1168POPI   C4B17638   3.679   7.726   8.269  0.1715  0.0380  0.1597
 1169POPI    C117639   9.105   3.882   5.603 -0.2219  0.0044  0.0665
 1169POPI    C217640   8.734   3.753   5.531 -0.1992 -0.0067 -0.0315
 1169POPI    C317641   9.045   3.507   5.480 -0.1707  0.0312 -0.0416
 1169POPI   PO417642   9.087   3.996   5.847  0.0466  0.2264  0.1521
 1169POPI   GL117643   9.037   4.041   6.220  0.2650 -0.0516  0.2689
 1169POPI   GL217644   8.885   4.183   6.328 -0.0169  0.0657 -0.2681
 1169POPI   C1A17645   9.120   3.776   6.574  0.1875 -0.0446  0.0563
 1169POPI   D2A17646   9.095   3.778   7.008  0.0424  0.2313  0.0080
 1169POPI   C3A17647   9.162   3.657   7.417 -0.0896  0.0248 -0.0391
 1169POPI   C4A17648   9.015   3.725   7.833 -0.2400 -0.4136 -0.3205
 1169POPI   C1B17649   8.928   4.229   6.817  0.1320  0.4630 -0.1882
 1169POPI   C2B17650   8.869   4.159   7.238 -0.0929  0.0064  0.0403
 1169POPI   C3B17651   8.867   4.200   7.675  0.0493 -0.1121 -0.4695
 1169POPI   C4B17652   8.961   4.177   8.099  0.1561 -0.0801  0.1611
 1170POPI    C117653   5.517   5.923   5.607 -0.1286  0.1771 -0.0362
 1170POPI    C217654   5.309   6.248   5.501 -0.4255  0.0850  0.2470
 1170POPI    C317655   5.268   5.908   5.294 -0.3364  0.1455  0.1284
 1170POPI   PO417656   5.534   5.924   5.875 -0.3165  0.4295 -0.0759
 1170POPI   GL117657   5.330   6.122   6.210 -0.0295  0.1196  0.0204
 1170POPI   GL217658   5.405   6.424   6.328  0.0525  0.3049  0.0105
 1170POPI   C1A17659   5.138   6.053   6.594 -0.1965 -0.3989 -0.0094
 1170POPI   D2A17660   5.072   6.106   7.000  0.2973 -0.1683 -0.2240
 1170POPI   C3A17661   5.248   6.130   7.405  0.0188 -0.2698  0.0160
 1170POPI   C4A17662   5.215   6.225   7.815 -0.1258 -0.0369 -0.2161
 1170POPI   C1B17663   5.499   6.453   6.764  0.2583 -0.1803  0.0590
 1170POPI   C2B17664   5.575   6.482   7.125  0.1417 -0.0398 -0.3613
 1170POPI   C3B17665   5.511   6.529   7.490 -0.1672 -0.0481 -0.0125
 1170POPI   C4B17666   5.529   6.497   8.060 -0.2031 -0.2540  0.0269
 1171POPI    C117667   6.390  10.204   6.270 -0.0882 -0.0139  0.1699
 1171POPI    C217668   6.504   9.975   5.963  0.1168  0.1341  0.1336
 1171POPI    C317669   6.159  10.176   5.945  0.1208  0.1303  0.0057
 1171POPI   PO417670   6.515  10.127   6.431  0.1764 -0.2400  0.0376
 1171POPI   GL117671   6.386   9.810   6.634 -0.0193  0.0243  0.0078
 1171POPI   GL217672   6.149   9.924   6.754  0.1833  0.0517 -0.2330
 1171POPI   C1A17673   6.560   9.857   7.028 -0.0875  0.0734  0.0700
 1171POPI   D2A17674   6.660   9.834   7.499  0.0852 -0.1942  0.0486
 1171POPI   C3A17675   6.616   9.888   7.852  0.1491  0.1118  0.0356
 1171POPI   C4A17676   6.494   9.929   8.219  0.0762 -0.0850  0.0077
 1171POPI   C1B17677   6.130   9.808   7.183  0.3725  0.1723  0.1135
 1171POPI   C2B17678   6.097   9.857   7.623 -0.1107 -0.3595 -0.4177
 1171POPI   C3B17679   6.016   9.964   8.007 -0.1884  0.0928  0.0915
 1171POPI   C4B17680   6.049   9.964   8.429 -0.2074  0.2213  0.2179
 1172POPI    C117681  11.151   6.630   5.658 -0.2728  0.1892  0.0008
 1172POPI    C217682  11.182   6.456   5.299  0.0164 -0.1803  0.1978
 1172POPI    C317683  11.383   6.793   5.376 -0.1802 -0.0052 -0.0370
 1172POPI   PO417684  11.135   6.451   5.801  0.1833  0.2371  0.2916
 1172POPI   GL117685  11.235   6.394   6.174  0.0104 -0.0937 -0.3086
 1172POPI   GL217686  11.198   6.058   6.422  0.1017  0.0081  0.0013
 1172POPI   C1A17687  11.386   6.492   6.636  0.2107  0.2919 -0.0343
 1172POPI   D2A17688  11.497   6.499   7.023  0.1776  0.0689 -0.0874
 1172POPI   C3A17689  11.402   6.545   7.462 -0.0859  0.0962  0.1610
 1172POPI   C4A17690  11.415   6.581   7.968  0.1378  0.1998 -0.0458
 1172POPI   C1B17691  11.044   6.123   6.821 -0.0536 -0.0825  0.3657
 1172POPI   C2B17692  11.082   6.118   7.215 -0.4021  0.0044 -0.1584
 1172POPI   C3B17693  11.026   6.107   7.612  0.1891  0.1555  0.1721
 1172POPI   C4B17694  11.065   6.121   8.043 -0.1457 -0.0024 -0.3634
 1173POPI    C117695  16.941  10.592   6.149 -0.1254  0.1559  0.0589
 1173POPI    C217696  17.254  10.774   5.978  0.0718 -0.3707 -0.1640
 1173POPI    C317697  16.913  10.729   5.774 -0.1110  0.0790  0.0294
 1173POPI   PO417698  17.072  10.416   6.340  0.0214  0.3429 -0.0689
 1173POPI   GL117699  17.044  10.266   6.701  0.0224 -0.0333  0.1394
 1173POPI   GL217700  16.729  10.142   6.533  0.1166 -0.1421 -0.2112
 1173POPI   C1A17701  17.124  10.298   7.221 -0.0190 -0.0600 -0.0535
 1173POPI   D2A17702  17.125  10.314   7.691  0.1339  0.0529  0.1260
 1173POPI   C3A17703  17.224  10.199   8.162  0.2790 -0.1141  0.0868
 1173POPI   C4A17704  17.041  10.097   8.638  0.1193 -0.1937 -0.0447
 1173POPI   C1B17705  16.719   9.833   6.864  0.2301 -0.1791 -0.0771
 1173POPI   C2B17706  16.807   9.839   7.255 -0.0670  0.0459  0.0200
 1173POPI   C3B17707  16.876   9.876   7.590  0.1806  0.1314  0.0383
 1173POPI   C4B17708  16.862   9.770   8.071 -0.0939  0.0811  0.0315
 1174POPI    C117709  17.218  11.417   6.537  0.0524 -0.1046 -0.0272
 1174POPI    C217710  17.478  11.676   6.696  0.0415 -0.1698  0.0976
 1174POPI    C317711  17.612  11.362   6.488  0.0576 -0.1170  0.0281
 1174POPI   PO417712  17.018  11.415   6.682 -0.0934  0.3090  0.2157
 1174POPI   GL117713  16.878  11.121   6.898 -0.1999 -0.0281 -0.3327
 1174POPI   GL217714  16.770  11.300   7.181  0.1073  0.0305 -0.0632
 1174POPI   C1A17715  16.845  10.787   7.117  0.3138 -0.0501 -0.1353
 1174POPI   D2A17716  16.814  10.699   7.665 -0.1113  0.0826 -0.3009
 1174POPI   C3A17717  17.138  10.899   7.946  0.0420 -0.0416 -0.1704
 1174POPI   C4A17718  17.253  11.026   8.307  0.1703 -0.3856 -0.0068
 1174POPI   C1B17719  16.870  11.250   7.637  0.2338 -0.0543  0.0316
 1174POPI   C2B17720  16.838  11.350   8.054 -0.2268  0.1225 -0.0375
 1174POPI   C3B17721  16.916  11.355   8.477 -0.1143 -0.0432  0.0499
 1174POPI   C4B17722  17.023  11.355   8.988  0.0315  0.3033  0.3162
 1175POPI    C117723  16.128   3.878   5.774 -0.1481 -0.0799  0.0163
 1175POPI    C217724  15.983   3.507   5.736 -0.1970 -0.0535 -0.0566
 1175POPI    C317725  16.139   3.694   5.419  0.2183 -0.1723  0.0711
 1175POPI   PO417726  16.373   3.846   6.018 -0.0179  0.1234  0.1029
 1175POPI   GL117727  16.328   3.856   6.474 -0.0142  0.1445 -0.0123
 1175POPI   GL217728  16.365   3.538   6.638  0.0786 -0.2581  0.3318
 1175POPI   C1A17729  16.135   3.856   6.889  0.0201  0.0094  0.1319
 1175POPI   D2A17730  16.169   3.961   7.278 -0.3127  0.2280  0.3837
 1175POPI   C3A17731  16.124   3.852   7.670  0.1659 -0.0031 -0.0747
 1175POPI   C4A17732  16.190   3.768   8.097 -0.0351  0.1229  0.0062
 1175POPI   C1B17733  16.456   3.276   6.937 -0.2237 -0.0678 -0.0048
 1175POPI   C2B17734  16.419   3.258   7.403 -0.2669 -0.0504  0.2694
 1175POPI   C3B17735  16.437   3.383   7.831  0.1813 -0.3388 -0.2696
 1175POPI   C4B17736  16.416   3.334   8.221  0.0133  0.2024 -0.2170
 1176POPI    C117737   9.938  16.799   5.785  0.0351  0.1437 -0.0552
 1176POPI    C217738  10.262  16.975   5.629  0.2302 -0.2721 -0.1323
 1176POPI    C317739  10.088  16.669   5.438  0.0442 -0.3264  0.1170
 1176POPI   PO417740   9.952  16.874   6.078 -0.0725 -0.0991  0.0301
 1176POPI   GL117741  10.040  17.144   6.512  0.1590 -0.0767 -0.1816
 1176POPI   GL217742   9.778  17.162   6.812 -0.1306  0.2692  0.0569
 1176POPI   C1A17743  10.109  17.544   6.871 -0.0938 -0.0834  0.0484
 1176POPI   D2A17744   9.953  17.636   7.217  0.0566  0.3577  0.0197
 1176POPI   C3A17745  10.206  17.732   7.575  0.0081  0.2580  0.1073
 1176POPI   C4A17746  10.236  17.578   7.989 -0.1833 -0.2142 -0.0864
 1176POPI   C1B17747   9.792  17.173   7.254 -0.0599 -0.1121  0.0217
 1176POPI   C2B17748   9.879  17.285   7.649  0.2093  0.2388  0.0177
 1176POPI   C3B17749   9.864  17.224   8.093  0.2779  0.1233 -0.0386
 1176POPI   C4B17750   9.929  17.014   8.537 -0.1617 -0.1831  0.0590
 1177POPI    C117751  13.980   7.952   6.015  0.1684  0.2143  0.1444
 1177POPI    C217752  14.286   8.009   5.764  0.0491  0.0998 -0.0295
 1177POPI    C317753  14.151   7.639   5.834 -0.3331  0.1829 -0.2987
 1177POPI   PO417754  13.893   7.947   6.250  0.0116 -0.0743  0.0443
 1177POPI   GL117755  14.088   8.059   6.583  0.1021 -0.2133 -0.2894
 1177POPI   GL217756  13.755   8.107   6.706 -0.4006  0.3797 -0.0885
 1177POPI   C1A17757  14.217   7.966   6.968  0.2626 -0.0111 -0.0971
 1177POPI   D2A17758  14.242   7.877   7.365  0.1984  0.0039  0.1872
 1177POPI   C3A17759  14.216   7.955   7.745 -0.1710  0.0024  0.1082
 1177POPI   C4A17760  14.249   7.840   8.261 -0.1643  0.0846  0.2291
 1177POPI   C1B17761  13.785   8.055   7.195  0.1127 -0.1550  0.1362
 1177POPI   C2B17762  13.769   8.007   7.574  0.2342  0.1910  0.0395
 1177POPI   C3B17763  13.752   7.898   7.930 -0.0976  0.1785  0.1296
 1177POPI   C4B17764  13.769   7.847   8.403  0.3661 -0.1495  0.0979
 1178POPI    C117765  14.871  13.037   5.795  0.0617  0.0250 -0.1411
 1178POPI    C217766  15.069  12.711   5.916  0.0300  0.1367  0.2252
 1178POPI    C317767  15.268  13.051   5.845  0.0566  0.0553 -0.1087
 1178POPI   PO417768  14.684  13.146   6.003  0.4699 -0.2211 -0.1225
 1178POPI   GL117769  14.611  13.134   6.575 -0.0361  0.0146 -0.0266
 1178POPI   GL217770  14.379  13.008   6.812  0.0509  0.1077 -0.1323
 1178POPI   C1A17771  14.746  13.306   7.041  0.0039  0.1109  0.1795
 1178POPI   D2A17772  14.754  13.379   7.426 -0.0429  0.0927  0.0935
 1178POPI   C3A17773  14.802  13.546   7.786 -0.2078 -0.1070  0.1671
 1178POPI   C4A17774  14.869  13.490   8.286 -0.1788  0.2844  0.0973
 1178POPI   C1B17775  14.336  13.089   7.290 -0.1251 -0.0791 -0.0223
 1178POPI   C2B17776  14.446  13.184   7.705  0.2385  0.1938  0.0684
 1178POPI   C3B17777  14.644  13.110   8.068 -0.1920 -0.1960 -0.0974
 1178POPI   C4B17778  14.683  13.118   8.527  0.2015  0.1183 -0.0892
 1179POPI    C117779   8.660   0.815   5.877  0.1245  0.1185 -0.0070
 1179POPI    C217780   8.789   0.599   5.566  0.1006  0.1743 -0.0558
 1179POPI    C317781   8.503   0.874   5.514 -0.1515 -0.0577  0.0810
 1179POPI   PO417782   8.755   0.679   6.044 -0.2515  0.1776  0.2820
 1179POPI   GL117783   8.929   0.636   6.465 -0.2268 -0.0802 -0.2088
 1179POPI   GL217784   8.874   0.915   6.508 -0.1587  0.0224  0.0274
 1179POPI   C1A17785   9.042   0.500   6.846 -0.0408  0.1063 -0.2084
 1179POPI   D2A17786   8.938   0.403   7.239  0.1131  0.2270 -0.2290
 1179POPI   C3A17787   9.146   0.564   7.663  0.1495 -0.1930 -0.0071
 1179POPI   C4A17788   9.426   0.264   7.921 -0.0006 -0.0960 -0.0723
 1179POPI   C1B17789   8.617   0.814   6.823 -0.0012  0.0676  0.1196
 1179POPI   C2B17790   8.556   0.787   7.259  0.2595  0.2135 -0.1880
 1179POPI   C3B17791   8.541   0.811   7.771  0.1707 -0.1918  0.1299
 1179POPI   C4B17792   8.848   0.617   8.183 -0.1267  0.0536  0.0565
 1180POPI    C117793  11.541  15.330   6.130  0.2548  0.2563 -0.0792
 1180POPI    C217794  11.613  15.623   6.393 -0.1988  0.3329 -0.0321
 1180POPI    C317795  11.429  15.705   6.048 -0.3184  0.1055 -0.0240
 1180POPI   PO417796  11.453  15.117   6.369  0.2088 -0.0921 -0.0057
 1180POPI   GL117797  11.566  15.235   6.741 -0.1405  0.0730 -0.1372
 1180POPI   GL217798  11.463  15.011   6.990 -0.0795 -0.2055  0.2232
 1180POPI   C1A17799  11.871  15.378   7.097 -0.3174 -0.0814 -0.0676
 1180POPI   D2A17800  11.767  15.464   7.505 -0.0594  0.2739 -0.1330
 1180POPI   C3A17801  11.948  15.440   7.958 -0.0671  0.0313 -0.2081
 1180POPI   C4A17802  12.038  15.204   8.360 -0.2957  0.0313  0.0741
 1180POPI   C1B17803  11.564  15.067   7.299  0.1236  0.1317  0.2091
 1180POPI   C2B17804  11.556  15.022   7.767  0.0542  0.3172  0.1726
 1180POPI   C3B17805  11.620  15.095   8.165  0.0561 -0.0950 -0.0793
 1180POPI   C4B17806  11.592  15.225   8.613 -0.4180  0.0980 -0.2250
 1181POPI    C117807   8.981  11.536   6.018  0.1968 -0.1065  0.1484
 1181POPI    C217808   9.279  11.290   5.914  0.0101 -0.1201 -0.3895
 1181POPI    C317809   9.269  11.664   5.771  0.1001  0.0932  0.1370
 1181POPI   PO417810   8.993  11.630   6.253 -0.4809  0.1266  0.1333
 1181POPI   GL117811   8.826  11.630   6.592 -0.1139  0.0599  0.2653
 1181POPI   GL217812   8.891  11.289   6.770 -0.2267 -0.2487  0.0197
 1181POPI   C1A17813   8.462  11.519   6.935 -0.0910  0.0167  0.0302
 1181POPI   D2A17814   8.439  11.496   7.376 -0.4151 -0.0095 -0.0574
 1181POPI   C3A17815   8.485  11.572   7.742  0.0126  0.0156 -0.5142
 1181POPI   C4A17816   8.560  11.596   8.236  0.1270  0.0146  0.0123
 1181POPI   C1B17817   8.785  11.146   7.156  0.0727  0.0305 -0.1035
 1181POPI   C2B17818   8.871  11.225   7.633 -0.0128 -0.0313  0.0674
 1181POPI   C3B17819   8.951  11.270   8.026  0.0293  0.0825  0.0928
 1181POPI   C4B17820   8.886  11.361   8.529 -0.2154 -0.0141  0.0677
 1182POPI    C117821   4.329   7.785   5.971  0.1170  0.1460  0.0145
 1182POPI    C217822   4.094   8.022   5.751  0.0742 -0.0474 -0.1517
 1182POPI    C317823   4.030   7.627   5.756  0.0219 -0.0383  0.2765
 1182POPI   PO417824   4.363   7.942   6.194 -0.2905 -0.1789 -0.0242
 1182POPI   GL117825   4.533   8.019   6.511 -0.0100 -0.0957  0.0446
 1182POPI   GL217826   4.742   8.261   6.450  0.1823 -0.1053  0.0573
 1182POPI   C1A17827   4.580   8.013   6.915 -0.0449 -0.0813  0.0387
 1182POPI   D2A17828   4.509   7.872   7.300 -0.4580 -0.4403  0.2178
 1182POPI   C3A17829   4.497   7.947   7.716 -0.4974  0.0933  0.2229
 1182POPI   C4A17830   4.553   8.002   8.121 -0.1490  0.0802  0.0770
 1182POPI   C1B17831   4.807   8.436   6.846 -0.1750 -0.2186 -0.1177
 1182POPI   C2B17832   4.814   8.293   7.219  0.0592  0.3335  0.0194
 1182POPI   C3B17833   4.773   8.330   7.557 -0.1667 -0.0561 -0.0799
 1182POPI   C4B17834   4.842   8.331   7.912 -0.3813 -0.0013 -0.0155
 1183POPI    C117835  11.678  11.454   6.057  0.1066  0.0577 -0.1241
 1183POPI    C217836  11.688  11.848   5.987  0.2111  0.0609 -0.0929
 1183POPI    C317837  11.508  11.603   5.727 -0.2745  0.1799  0.1208
 1183POPI   PO417838  11.636  11.456   6.319  0.0989  0.0820  0.3731
 1183POPI   GL117839  11.591  11.126   6.670 -0.4021  0.1796  0.0418
 1183POPI   GL217840  11.642  10.749   6.601  0.1854  0.4041 -0.0872
 1183POPI   C1A17841  11.719  11.082   7.028  0.0313  0.2084  0.2605
 1183POPI   D2A17842  11.675  10.954   7.430 -0.2884  0.1187 -0.0075
 1183POPI   C3A17843  11.669  10.586   7.711 -0.1099  0.1734 -0.2555
 1183POPI   C4A17844  11.735  10.535   8.137 -0.2402 -0.4165  0.1424
 1183POPI   C1B17845  11.585  10.558   6.978 -0.2653 -0.0935  0.0697
 1183POPI   C2B17846  11.472  10.327   7.318  0.2820  0.0872 -0.1461
 1183POPI   C3B17847  11.383  10.139   7.634 -0.0350  0.0047 -0.1024
 1183POPI   C4B17848  11.361  10.122   8.059 -0.0341 -0.1616 -0.0847
 1184POPI    C117849  11.190  14.066   6.144 -0.1121 -0.0030 -0.0764
 1184POPI    C217850  10.977  14.086   5.806 -0.1713 -0.2431 -0.0548
 1184POPI    C317851  11.299  13.849   5.826 -0.0399 -0.0628 -0.0113
 1184POPI   PO417852  11.130  14.325   6.262  0.2869  0.1585  0.2047
 1184POPI   GL117853  11.086  14.386   6.651 -0.1352  0.0413  0.0136
 1184POPI   GL217854  11.192  14.710   6.747  0.0363 -0.0882  0.2932
 1184POPI   C1A17855  11.266  14.130   7.012  0.0767  0.1345 -0.0348
 1184POPI   D2A17856  11.254  14.154   7.400 -0.1465 -0.2525 -0.0632
 1184POPI   C3A17857  11.348  14.088   7.779 -0.2713  0.0419 -0.0505
 1184POPI   C4A17858  11.271  13.987   8.199 -0.4212 -0.0360 -0.0135
 1184POPI   C1B17859  11.103  14.632   7.196 -0.2634  0.3848  0.1931
 1184POPI   C2B17860  11.207  14.656   7.645 -0.0706 -0.0807  0.2663
 1184POPI   C3B17861  11.297  14.746   8.099  0.1718 -0.1018  0.0658
 1184POPI   C4B17862  11.400  14.795   8.515 -0.0729 -0.1030  0.1752
 1185POPI    C117863   5.907  13.338   5.330  0.0199  0.0183 -0.2521
 1185POPI    C217864   6.250  13.429   5.143  0.0975 -0.0098 -0.1243
 1185POPI    C317865   6.065  13.083   5.065  0.1956 -0.0779 -0.0576
 1185POPI   PO417866   5.904  13.494   5.485  0.0782 -0.0426 -0.0075
 1185POPI   GL117867   6.018  13.612   5.876  0.3613  0.0642  0.1746
 1185POPI   GL217868   6.304  13.678   6.010 -0.0612 -0.2220  0.0177
 1185POPI   C1A17869   6.028  13.623   6.450  0.3181 -0.3308 -0.1029
 1185POPI   D2A17870   5.955  13.819   6.909 -0.0608  0.0954  0.2234
 1185POPI   C3A17871   5.943  13.767   7.275  0.1320 -0.0920 -0.0776
 1185POPI   C4A17872   6.019  13.806   7.789  0.2280  0.0981  0.1267
 1185POPI   C1B17873   6.376  13.974   6.285  0.0736  0.2230  0.1190
 1185POPI   C2B17874   6.432  13.905   6.650 -0.2187 -0.0466 -0.1272
 1185POPI   C3B17875   6.393  13.998   7.068 -0.0060 -0.1136  0.0040
 1185POPI   C4B17876   6.432  14.066   7.538  0.3177  0.0622  0.3020
 1186POPI    C117877  14.428  13.957   6.243  0.3258  0.1527  0.1397
 1186POPI    C217878  14.515  13.903   5.856 -0.0206  0.1802  0.0540
 1186POPI    C317879  14.628  13.631   6.127  0.1159  0.0997 -0.0826
 1186POPI   PO417880  14.274  14.046   6.267  0.0071  0.1289  0.0573
 1186POPI   GL117881  14.138  14.080   6.675 -0.0118 -0.0630 -0.0599
 1186POPI   GL217882  13.757  14.099   6.819 -0.3509  0.3056  0.1852
 1186POPI   C1A17883  14.106  13.943   7.166  0.1106  0.1404 -0.0978
 1186POPI   D2A17884  14.060  14.037   7.648  0.2414 -0.0671 -0.2759
 1186POPI   C3A17885  14.064  14.015   8.047  0.1414  0.1150  0.0092
 1186POPI   C4A17886  14.082  14.186   8.455  0.1546 -0.0957 -0.1777
 1186POPI   C1B17887  13.675  14.126   7.294  0.0889  0.1051 -0.0093
 1186POPI   C2B17888  13.612  14.121   7.809  0.1500 -0.1885  0.0120
 1186POPI   C3B17889  13.640  14.235   8.141 -0.1329 -0.0310 -0.0348
 1186POPI   C4B17890  13.638  14.394   8.598  0.0195  0.4198  0.0275
 1187POPI    C117891  11.182  16.726   5.998 -0.1616 -0.0461  0.0307
 1187POPI    C217892  11.186  16.670   6.394  0.1420 -0.0583  0.0278
 1187POPI    C317893  11.198  16.355   6.147  0.2402 -0.0415  0.0102
 1187POPI   PO417894  10.934  16.996   6.107  0.0737  0.0589  0.0679
 1187POPI   GL117895  10.749  17.031   6.519 -0.0709  0.0193 -0.1037
 1187POPI   GL217896  11.029  17.037   6.653  0.1369  0.1321  0.0542
 1187POPI   C1A17897  10.432  17.062   6.789 -0.0975 -0.0242 -0.2180
 1187POPI   D2A17898  10.290  17.203   7.156 -0.1158  0.2888  0.0798
 1187POPI   C3A17899  10.285  17.024   7.563  0.1023  0.1435 -0.0123
 1187POPI   C4A17900  10.410  17.097   7.875 -0.3142 -0.1463 -0.2443
 1187POPI   C1B17901  10.941  17.017   7.016  0.1568 -0.0986 -0.3165
 1187POPI   C2B17902  10.860  17.165   7.334 -0.0835  0.1425 -0.0627
 1187POPI   C3B17903  10.971  17.110   7.793  0.3526  0.0979  0.0647
 1187POPI   C4B17904  11.120  17.005   8.211  0.1504 -0.2486 -0.0446
 1188POPI    C117905   0.451   9.004   5.679 -0.2051 -0.0694 -0.1323
 1188POPI    C217906   0.704   8.737   5.522 -0.2295 -0.0963 -0.1258
 1188POPI    C317907   0.614   9.069   5.319 -0.0929 -0.0270 -0.0742
 1188POPI   PO417908   0.624   8.933   6.046  0.1162 -0.0130 -0.3029
 1188POPI   GL117909   0.545   8.841   6.565  0.1494  0.1720  0.4213
 1188POPI   GL217910   0.660   9.031   6.707 -0.4331 -0.1527  0.3258
 1188POPI   C1A17911   0.440   8.756   7.030 -0.2572  0.2797 -0.1440
 1188POPI   D2A17912   0.369   8.758   7.437 -0.0725  0.2183 -0.0254
 1188POPI   C3A17913   0.447   8.779   7.900  0.2664 -0.1654  0.1288
 1188POPI   C4A17914   0.488   8.667   8.344 -0.1871  0.1088 -0.1681
 1188POPI   C1B17915   0.707   9.186   7.178 -0.3060  0.0825  0.1056
 1188POPI   C2B17916   0.760   9.077   7.626  0.1070 -0.0394 -0.1330
 1188POPI   C3B17917   0.733   9.216   8.063  0.1816  0.0773 -0.0259
 1188POPI   C4B17918   0.731   9.090   8.431 -0.0120  0.0001  0.0690
 1189POPI    C117919  16.312   7.463   6.132  0.0223  0.0248  0.2293
 1189POPI    C217920  16.311   7.683   5.798  0.0345  0.1814  0.3312
 1189POPI    C317921  16.021   7.415   5.861  0.1118  0.0483  0.1288
 1189POPI   PO417922  16.267   7.624   6.358 -0.2154 -0.2207 -0.1298
 1189POPI   GL117923  16.478   7.647   6.730  0.0684  0.0013  0.1557
 1189POPI   GL217924  16.739   7.457   6.699  0.1581 -0.1378 -0.1146
 1189POPI   C1A17925  16.465   7.792   7.138  0.0354 -0.0952  0.1297
 1189POPI   D2A17926  16.351   7.516   7.408  0.1113 -0.2372 -0.0097
 1189POPI   C3A17927  16.230   7.623   7.871 -0.1579 -0.1870 -0.0575
 1189POPI   C4A17928  16.167   7.468   8.274  0.2715  0.0679 -0.3127
 1189POPI   C1B17929  16.886   7.554   7.132  0.2231  0.1160  0.0119
 1189POPI   C2B17930  16.802   7.622   7.623  0.1152 -0.2157 -0.0395
 1189POPI   C3B17931  16.732   7.391   8.046  0.0744 -0.1468 -0.1359
 1189POPI   C4B17932  16.899   6.942   8.247 -0.1766 -0.0991 -0.2865
 1190POPI    C117933  16.562   5.578   6.296  0.1816  0.1202 -0.0155
 1190POPI    C217934  16.505   5.735   5.933  0.1613  0.0461 -0.0445
 1190POPI    C317935  16.649   5.364   5.970  0.0148 -0.0047  0.0208
 1190POPI   PO417936  16.718   5.729   6.411 -0.0877 -0.0112 -0.1603
 1190POPI   GL117937  17.078   5.940   6.455  0.6318  0.3342 -0.1064
 1190POPI   GL217938  17.450   5.851   6.441 -0.3062  0.0134  0.1050
 1190POPI   C1A17939  17.162   5.936   6.905 -0.2509 -0.0638 -0.3317
 1190POPI   D2A17940  17.338   6.078   7.351 -0.2188 -0.0017 -0.3005
 1190POPI   C3A17941  17.314   6.033   7.762 -0.0004  0.1094 -0.4419
 1190POPI   C4A17942  17.255   5.940   8.129  0.1151  0.1770 -0.1457
 1190POPI   C1B17943  17.813   6.001   6.770  0.0720  0.0937 -0.1068
 1190POPI   C2B17944  17.800   5.997   7.216 -0.2005  0.0014 -0.1455
 1190POPI   C3B17945  17.879   5.943   7.650 -0.1238  0.1203  0.1258
 1190POPI   C4B17946  17.746   5.913   8.032  0.1461 -0.2335  0.0220
 1191POPI    C117947   1.478   0.406   6.167 -0.3166  0.0660  0.2513
 1191POPI    C217948   1.174   0.476   5.917 -0.0155  0.0731 -0.1222
 1191POPI    C317949   1.456   0.209   5.820  0.0549  0.0035  0.2587
 1191POPI   PO417950   1.432   0.369   6.394 -0.1695 -0.1272 -0.0774
 1191POPI   GL117951   1.529   0.186   6.822  0.2028 -0.1166  0.2745
 1191POPI   GL217952   1.230   0.229   6.816 -0.0436  0.1036  0.1552
 1191POPI   C1A17953   1.725   0.146   7.101 -0.2223 -0.3027 -0.2599
 1191POPI   D2A17954   1.766   0.157   7.588 -0.1938 -0.1724  0.2558
 1191POPI   C3A17955   1.752   0.216   8.022  0.2120 -0.1939  0.1445
 1191POPI   C4A17956   1.672   0.175   8.487  0.4589 -0.1617  0.0584
 1191POPI   C1B17957   1.278   0.214   7.265  0.0747 -0.3642 -0.0784
 1191POPI   C2B17958   1.284   0.175   7.706 -0.0211  0.0134  0.2159
 1191POPI   C3B17959   1.311   0.284   8.134  0.3720  0.0056  0.0273
 1191POPI   C4B17960   1.127   0.290   8.618 -0.0929  0.1123  0.0536
 1192POPI    C117961   0.919  13.080   6.403  0.0286  0.0018 -0.2045
 1192POPI    C217962   1.092  12.836   6.138  0.1298  0.0614 -0.1939
 1192POPI    C317963   1.078  13.230   6.068  0.0638  0.0653 -0.1596
 1192POPI   PO417964   0.879  12.847   6.561 -0.0976 -0.0692 -0.3886
 1192POPI   GL117965   1.098  12.894   6.925 -0.1025 -0.1906  0.1566
 1192POPI   GL217966   0.895  12.781   7.057 -0.1051 -0.1057  0.1248
 1192POPI   C1A17967   1.374  12.928   7.337 -0.0727 -0.0062  0.0612
 1192POPI   D2A17968   1.358  12.990   7.795  0.0140  0.4330 -0.2732
 1192POPI   C3A17969   1.239  13.102   8.180 -0.1030 -0.1701  0.1626
 1192POPI   C4A17970   1.060  12.986   8.654 -0.0666 -0.1115  0.0961
 1192POPI   C1B17971   0.848  12.795   7.510  0.0607  0.0257 -0.0595
 1192POPI   C2B17972   0.773  12.835   7.898 -0.0556 -0.1097  0.2092
 1192POPI   C3B17973   0.959  12.704   8.229 -0.1292  0.0929  0.0140
 1192POPI   C4B17974   1.053  12.459   8.622 -0.3353  0.3965  0.2709
 1193POPI    C117975  12.563   8.529   6.227 -0.0238  0.0471  0.1805
 1193POPI    C217976  12.252   8.775   6.281  0.0187  0.2064 -0.2631
 1193POPI    C317977  12.243   8.501   5.990  0.0999 -0.1153  0.0305
 1193POPI   PO417978  12.656   8.463   6.412 -0.0288 -0.0251 -0.1186
 1193POPI   GL117979  12.664   8.285   6.835  0.1178 -0.0157  0.1724
 1193POPI   GL217980  13.011   8.303   6.714  0.1323 -0.3599 -0.0578
 1193POPI   C1A17981  12.648   8.173   7.288  0.3059  0.0668  0.0702
 1193POPI   D2A17982  12.671   8.198   7.752 -0.1780  0.2669 -0.3330
 1193POPI   C3A17983  12.735   8.082   8.196  0.0649  0.0775  0.1556
 1193POPI   C4A17984  12.944   8.248   8.591 -0.2431 -0.1057 -0.0671
 1193POPI   C1B17985  13.299   8.151   7.002 -0.0962 -0.0013  0.0041
 1193POPI   C2B17986  13.261   8.077   7.403  0.0404  0.2291  0.2393
 1193POPI   C3B17987  13.267   8.084   7.835 -0.0467 -0.3706  0.0176
 1193POPI   C4B17988  13.263   7.898   8.213  0.2756  0.4432  0.1543
 1194POPI    C117989  13.534   0.553   5.817 -0.0620 -0.0496 -0.0439
 1194POPI    C217990  13.698   0.867   5.630 -0.2446  0.1453  0.1177
 1194POPI    C317991  13.763   0.496   5.494 -0.0745  0.2563 -0.1098
 1194POPI   PO417992  13.487   0.561   6.080 -0.2883  0.0896  0.0529
 1194POPI   GL117993  13.433   0.768   6.488  0.2194 -0.1397  0.2741
 1194POPI   GL217994  13.332   1.037   6.400  0.0021 -0.4471  0.2047
 1194POPI   C1A17995  13.351   0.626   6.933  0.0521 -0.6257 -0.0959
 1194POPI   D2A17996  13.493   0.648   7.389  0.0407 -0.3670 -0.0566
 1194POPI   C3A17997  13.580   0.688   7.856 -0.3074  0.0206 -0.0173
 1194POPI   C4A17998  13.525   0.510   8.238  0.2430  0.1941  0.2907
 1194POPI   C1B17999  13.296   1.113   6.821 -0.1848 -0.1427  0.2881
 1194POPI   C2B18000  13.260   1.133   7.303 -0.1204 -0.0458 -0.2796
 1194POPI   C3B18001  13.303   1.101   7.737 -0.0378  0.2989 -0.3589
 1194POPI   C4B18002  13.344   1.082   8.153  0.2697 -0.0393 -0.0788
 1195POPI    C118003   0.391   6.587   5.923  0.0991 -0.2156 -0.1538
 1195POPI    C218004   0.392   6.227   5.749 -0.2244 -0.3090  0.0283
 1195POPI    C318005   0.143   6.511   5.619  0.1107 -0.1074 -0.1909
 1195POPI   PO418006   0.468   6.577   6.140  0.2506 -0.0774  0.0453
 1195POPI   GL118007   0.291   6.648   6.621 -0.0999 -0.3281  0.3823
 1195POPI   GL218008   0.067   6.337   6.658 -0.1856 -0.0274 -0.2106
 1195POPI   C1A18009   0.663   6.817   6.900  0.0059 -0.0177 -0.1404
 1195POPI   D2A18010   0.990   6.942   7.244 -0.1116 -0.0504  0.4479
 1195POPI   C3A18011   1.062   6.884   7.628 -0.0957  0.3776 -0.0473
 1195POPI   C4A18012   1.081   6.712   8.017 -0.0408 -0.0768 -0.0211
 1195POPI   C1B18013   0.308   6.476   7.102  0.1749 -0.0937 -0.0436
 1195POPI   C2B18014   0.289   6.509   7.540 -0.0571  0.2787 -0.4205
 1195POPI   C3B18015   0.275   6.413   7.973 -0.3072 -0.1972  0.1721
 1195POPI   C4B18016   0.311   6.369   8.442 -0.1855 -0.1451  0.0955
 1196POPI    C118017  16.238   0.816   5.910 -0.1389  0.0854 -0.1714
 1196POPI    C218018  16.359   1.107   5.663 -0.0106 -0.0601 -0.2815
 1196POPI    C318019  16.084   0.843   5.541 -0.0918 -0.0144 -0.1987
 1196POPI   PO418020  16.399   0.796   6.047  0.1328 -0.0596 -0.0432
 1196POPI   GL118021  16.372   0.852   6.507 -0.1036 -0.0473 -0.1489
 1196POPI   GL218022  16.381   0.565   6.587  0.1115  0.0010  0.1029
 1196POPI   C1A18023  16.371   0.982   6.928  0.0243  0.0381 -0.1165
 1196POPI   D2A18024  16.410   1.002   7.398 -0.1058 -0.0829  0.1410
 1196POPI   C3A18025  16.304   1.043   7.871  0.1124  0.0410 -0.0446
 1196POPI   C4A18026  16.368   1.206   8.305  0.4268 -0.4184 -0.2972
 1196POPI   C1B18027  16.446   0.471   6.985  0.2111  0.0320  0.0851
 1196POPI   C2B18028  16.463   0.475   7.311 -0.2010 -0.1955  0.1693
 1196POPI   C3B18029  16.516   0.533   7.812 -0.1076  0.0902  0.1551
 1196POPI   C4B18030  16.469   0.596   8.250 -0.1253 -0.3926  0.0982
 1197POPI    C118031   7.675   8.702   5.782 -0.1004 -0.0217 -0.0447
 1197POPI    C218032   7.746   9.096   5.780 -0.0052 -0.0376  0.0490
 1197POPI    C318033   7.475   8.939   5.530  0.1179  0.0571 -0.1466
 1197POPI   PO418034   7.621   8.574   6.046 -0.3873  0.2219 -0.1380
 1197POPI   GL118035   7.438   8.515   6.284 -0.0924  0.0346  0.1132
 1197POPI   GL218036   7.337   8.274   6.346 -0.2033  0.0401  0.0943
 1197POPI   C1A18037   7.717   8.408   6.720 -0.1582 -0.1493 -0.1107
 1197POPI   D2A18038   7.714   8.369   7.163  0.2017 -0.3102 -0.2841
 1197POPI   C3A18039   7.732   8.330   7.599 -0.1269 -0.0609  0.1832
 1197POPI   C4A18040   7.692   8.401   7.931  0.2181  0.2117 -0.1174
 1197POPI   C1B18041   7.153   8.402   6.784 -0.2148  0.1584 -0.1232
 1197POPI   C2B18042   7.075   8.350   7.225 -0.1011  0.1302 -0.1064
 1197POPI   C3B18043   7.245   8.419   7.582 -0.0056  0.0329 -0.2493
 1197POPI   C4B18044   7.217   8.469   8.003  0.1484  0.2572 -0.2424
 1198DPPI    C118045   8.909   3.149   5.794  0.0522  0.0135  0.0340
 1198DPPI    C218046   8.683   2.876   5.610  0.0453 -0.0709  0.1660
 1198DPPI    C318047   8.610   3.265   5.555  0.0715 -0.0939 -0.0432
 1198DPPI   PO418048   8.903   3.038   6.088 -0.1206  0.3135 -0.0035
 1198DPPI   GL118049   8.822   2.759   6.294 -0.1611 -0.2515 -0.0805
 1198DPPI   GL218050   8.446   2.710   6.196  0.2981 -0.0656  0.2445
 1198DPPI   C1A18051   8.928   2.813   6.779 -0.1598 -0.0724  0.2885
 1198DPPI   C2A18052   8.961   2.792   7.176 -0.0224 -0.2833  0.0433
 1198DPPI   C3A18053   8.924   2.819   7.540 -0.0376 -0.1222 -0.0091
 1198DPPI   C4A18054   8.881   2.763   7.985  0.0865  0.1992  0.4848
 1198DPPI   C1B18055   8.409   2.930   6.562  0.2344 -0.0624 -0.0023
 1198DPPI   C2B18056   8.460   2.864   7.013  0.2019  0.3319 -0.0739
 1198DPPI   C3B18057   8.391   2.909   7.392 -0.2922 -0.1307  0.1429
 1198DPPI   C4B18058   8.362   2.824   7.912  0.0141 -0.0300 -0.0091
 1199DPPI    C118059   6.914  15.030   5.547  0.0211  0.0976  0.0849
 1199DPPI    C218060   6.789  15.255   5.854  0.0432  0.2025  0.0175
 1199DPPI    C318061   6.910  15.428   5.514 -0.0724  0.0832 -0.0857
 1199DPPI   PO418062   6.916  14.737   5.708 -0.3830  0.0108  0.3593
 1199DPPI   GL118063   7.070  14.785   6.076 -0.1613 -0.1872  0.0380
 1199DPPI   GL218064   7.276  14.946   6.035  0.0556  0.1260 -0.0006
 1199DPPI   C1A18065   7.054  14.680   6.409 -0.1441 -0.0597  0.0941
 1199DPPI   C2A18066   6.967  14.633   6.808  0.0750  0.0200  0.0632
 1199DPPI   C3A18067   6.944  14.708   7.127  0.4004 -0.0905 -0.1748
 1199DPPI   C4A18068   6.914  14.701   7.590  0.0156 -0.1835  0.2213
 1199DPPI   C1B18069   7.421  15.013   6.420  0.1951 -0.0963 -0.0489
 1199DPPI   C2B18070   7.414  14.996   6.866  0.0954  0.0276 -0.0129
 1199DPPI   C3B18071   7.335  14.960   7.334 -0.3159  0.0984  0.2930
 1199DPPI   C4B18072   7.339  15.002   7.731 -0.1035  0.0122 -0.1403
 1200DPPI    C118073  10.480   7.324   5.647  0.0023 -0.0247 -0.1071
 1200DPPI    C218074  10.091   7.253   5.591 -0.0347  0.0272  0.0773
 1200DPPI    C318075  10.362   7.083   5.351 -0.1670 -0.0616 -0.0106
 1200DPPI   PO418076  10.519   7.230   5.823 -0.0925 -0.0951 -0.3402
 1200DPPI   GL118077  10.783   6.880   6.015 -0.1412 -0.2074 -0.1674
 1200DPPI   GL218078  10.594   7.022   6.262  0.0695 -0.0269  0.0952
 1200DPPI   C1A18079  10.896   6.629   6.447 -0.1373 -0.0794  0.0601
 1200DPPI   C2A18080  10.830   6.559   6.872 -0.0193  0.0324 -0.0019
 1200DPPI   C3A18081  10.847   6.518   7.358  0.0137 -0.2457 -0.5092
 1200DPPI   C4A18082  10.908   6.520   7.818  0.2144  0.1687 -0.0369
 1200DPPI   C1B18083  10.786   7.093   6.678  0.0671  0.2025 -0.6341
 1200DPPI   C2B18084  10.736   7.088   7.031  0.2254 -0.3128  0.0704
 1200DPPI   C3B18085  10.736   7.020   7.424 -0.0458 -0.1905  0.3562
 1200DPPI   C4B18086  10.577   7.044   7.834 -0.1485 -0.2598  0.0854
 1201DPPI    C118087  15.704  10.976   6.178 -0.1336 -0.0350  0.0688
 1201DPPI    C218088  15.442  10.845   5.905  0.1027 -0.0213 -0.1682
 1201DPPI    C318089  15.627  11.195   5.852  0.2266 -0.0664 -0.0410
 1201DPPI   PO418090  15.659  10.934   6.438  0.0553  0.1274 -0.0914
 1201DPPI   GL118091  15.346  11.025   6.812  0.2344 -0.1373  0.1389
 1201DPPI   GL218092  15.398  10.652   6.819 -0.1006 -0.1454  0.2062
 1201DPPI   C1A18093  15.410  11.144   7.185 -0.1577 -0.1594 -0.3942
 1201DPPI   C2A18094  15.428  11.172   7.667  0.1376  0.1887  0.2195
 1201DPPI   C3A18095  15.312  11.043   8.050  0.1854 -0.1151  0.0176
 1201DPPI   C4A18096  15.152  11.025   8.524  0.1830 -0.1103 -0.0847
 1201DPPI   C1B18097  15.536  10.561   7.205  0.1928 -0.0946  0.2447
 1201DPPI   C2B18098  15.539  10.596   7.662  0.0668  0.0014  0.4443
 1201DPPI   C3B18099  15.620  10.591   8.110  0.0355  0.1217  0.2969
 1201DPPI   C4B18100  15.844  10.442   8.355  0.1488 -0.1710 -0.1327
 1202DPPI    C118101   3.231   8.941   6.053 -0.1775  0.0756 -0.0625
 1202DPPI    C218102   3.118   8.874   5.675  0.1837 -0.0180 -0.1570
 1202DPPI    C318103   3.466   8.729   5.810 -0.1275 -0.3414  0.3346
 1202DPPI   PO418104   2.979   8.905   6.226  0.0175 -0.0785  0.0520
 1202DPPI   GL118105   2.964   8.566   6.605 -0.0909  0.0136  0.1200
 1202DPPI   GL218106   3.211   8.787   6.649 -0.0107  0.1496 -0.1599
 1202DPPI   C1A18107   2.824   8.403   6.945 -0.0090  0.1617 -0.1969
 1202DPPI   C2A18108   2.904   8.284   7.408 -0.3332  0.0566 -0.0253
 1202DPPI   C3A18109   2.885   8.269   7.806  0.0243  0.0332 -0.0865
 1202DPPI   C4A18110   2.993   8.122   8.230  0.1966  0.1590  0.1625
 1202DPPI   C1B18111   3.304   8.738   7.127 -0.1971 -0.1029  0.0044
 1202DPPI   C2B18112   3.221   8.671   7.528  0.1472 -0.0156  0.2942
 1202DPPI   C3B18113   3.247   8.598   7.963 -0.1170  0.1688 -0.2922
 1202DPPI   C4B18114   3.414   8.527   8.378 -0.0558 -0.0627  0.2343
 1203DPPI    C118115   0.218  15.549   5.976 -0.0702  0.0040 -0.0681
 1203DPPI    C218116  -0.071  15.783   5.829 -0.0680  0.1511  0.1569
 1203DPPI    C318117   0.182  15.598   5.580 -0.5184 -0.1957 -0.0576
 1203DPPI   PO418118   0.247  15.699   6.232 -0.2229  0.0319  0.1834
 1203DPPI   GL118119   0.195  15.350   6.567  0.3311  0.1599 -0.1129
 1203DPPI   GL218120   0.457  15.616   6.647  0.1512 -0.0680 -0.2194
 1203DPPI   C1A18121   0.064  15.395   7.003  0.1513  0.2638  0.0241
 1203DPPI   C2A18122   0.156  15.408   7.482  0.2325  0.0587  0.0430
 1203DPPI   C3A18123   0.179  15.443   7.839 -0.4159 -0.1222  0.0455
 1203DPPI   C4A18124   0.204  15.525   8.231  0.0449  0.0664 -0.3757
 1203DPPI   C1B18125   0.419  15.709   7.054  0.0186 -0.0132  0.2194
 1203DPPI   C2B18126   0.502  15.889   7.405 -0.2727  0.0904  0.6412
 1203DPPI   C3B18127   0.452  15.896   7.858  0.0267  0.1507 -0.1015
 1203DPPI   C4B18128   0.452  15.924   8.317 -0.2103  0.0510 -0.1759
 1204DPPI    C118129  12.439  15.364   6.159 -0.0358  0.1569 -0.1588
 1204DPPI    C218130  12.693  15.499   5.882  0.0657  0.0011 -0.1427
 1204DPPI    C318131  12.461  15.183   5.803 -0.0082  0.0446 -0.1005
 1204DPPI   PO418132  12.534  15.360   6.360 -0.0755  0.1426 -0.2540
 1204DPPI   GL118133  12.543  15.366   6.748 -0.0556  0.2902 -0.0863
 1204DPPI   GL218134  12.270  15.581   6.808 -0.3534 -0.1288 -0.2311
 1204DPPI   C1A18135  12.382  15.224   7.230 -0.0953 -0.0922 -0.0663
 1204DPPI   C2A18136  12.260  15.282   7.570 -0.1827 -0.0302 -0.3490
 1204DPPI   C3A18137  12.451  15.246   7.958 -0.1036  0.1311 -0.1360
 1204DPPI   C4A18138  12.750  15.140   8.325  0.1611 -0.0444 -0.3359
 1204DPPI   C1B18139  12.240  15.677   7.184 -0.1836 -0.0870  0.0153
 1204DPPI   C2B18140  12.213  15.828   7.636 -0.1765 -0.0326  0.0795
 1204DPPI   C3B18141  12.326  15.790   8.009 -0.2573  0.1794 -0.1053
 1204DPPI   C4B18142  12.480  15.604   8.349 -0.0263 -0.1372 -0.0536
 1205DPPI    C118143   4.844   4.637   5.939  0.1778 -0.3410 -0.1226
 1205DPPI    C218144   4.606   4.738   5.634  0.1229 -0.0233  0.0211
 1205DPPI    C318145   4.960   4.565   5.563  0.0399 -0.1015 -0.2131
 1205DPPI   PO418146   4.693   4.498   6.079  0.2835 -0.0755 -0.1465
 1205DPPI   GL118147   4.614   4.461   6.468 -0.2207 -0.0595 -0.1546
 1205DPPI   GL218148   4.412   4.620   6.555  0.1488 -0.0902 -0.0467
 1205DPPI   C1A18149   4.544   4.283   6.876  0.1062  0.0226 -0.2471
 1205DPPI   C2A18150   4.489   4.276   7.309 -0.1436 -0.0631  0.0429
 1205DPPI   C3A18151   4.455   4.353   7.720  0.3722  0.0254  0.1775
 1205DPPI   C4A18152   4.452   4.397   8.191  0.0026 -0.3302 -0.0396
 1205DPPI   C1B18153   4.342   4.686   7.024  0.1914  0.1565 -0.3378
 1205DPPI   C2B18154   4.234   4.783   7.472 -0.0866  0.1588 -0.3186
 1205DPPI   C3B18155   4.265   4.892   7.925  0.3478 -0.0756 -0.0760
 1205DPPI   C4B18156   4.348   4.896   8.364 -0.3348 -0.0699  0.1229
 1206DPPI    C118157   8.259   1.340   6.135 -0.0569  0.0889  0.2560
 1206DPPI    C218158   7.928   1.116   6.120  0.0794 -0.1106  0.1863
 1206DPPI    C318159   8.188   1.110   5.816  0.0640  0.1771  0.1641
 1206DPPI   PO418160   8.209   1.521   6.262  0.5210 -0.0449 -0.1308
 1206DPPI   GL118161   8.249   1.562   6.700 -0.0025 -0.1380 -0.1588
 1206DPPI   GL218162   8.517   1.302   6.706  0.1792 -0.2587  0.3272
 1206DPPI   C1A18163   8.156   1.608   7.154 -0.2210  0.0344  0.1490
 1206DPPI   C2A18164   8.117   1.568   7.634  0.0365  0.0296  0.0546
 1206DPPI   C3A18165   7.982   1.572   8.075 -0.2493 -0.0684 -0.1841
 1206DPPI   C4A18166   7.779   1.321   8.426  0.2689 -0.1081  0.0617
 1206DPPI   C1B18167   8.587   1.280   7.127  0.0041 -0.1024  0.2311
 1206DPPI   C2B18168   8.622   1.344   7.589  0.2954  0.3446 -0.0773
 1206DPPI   C3B18169   8.474   1.292   7.969 -0.0689 -0.0627 -0.1667
 1206DPPI   C4B18170   8.726   1.092   8.305 -0.0942  0.2501 -0.1478
 1207DPPI    C118171   8.105   8.353   5.456 -0.0822  0.1590  0.1272
 1207DPPI    C218172   8.097   8.749   5.508 -0.1619  0.1578  0.1263
 1207DPPI    C318173   8.375   8.584   5.272 -0.2143  0.2262  0.0156
 1207DPPI   PO418174   8.024   8.290   5.749 -0.0935  0.0254 -0.0333
 1207DPPI   GL118175   7.847   8.141   6.213  0.1185 -0.2277 -0.0662
 1207DPPI   GL218176   7.941   8.346   6.324 -0.0313 -0.4552 -0.2905
 1207DPPI   C1A18177   7.975   7.886   6.518  0.0501 -0.1639  0.0570
 1207DPPI   C2A18178   7.974   7.940   6.920  0.0163  0.1511  0.1180
 1207DPPI   C3A18179   7.954   7.859   7.398  0.2242  0.0995  0.1044
 1207DPPI   C4A18180   7.859   7.875   7.836  0.0319 -0.4222 -0.2593
 1207DPPI   C1B18181   8.246   8.286   6.693 -0.2872 -0.1812 -0.0254
 1207DPPI   C2B18182   8.292   8.250   7.122  0.0016  0.1554  0.1196
 1207DPPI   C3B18183   8.214   8.258   7.571 -0.1080  0.1223  0.2161
 1207DPPI   C4B18184   8.170   8.217   8.049  0.1516  0.1183  0.1047
 1208DPPI    C118185  14.740   2.541   5.963 -0.1437  0.1073  0.0930
 1208DPPI    C218186  15.073   2.678   5.788 -0.2815  0.1820 -0.1145
 1208DPPI    C318187  14.732   2.656   5.580 -0.3475 -0.1385  0.0209
 1208DPPI   PO418188  14.705   2.694   6.160 -0.1525  0.0426 -0.0546
 1208DPPI   GL118189  14.654   2.778   6.578  0.0573 -0.0879  0.1603
 1208DPPI   GL218190  14.717   2.497   6.585 -0.0031  0.1119 -0.0560
 1208DPPI   C1A18191  14.929   3.020   6.792  0.1597  0.0190  0.1967
 1208DPPI   C2A18192  14.997   3.182   7.195  0.0862  0.0714 -0.1822
 1208DPPI   C3A18193  15.055   3.208   7.616 -0.0259  0.0671 -0.2629
 1208DPPI   C4A18194  15.108   3.128   8.078 -0.1808 -0.3092 -0.1555
 1208DPPI   C1B18195  14.659   2.725   7.066 -0.0575  0.2488  0.0296
 1208DPPI   C2B18196  14.734   2.821   7.454  0.1535 -0.0841 -0.0374
 1208DPPI   C3B18197  14.746   2.690   7.904 -0.1051  0.1667  0.2574
 1208DPPI   C4B18198  14.576   2.747   8.335 -0.2430  0.1139 -0.0658
 1209DPPI    C118199   8.330   5.168   5.508 -0.0809 -0.1071 -0.0258
 1209DPPI    C218200   8.611   5.025   5.262  0.1106 -0.0775  0.1729
 1209DPPI    C318201   8.552   5.419   5.289 -0.1336 -0.0948 -0.0653
 1209DPPI   PO418202   8.343   5.151   5.761  0.2598 -0.0814 -0.0669
 1209DPPI   GL118203   8.388   5.013   6.172  0.2294 -0.1342  0.0044
 1209DPPI   GL218204   8.125   4.811   6.255  0.2706 -0.1212 -0.1129
 1209DPPI   C1A18205   8.494   5.131   6.520 -0.0325  0.0329 -0.2925
 1209DPPI   C2A18206   8.577   5.090   6.961  0.0313 -0.1813  0.1000
 1209DPPI   C3A18207   8.522   5.125   7.361  0.5504 -0.0026 -0.2032
 1209DPPI   C4A18208   8.444   5.124   7.764 -0.0656  0.0517  0.0546
 1209DPPI   C1B18209   8.179   4.760   6.682  0.1047  0.2959 -0.1920
 1209DPPI   C2B18210   8.227   4.760   7.070  0.2711  0.2937 -0.1232
 1209DPPI   C3B18211   8.209   4.716   7.528 -0.0087 -0.1171 -0.1926
 1209DPPI   C4B18212   8.142   4.804   8.002  0.0336 -0.1130 -0.1383
 1210DPPI    C118213   1.249  14.769   6.059 -0.3115 -0.2097 -0.2371
 1210DPPI    C218214   1.152  14.987   5.738  0.2582  0.1844 -0.1554
 1210DPPI    C318215   1.536  14.903   5.815  0.0936 -0.3235  0.1624
 1210DPPI   PO418216   1.112  14.861   6.258 -0.2321 -0.0739  0.0520
 1210DPPI   GL118217   1.192  15.064   6.578 -0.0893  0.3515  0.1531
 1210DPPI   GL218218   0.932  15.300   6.697  0.1663  0.1630 -0.2082
 1210DPPI   C1A18219   1.481  15.151   6.887 -0.0224  0.2844 -0.1330
 1210DPPI   C2A18220   1.591  15.222   7.337 -0.0127 -0.0406 -0.2082
 1210DPPI   C3A18221   1.671  15.224   7.775  0.0185 -0.1946  0.1782
 1210DPPI   C4A18222   1.781  15.172   8.239 -0.0856 -0.1259  0.0177
 1210DPPI   C1B18223   1.034  15.244   7.090 -0.0514  0.1804 -0.3045
 1210DPPI   C2B18224   1.087  15.290   7.474 -0.1064  0.0872  0.2932
 1210DPPI   C3B18225   1.154  15.417   7.836  0.1898  0.2048 -0.3760
 1210DPPI   C4B18226   1.242  15.430   8.251 -0.0048  0.1642  0.1194
 1211DPPI    C118227   5.996   5.273   5.545  0.1683 -0.0635 -0.3664
 1211DPPI    C218228   5.675   5.040   5.597  0.1916 -0.0497 -0.1509
 1211DPPI    C318229   5.856   5.055   5.240 -0.1031  0.0155 -0.3003
 1211DPPI   PO418230   6.125   5.257   5.825  0.1390 -0.0457 -0.0601
 1211DPPI   GL118231   6.141   5.242   6.238 -0.0687 -0.0444 -0.1009
 1211DPPI   GL218232   6.071   5.045   6.415 -0.0612  0.0892  0.2330
 1211DPPI   C1A18233   6.458   5.288   6.676 -0.2143  0.2816  0.2713
 1211DPPI   C2A18234   6.510   5.410   7.084  0.1420  0.0584  0.0802
 1211DPPI   C3A18235   6.353   5.411   7.445  0.1558 -0.0727  0.1365
 1211DPPI   C4A18236   6.415   5.399   7.945 -0.0358 -0.3107 -0.0429
 1211DPPI   C1B18237   6.062   5.007   6.828  0.0763 -0.0388 -0.0392
 1211DPPI   C2B18238   6.116   4.989   7.201 -0.1932 -0.2372  0.1009
 1211DPPI   C3B18239   6.124   4.974   7.608 -0.0744 -0.0954 -0.4180
 1211DPPI   C4B18240   6.111   4.916   8.004  0.0853  0.0054 -0.1764
 1212DPPI    C118241  14.482  16.463   6.179 -0.0860  0.4453  0.0088
 1212DPPI    C218242  14.089  16.401   6.215 -0.0543  0.0509 -0.2688
 1212DPPI    C318243  14.229  16.628   5.917 -0.0565 -0.0070 -0.3141
 1212DPPI   PO418244  14.602  16.424   6.399  0.1098  0.0368  0.1872
 1212DPPI   GL118245  14.508  16.206   6.739  0.3117  0.0533  0.1909
 1212DPPI   GL218246  14.318  16.490   6.791  0.2344 -0.0055 -0.0197
 1212DPPI   C1A18247  14.614  16.361   7.213 -0.1985  0.4020 -0.0729
 1212DPPI   C2A18248  14.586  16.439   7.700  0.1165  0.1613 -0.2641
 1212DPPI   C3A18249  14.684  16.336   8.159 -0.0395  0.0184 -0.0439
 1212DPPI   C4A18250  15.001  16.307   8.557 -0.0845 -0.0578 -0.2495
 1212DPPI   C1B18251  14.122  16.423   7.226  0.0839  0.0555  0.1705
 1212DPPI   C2B18252  13.962  16.412   7.666  0.1974 -0.0782  0.1178
 1212DPPI   C3B18253  14.190  16.422   8.037 -0.2981  0.1386 -0.0784
 1212DPPI   C4B18254  14.213  16.354   8.516  0.0990  0.3007  0.2611
 1213DPPI    C118255  11.409   7.325   5.762 -0.1877  0.0866  0.3689
 1213DPPI    C218256  11.508   7.670   5.586 -0.0999 -0.1885 -0.1414
 1213DPPI    C318257  11.136   7.614   5.720 -0.1193  0.0950 -0.0699
 1213DPPI   PO418258  11.601   7.333   5.975  0.0768 -0.4549 -0.0165
 1213DPPI   GL118259  11.441   7.353   6.392  0.1131 -0.0852 -0.2525
 1213DPPI   GL218260  11.255   7.090   6.499 -0.1366  0.1013  0.4025
 1213DPPI   C1A18261  11.521   7.429   6.800 -0.0820 -0.2987  0.1370
 1213DPPI   C2A18262  11.585   7.466   7.243 -0.0130  0.4238  0.1898
 1213DPPI   C3A18263  11.543   7.387   7.660  0.0036 -0.0671  0.0530
 1213DPPI   C4A18264  11.413   7.303   8.063 -0.2754  0.0101 -0.0680
 1213DPPI   C1B18265  11.280   6.951   6.844 -0.1413  0.0248  0.0458
 1213DPPI   C2B18266  11.181   6.911   7.195  0.2350 -0.0751 -0.1962
 1213DPPI   C3B18267  11.223   6.928   7.638  0.0378 -0.0746  0.0438
 1213DPPI   C4B18268  11.099   6.955   8.039 -0.0328 -0.3642  0.0327
 1214DPPI    C118269   4.026   6.597   5.772  0.0978  0.0363 -0.0071
 1214DPPI    C218270   4.115   6.296   5.525 -0.0394  0.0827 -0.1144
 1214DPPI    C318271   3.765   6.487   5.490  0.1024  0.3429 -0.1352
 1214DPPI   PO418272   3.985   6.573   6.021 -0.2220  0.2308  0.0962
 1214DPPI   GL118273   3.954   6.556   6.426  0.1553  0.1018 -0.0589
 1214DPPI   GL218274   3.955   6.251   6.473 -0.0610 -0.0432  0.2807
 1214DPPI   C1A18275   3.965   6.716   6.888 -0.0568 -0.1819  0.0112
 1214DPPI   C2A18276   4.052   6.788   7.338  0.3588  0.2997 -0.0881
 1214DPPI   C3A18277   3.970   6.792   7.813 -0.1350  0.1596  0.0107
 1214DPPI   C4A18278   3.936   6.833   8.235  0.2187 -0.0185 -0.0874
 1214DPPI   C1B18279   4.153   6.200   6.916  0.2943  0.0758 -0.0523
 1214DPPI   C2B18280   4.172   6.179   7.455 -0.1013 -0.0814 -0.1129
 1214DPPI   C3B18281   4.245   6.187   7.874  0.2118 -0.1015  0.1369
 1214DPPI   C4B18282   4.305   6.167   8.315 -0.1243 -0.0920  0.0474
 1215DPPI    C118283   6.522  13.799   5.439 -0.0118 -0.1223  0.0321
 1215DPPI    C218284   6.559  13.833   5.042 -0.2155  0.1460  0.0327
 1215DPPI    C318285   6.212  13.922   5.218 -0.2780 -0.4339  0.2238
 1215DPPI   PO418286   6.706  13.923   5.512 -0.2358 -0.2348  0.0887
 1215DPPI   GL118287   6.737  13.988   5.969 -0.0423  0.0888 -0.1939
 1215DPPI   GL218288   6.749  14.365   6.107 -0.1745  0.0970  0.1626
 1215DPPI   C1A18289   6.862  13.667   6.333 -0.0745  0.0876  0.1819
 1215DPPI   C2A18290   6.835  13.698   6.753  0.0809 -0.1083  0.0646
 1215DPPI   C3A18291   6.820  13.747   7.216  0.1405 -0.0677  0.0105
 1215DPPI   C4A18292   6.833  13.748   7.670  0.1343 -0.0180  0.2002
 1215DPPI   C1B18293   6.849  14.163   6.513 -0.1061 -0.3533 -0.2203
 1215DPPI   C2B18294   6.893  14.169   6.961 -0.0449 -0.5162 -0.0613
 1215DPPI   C3B18295   6.851  14.212   7.396  0.0716 -0.1919 -0.2770
 1215DPPI   C4B18296   6.768  14.259   7.852  0.2292  0.1578 -0.1907
 1216DPPI    C118297  12.960   2.719   6.199  0.2382 -0.0687  0.2378
 1216DPPI    C218298  13.054   3.034   5.971 -0.0554 -0.1894 -0.0589
 1216DPPI    C318299  13.310   2.906   6.251  0.2598  0.0361 -0.2374
 1216DPPI   PO418300  12.718   2.755   6.277 -0.0213 -0.0986 -0.2103
 1216DPPI   GL118301  12.543   2.852   6.691  0.4116 -0.0484 -0.2365
 1216DPPI   GL218302  12.218   2.715   6.657  0.3034  0.0080  0.3752
 1216DPPI   C1A18303  12.593   3.130   7.005 -0.1238  0.2379 -0.2943
 1216DPPI   C2A18304  12.567   3.119   7.505 -0.1567  0.0043  0.0952
 1216DPPI   C3A18305  12.646   3.020   7.932 -0.2303 -0.0477  0.1249
 1216DPPI   C4A18306  12.674   3.048   8.377  0.1325 -0.3167  0.2431
 1216DPPI   C1B18307  12.250   2.784   7.154 -0.0394  0.1326 -0.1340
 1216DPPI   C2B18308  12.258   2.735   7.632 -0.1575 -0.2798  0.0712
 1216DPPI   C3B18309  12.257   2.590   7.991  0.0759  0.3251  0.1875
 1216DPPI   C4B18310  12.234   2.573   8.465  0.0644  0.1260  0.2591
 1217DPPI    C118311   7.544   5.130   5.929 -0.0712 -0.0050  0.0573
 1217DPPI    C218312   7.167   5.144   6.063 -0.0850 -0.0820  0.0273
 1217DPPI    C318313   7.239   5.108   5.671 -0.0448  0.1477  0.0120
 1217DPPI   PO418314   7.649   5.215   6.079 -0.0240  0.1325  0.1736
 1217DPPI   GL118315   7.580   5.375   6.428  0.5091  0.1960 -0.2931
 1217DPPI   GL218316   7.860   5.222   6.547  0.0898 -0.0354 -0.3035
 1217DPPI   C1A18317   7.546   5.282   6.920 -0.2119  0.2557  0.2949
 1217DPPI   C2A18318   7.517   5.286   7.384 -0.2578  0.3763 -0.1290
 1217DPPI   C3A18319   7.389   5.264   7.774  0.3375  0.0802 -0.3565
 1217DPPI   C4A18320   7.335   5.266   8.191 -0.0445 -0.1522  0.0262
 1217DPPI   C1B18321   8.120   5.213   6.889  0.1489  0.0711 -0.0182
 1217DPPI   C2B18322   8.018   5.179   7.384  0.0258 -0.1486 -0.0344
 1217DPPI   C3B18323   7.882   5.126   7.747  0.1119  0.1412 -0.2944
 1217DPPI   C4B18324   7.869   5.137   8.235 -0.1576 -0.0818 -0.1196
 1218DPPI    C118325   8.956   7.463   5.758 -0.1405 -0.1164 -0.1454
 1218DPPI    C218326   8.607   7.483   5.953 -0.0323 -0.0198  0.0406
 1218DPPI    C318327   8.627   7.588   5.568 -0.2630 -0.2851 -0.0472
 1218DPPI   PO418328   9.160   7.566   5.966  0.0155  0.0452 -0.1407
 1218DPPI   GL118329   9.298   7.518   6.368  0.1042  0.0301  0.0434
 1218DPPI   GL218330   9.365   7.197   6.420 -0.0388  0.2084 -0.0956
 1218DPPI   C1A18331   9.448   7.665   6.655  0.2378  0.1250  0.0338
 1218DPPI   C2A18332   9.552   7.714   7.113 -0.0087  0.0303  0.0632
 1218DPPI   C3A18333   9.424   7.645   7.571  0.1250  0.0207  0.1569
 1218DPPI   C4A18334   9.351   7.681   7.945 -0.1063  0.0900  0.1649
 1218DPPI   C1B18335   9.120   7.229   6.747  0.1347 -0.1666  0.1085
 1218DPPI   C2B18336   9.091   7.240   7.235 -0.2866 -0.2314  0.0471
 1218DPPI   C3B18337   9.053   7.241   7.725  0.0545 -0.1793  0.1785
 1218DPPI   C4B18338   9.027   7.316   8.156  0.1705  0.0522 -0.0722
 1219DPPI    C118339   2.620   6.358   5.668 -0.2693 -0.0479  0.1064
 1219DPPI    C218340   2.420   6.129   5.407 -0.0978 -0.2716  0.1674
 1219DPPI    C318341   2.820   6.136   5.401 -0.1018  0.1965  0.0250
 1219DPPI   PO418342   2.610   6.197   5.878  0.0885 -0.0896 -0.0637
 1219DPPI   GL118343   2.472   6.292   6.287  0.0978 -0.0947 -0.0222
 1219DPPI   GL218344   2.327   5.988   6.399  0.0200 -0.0548 -0.1121
 1219DPPI   C1A18345   2.536   6.464   6.640 -0.2939  0.2439 -0.1476
 1219DPPI   C2A18346   2.640   6.497   7.040 -0.2900 -0.4018 -0.0219
 1219DPPI   C3A18347   2.718   6.444   7.436  0.2190  0.2319 -0.2210
 1219DPPI   C4A18348   2.672   6.469   7.870  0.0344  0.1928  0.0482
 1219DPPI   C1B18349   2.366   6.087   6.880 -0.0770  0.4493  0.2427
 1219DPPI   C2B18350   2.356   6.061   7.290  0.1753  0.0095  0.0120
 1219DPPI   C3B18351   2.350   6.129   7.711 -0.0699 -0.2096  0.1723
 1219DPPI   C4B18352   2.281   6.025   8.112  0.0704 -0.0009  0.2015
 1220DPPI    C118353   6.963   5.932   5.721 -0.1933  0.2682  0.1042
 1220DPPI    C218354   6.993   5.641   5.447 -0.0147  0.2361  0.1565
 1220DPPI    C318355   6.866   6.005   5.339 -0.1731  0.1585  0.0778
 1220DPPI   PO418356   6.836   5.805   6.045  0.0674 -0.0760  0.0107
 1220DPPI   GL118357   6.766   5.426   6.317  0.3308  0.0702  0.2489
 1220DPPI   GL218358   7.100   5.340   6.558  0.0926  0.1174  0.1058
 1220DPPI   C1A18359   6.772   5.660   6.673 -0.1899 -0.1652 -0.2125
 1220DPPI   C2A18360   6.817   5.842   6.978 -0.2726  0.1049  0.0010
 1220DPPI   C3A18361   6.724   5.783   7.484 -0.1424  0.0135  0.1734
 1220DPPI   C4A18362   6.719   5.860   7.921  0.1170  0.3036  0.2770
 1220DPPI   C1B18363   7.062   5.353   7.035  0.0627 -0.3401 -0.1630
 1220DPPI   C2B18364   6.916   5.323   7.378  0.1063  0.0172  0.1280
 1220DPPI   C3B18365   6.912   5.352   7.809  0.0428 -0.3909  0.0453
 1220DPPI   C4B18366   6.901   5.483   8.237  0.1145  0.0384  0.0284
 1221DPPI    C118367  14.958   5.230   6.107  0.3324 -0.0214 -0.1017
 1221DPPI    C218368  14.920   5.489   5.805  0.2401  0.0487 -0.0308
 1221DPPI    C318369  14.863   5.098   5.742 -0.0652  0.0929 -0.0448
 1221DPPI   PO418370  14.881   5.353   6.246  0.1250  0.0101  0.1503
 1221DPPI   GL118371  15.040   5.567   6.573 -0.3299 -0.0415 -0.2123
 1221DPPI   GL218372  15.259   5.263   6.640  0.0561  0.0736  0.0392
 1221DPPI   C1A18373  15.007   5.536   6.977  0.0727 -0.3209  0.1582
 1221DPPI   C2A18374  15.012   5.543   7.498 -0.3550 -0.0996  0.0319
 1221DPPI   C3A18375  15.130   5.335   7.942 -0.1631 -0.3117  0.0181
 1221DPPI   C4A18376  15.048   5.194   8.339  0.0783  0.0720  0.2458
 1221DPPI   C1B18377  15.270   5.132   7.039  0.2191 -0.3367 -0.2565
 1221DPPI   C2B18378  15.283   5.116   7.476  0.1311 -0.1270  0.1172
 1221DPPI   C3B18379  15.324   4.891   7.943  0.3538 -0.0553 -0.2214
 1221DPPI   C4B18380  15.395   4.842   8.412 -0.0968 -0.0803 -0.2253
 1222DPPI    C118381  12.733   4.196   5.787 -0.0905  0.0919  0.0077
 1222DPPI    C218382  12.553   4.553   5.792 -0.0427  0.1160  0.0181
 1222DPPI    C318383  12.585   4.349   5.449 -0.1668  0.0723  0.0319
 1222DPPI   PO418384  12.947   4.167   5.905  0.0796 -0.0838  0.0297
 1222DPPI   GL118385  13.322   4.167   6.202  0.0067 -0.0493  0.1579
 1222DPPI   GL218386  13.374   3.910   6.363 -0.1896  0.0586 -0.1829
 1222DPPI   C1A18387  13.141   4.413   6.624 -0.4231  0.2498 -0.1806
 1222DPPI   C2A18388  13.094   4.370   7.116 -0.2278  0.0823  0.1475
 1222DPPI   C3A18389  13.218   4.366   7.616  0.1579  0.0498 -0.1733
 1222DPPI   C4A18390  13.148   4.304   8.033 -0.1836 -0.0990  0.2917
 1222DPPI   C1B18391  13.252   3.855   6.803 -0.2019 -0.3421 -0.2621
 1222DPPI   C2B18392  13.258   3.873   7.254 -0.1991 -0.0371 -0.0571
 1222DPPI   C3B18393  13.369   3.875   7.612 -0.1110 -0.1914 -0.1185
 1222DPPI   C4B18394  13.333   3.865   8.100  0.0946  0.1411 -0.0473
 1223DPPI    C118395   5.115   1.235   5.817  0.2008 -0.0953 -0.0725
 1223DPPI    C218396   4.976   1.610   5.805  0.1494 -0.1053  0.1641
 1223DPPI    C318397   4.827   1.333   5.557  0.0298 -0.0218  0.1418
 1223DPPI   PO418398   5.078   1.197   6.140 -0.1479 -0.0490 -0.0523
 1223DPPI   GL118399   5.122   0.872   6.421 -0.2646  0.1838  0.1478
 1223DPPI   GL218400   4.877   1.038   6.606  0.0627 -0.0055 -0.2179
 1223DPPI   C1A18401   5.109   0.694   6.884  0.0838  0.5081 -0.0702
 1223DPPI   C2A18402   5.119   0.634   7.268  0.1580 -0.0607 -0.0290
 1223DPPI   C3A18403   5.202   0.867   7.675  0.1077 -0.2690 -0.2036
 1223DPPI   C4A18404   5.184   1.119   8.047 -0.0013  0.2506  0.1761
 1223DPPI   C1B18405   4.781   1.079   6.976 -0.0287  0.0259 -0.2811
 1223DPPI   C2B18406   4.753   1.069   7.446  0.0853  0.0694  0.0413
 1223DPPI   C3B18407   4.694   1.105   7.866  0.0399  0.0000 -0.1113
 1223DPPI   C4B18408   4.515   1.062   8.329 -0.1994  0.0447  0.1881
 1224DPPI    C118409   9.344  16.277   5.820 -0.1831  0.0720  0.0386
 1224DPPI    C218410   9.595  16.496   5.598  0.0346 -0.1157  0.0957
 1224DPPI    C318411   9.360  16.224   5.423  0.1402 -0.1996  0.0827
 1224DPPI   PO418412   9.446  16.143   6.023  0.0158 -0.0373  0.0347
 1224DPPI   GL118413   9.399  16.058   6.447 -0.2633  0.1143 -0.0195
 1224DPPI   GL218414   9.384  15.787   6.563 -0.3866  0.2735 -0.2300
 1224DPPI   C1A18415   9.416  16.358   6.751  0.3523 -0.1168  0.0623
 1224DPPI   C2A18416   9.345  16.333   7.113 -0.0131  0.2211  0.0226
 1224DPPI   C3A18417   9.354  16.379   7.525 -0.3694  0.1533  0.2457
 1224DPPI   C4A18418   9.341  16.465   7.947  0.0924  0.2876 -0.1817
 1224DPPI   C1B18419   9.209  15.874   6.910 -0.1035  0.0575  0.4931
 1224DPPI   C2B18420   9.316  15.864   7.406 -0.1022 -0.0861 -0.0960
 1224DPPI   C3B18421   9.331  16.012   7.835  0.3376 -0.0058 -0.0332
 1224DPPI   C4B18422   9.270  15.994   8.269  0.2982 -0.0333  0.0621
 1225DPPI    C118423   4.509  14.414   5.786  0.0735  0.1288 -0.0272
 1225DPPI    C218424   4.183  14.375   5.558 -0.0308  0.2802  0.0935
 1225DPPI    C318425   4.525  14.505   5.397  0.0703 -0.2137 -0.1108
 1225DPPI   PO418426   4.452  14.473   5.998 -0.2515 -0.2134  0.2073
 1225DPPI   GL118427   4.262  14.685   6.350 -0.0335  0.1140 -0.3416
 1225DPPI   GL218428   3.968  14.809   6.455  0.0295 -0.0275 -0.0714
 1225DPPI   C1A18429   4.571  14.677   6.633 -0.1633 -0.2624  0.1148
 1225DPPI   C2A18430   4.602  14.699   7.049 -0.1918  0.2938  0.1979
 1225DPPI   C3A18431   4.654  14.722   7.492 -0.0218  0.1427 -0.3439
 1225DPPI   C4A18432   4.649  14.738   7.970 -0.1340  0.0140 -0.0031
 1225DPPI   C1B18433   4.152  14.876   6.871  0.3269 -0.2444  0.1435
 1225DPPI   C2B18434   4.226  15.018   7.284 -0.1036 -0.2212 -0.0021
 1225DPPI   C3B18435   4.203  14.975   7.674  0.0112  0.0396  0.2331
 1225DPPI   C4B18436   4.192  14.988   8.101 -0.0391 -0.2914  0.0930
 1226DPPI    C118437   5.695   3.233   5.795 -0.0858 -0.1469  0.1492
 1226DPPI    C218438   5.350   3.404   5.686  0.0137 -0.0956 -0.0928
 1226DPPI    C318439   5.648   3.370   5.422  0.2327 -0.0443  0.1438
 1226DPPI   PO418440   5.661   3.379   6.071 -0.6332 -0.0933 -0.1041
 1226DPPI   GL118441   5.830   3.585   6.416 -0.2730 -0.0430  0.3684
 1226DPPI   GL218442   6.118   3.507   6.432  0.0368  0.0760 -0.1503
 1226DPPI   C1A18443   5.685   3.647   6.878 -0.0184  0.1209  0.0682
 1226DPPI   C2A18444   5.648   3.669   7.356  0.0764 -0.2490  0.2020
 1226DPPI   C3A18445   5.654   3.708   7.755  0.0280  0.3597 -0.0135
 1226DPPI   C4A18446   5.637   3.754   8.120 -0.1108  0.1668  0.0249
 1226DPPI   C1B18447   6.204   3.553   6.815  0.5523 -0.2420 -0.1670
 1226DPPI   C2B18448   6.128   3.660   7.261 -0.2632  0.0882 -0.1557
 1226DPPI   C3B18449   6.180   3.701   7.650 -0.1430  0.1445  0.2051
 1226DPPI   C4B18450   6.174   3.601   8.040 -0.0604  0.0638  0.1166
 1227DPPI    C118451   8.214   7.340   5.603 -0.0924 -0.2296  0.0646
 1227DPPI    C218452   8.097   7.178   5.256 -0.0210 -0.0050 -0.0662
 1227DPPI    C318453   7.867   7.451   5.437 -0.1171 -0.2121  0.1278
 1227DPPI   PO418454   8.298   7.131   5.767  0.1086 -0.1112  0.0157
 1227DPPI   GL118455   8.337   6.985   6.213  0.2878 -0.0911 -0.1907
 1227DPPI   GL218456   8.270   7.286   6.238 -0.2164  0.1027 -0.0932
 1227DPPI   C1A18457   8.348   6.885   6.648  0.1135 -0.1432  0.0373
 1227DPPI   C2A18458   8.302   6.940   7.120  0.1562  0.2467  0.0955
 1227DPPI   C3A18459   8.198   6.908   7.585 -0.1123  0.0818  0.0471
 1227DPPI   C4A18460   8.274   6.944   8.018 -0.2002 -0.0993 -0.0545
 1227DPPI   C1B18461   8.124   7.390   6.651  0.0907  0.2263 -0.2455
 1227DPPI   C2B18462   8.135   7.500   7.044 -0.1680  0.0066  0.0705
 1227DPPI   C3B18463   7.984   7.393   7.521  0.0093 -0.1267 -0.0077
 1227DPPI   C4B18464   8.094   7.410   7.877 -0.0089  0.1407 -0.0645
 1228PYPI    C118465  13.167   9.018   5.954 -0.2873 -0.0770  0.2083
 1228PYPI    C218466  13.078   8.663   5.793 -0.0292  0.0400 -0.2078
 1228PYPI    C318467  13.042   8.996   5.575  0.0065  0.2411  0.0877
 1228PYPI   PO418468  12.985   9.022   6.224  0.2721  0.1625 -0.3551
 1228PYPI   GL118469  12.606   9.043   6.563 -0.0704  0.0753 -0.1185
 1228PYPI   GL218470  12.482   8.826   6.749  0.2672  0.1048  0.2260
 1228PYPI   C1A18471  12.841   9.179   7.026  0.0485 -0.1204  0.1138
 1228PYPI   C2A18472  12.791   9.123   7.483  0.0290  0.2173  0.0043
 1228PYPI   D3A18473  12.795   9.056   7.931 -0.2324 -0.1285 -0.3597
 1228PYPI   C4A18474  12.697   9.010   8.311 -0.0217 -0.0225  0.0869
 1228PYPI   C1B18475  12.421   8.715   7.272  0.0872  0.1325 -0.0194
 1228PYPI   C2B18476  12.483   8.633   7.790  0.0818  0.0686 -0.0057
 1228PYPI   C3B18477  12.434   8.552   8.180 -0.1364 -0.0009 -0.1654
 1228PYPI   C4B18478  12.625   8.603   8.678 -0.2001 -0.0676  0.3461
 1229PYPI    C118479   9.079   6.189   5.621 -0.0538 -0.0326 -0.1299
 1229PYPI    C218480   8.876   6.142   5.281  0.1137  0.1543 -0.2582
 1229PYPI    C318481   9.258   6.260   5.270  0.1157  0.1744 -0.0042
 1229PYPI   PO418482   8.958   6.295   5.785 -0.1481  0.0782 -0.0585
 1229PYPI   GL118483   9.091   6.449   6.150  0.2589  0.1714 -0.0614
 1229PYPI   GL218484   9.274   6.662   6.257 -0.0681 -0.1453 -0.1452
 1229PYPI   C1A18485   8.926   6.404   6.572  0.0057 -0.2235  0.0085
 1229PYPI   C2A18486   8.978   6.384   7.029 -0.0510  0.0665 -0.0332
 1229PYPI   D3A18487   8.906   6.336   7.451 -0.1757 -0.1833 -0.0062
 1229PYPI   C4A18488   8.946   6.474   7.902  0.2987  0.0988  0.0345
 1229PYPI   C1B18489   9.330   6.769   6.676  0.1003  0.1157 -0.2281
 1229PYPI   C2B18490   9.306   6.798   7.038  0.2761 -0.0892 -0.5152
 1229PYPI   C3B18491   9.213   6.838   7.488 -0.0761  0.2298  0.0346
 1229PYPI   C4B18492   9.286   6.854   7.956  0.1576 -0.0555  0.1873
 1230PYPI    C118493  10.561   0.842   5.812 -0.0295 -0.0273  0.0424
 1230PYPI    C218494  10.183   0.964   5.772 -0.0757 -0.1266  0.1713
 1230PYPI    C318495  10.299   0.617   5.610 -0.0152 -0.0495  0.0484
 1230PYPI   PO418496  10.682   0.836   6.052 -0.2610  0.3353  0.0978
 1230PYPI   GL118497  10.702   0.666   6.401  0.0356 -0.0155  0.1620
 1230PYPI   GL218498  10.943   0.857   6.545  0.1874  0.2264 -0.2834
 1230PYPI   C1A18499  10.540   0.603   6.780  0.0105  0.1796 -0.2733
 1230PYPI   C2A18500  10.575   0.788   7.161 -0.1099 -0.2679 -0.1284
 1230PYPI   D3A18501  10.561   0.725   7.643  0.0385 -0.2381 -0.2076
 1230PYPI   C4A18502  10.665   0.620   8.046 -0.0590 -0.1564 -0.0281
 1230PYPI   C1B18503  11.095   0.578   6.843  0.1419  0.0009 -0.1885
 1230PYPI   C2B18504  11.054   0.559   7.232  0.0743  0.3666 -0.0937
 1230PYPI   C3B18505  11.086   0.624   7.647  0.0040  0.4081 -0.1792
 1230PYPI   C4B18506  11.123   0.466   7.997 -0.2764  0.1732 -0.0943
 1231PYPI    C118507   1.898  11.017   6.331  0.0616  0.0413  0.1449
 1231PYPI    C218508   1.668  11.208   6.065  0.0553 -0.1954 -0.0229
 1231PYPI    C318509   2.057  11.296   6.093  0.0483 -0.1447 -0.0860
 1231PYPI   PO418510   1.753  10.954   6.497 -0.0342 -0.0158  0.0250
 1231PYPI   GL118511   1.755  10.769   6.888  0.0743 -0.1385  0.2207
 1231PYPI   GL218512   1.815  10.403   6.944  0.2407 -0.0291  0.4113
 1231PYPI   C1A18513   1.932  10.757   7.313 -0.1946 -0.0067  0.1529
 1231PYPI   C2A18514   1.947  10.775   7.811 -0.1012  0.0596  0.0571
 1231PYPI   D3A18515   2.015  10.834   8.160  0.1190  0.0934 -0.0302
 1231PYPI   C4A18516   2.170  10.584   8.442  0.4987  0.0273 -0.4873
 1231PYPI   C1B18517   1.734  10.307   7.304 -0.1265  0.1756 -0.1993
 1231PYPI   C2B18518   1.755  10.293   7.776  0.2405 -0.0243  0.1486
 1231PYPI   C3B18519   1.773  10.300   8.246 -0.0796 -0.4539 -0.2501
 1231PYPI   C4B18520   1.599  10.271   8.677 -0.2160 -0.0894  0.3130
 1232PYPI    C118521   3.845  16.938   6.102  0.1275 -0.0700 -0.0534
 1232PYPI    C218522   3.748  16.554   6.156  0.1752 -0.0856 -0.0794
 1232PYPI    C318523   3.913  16.672   5.811  0.2185 -0.0531 -0.0477
 1232PYPI   PO418524   3.958  16.997   6.325  0.0356  0.0841  0.2209
 1232PYPI   GL118525   4.032  16.714   6.642  0.0271 -0.2907 -0.0443
 1232PYPI   GL218526   4.371  16.742   6.789 -0.0433  0.1620 -0.0582
 1232PYPI   C1A18527   3.945  16.797   7.071 -0.0157 -0.1577 -0.2503
 1232PYPI   C2A18528   4.131  16.959   7.364  0.1530 -0.0206 -0.1115
 1232PYPI   D3A18529   4.269  16.993   7.747  0.0299 -0.0346 -0.0266
 1232PYPI   C4A18530   4.469  17.301   7.916 -0.3424  0.2161 -0.1408
 1232PYPI   C1B18531   4.476  16.630   7.186  0.0127  0.1597 -0.1273
 1232PYPI   C2B18532   4.258  16.504   7.581  0.1788 -0.1679  0.1868
 1232PYPI   C3B18533   4.342  16.509   7.992 -0.2723  0.0272 -0.1339
 1232PYPI   C4B18534   4.150  16.345   8.383 -0.1239 -0.1079  0.1966
 1233PYPI    C118535  10.158  14.522   6.257  0.2231  0.1325  0.0011
 1233PYPI    C218536  10.045  14.237   6.001 -0.0174  0.1352  0.1013
 1233PYPI    C318537  10.233  14.563   5.867  0.0418  0.0420 -0.0448
 1233PYPI   PO418538   9.962  14.474   6.446  0.3031  0.1606 -0.0099
 1233PYPI   GL118539   9.929  14.731   6.759  0.2507 -0.0613  0.0259
 1233PYPI   GL218540  10.221  14.891   6.706  0.0120 -0.0024 -0.0288
 1233PYPI   C1A18541  10.071  14.767   7.207 -0.2582 -0.0315 -0.2283
 1233PYPI   C2A18542  10.012  14.805   7.730 -0.2013  0.0468  0.1747
 1233PYPI   D3A18543  10.070  14.720   8.164 -0.1897  0.1051  0.0806
 1233PYPI   C4A18544  10.498  14.635   8.355 -0.0310 -0.1545  0.1028
 1233PYPI   C1B18545  10.105  15.175   6.964  0.1007 -0.0827  0.2153
 1233PYPI   C2B18546  10.014  15.234   7.418  0.1929  0.0824 -0.0183
 1233PYPI   C3B18547  10.097  15.339   7.830 -0.1893  0.0612 -0.0206
 1233PYPI   C4B18548  10.141  15.491   8.262 -0.2670  0.0280  0.1585
 1234PYPI    C118549  11.392  12.491   5.857 -0.0014  0.0551 -0.0143
 1234PYPI    C218550  11.259  12.114   5.879 -0.2255  0.1310 -0.0438
 1234PYPI    C318551  11.542  12.211   5.614 -0.2102 -0.0041 -0.0775
 1234PYPI   PO418552  11.422  12.527   6.161 -0.0580 -0.1180 -0.2639
 1234PYPI   GL118553  11.445  12.561   6.604  0.1816 -0.0976 -0.2159
 1234PYPI   GL218554  11.534  12.347   6.863 -0.1895 -0.1072  0.0412
 1234PYPI   C1A18555  11.273  12.778   6.997 -0.2462 -0.1294  0.1026
 1234PYPI   C2A18556  11.222  12.779   7.398  0.2330 -0.2530  0.0682
 1234PYPI   D3A18557  11.309  12.765   7.846  0.1590  0.1981  0.0308
 1234PYPI   C4A18558  10.902  12.756   7.989  0.1160  0.1177 -0.0215
 1234PYPI   C1B18559  11.537  12.332   7.293 -0.0686 -0.1449 -0.3562
 1234PYPI   C2B18560  11.507  12.288   7.768  0.2318  0.0794 -0.0724
 1234PYPI   C3B18561  11.490  12.415   8.181  0.1793  0.4384  0.1473
 1234PYPI   C4B18562  11.397  12.409   8.615 -0.1726  0.2210 -0.2098
 1235PYPI    C118563  15.632   2.441   5.798 -0.2677 -0.0425 -0.0112
 1235PYPI    C218564  15.352   2.381   5.518 -0.1200 -0.1590 -0.1358
 1235PYPI    C318565  15.709   2.204   5.485 -0.0623 -0.0841  0.0694
 1235PYPI   PO418566  15.552   2.647   5.980 -0.1506  0.0149  0.1385
 1235PYPI   GL118567  15.643   2.725   6.463  0.1805  0.1062  0.0905
 1235PYPI   GL218568  15.855   2.570   6.595 -0.3082  0.0657 -0.3956
 1235PYPI   C1A18569  15.339   2.668   6.757  0.1470  0.0180 -0.0930
 1235PYPI   C2A18570  15.187   2.644   7.140 -0.2795  0.0026  0.0303
 1235PYPI   D3A18571  15.204   2.761   7.537  0.1394  0.3130  0.0839
 1235PYPI   C4A18572  15.273   2.576   7.940  0.0641 -0.3075  0.1161
 1235PYPI   C1B18573  15.769   2.621   7.041  0.3092  0.3057 -0.0194
 1235PYPI   C2B18574  15.699   2.560   7.500 -0.2604 -0.1646  0.0919
 1235PYPI   C3B18575  15.746   2.570   7.799 -0.0873 -0.3558  0.5442
 1235PYPI   C4B18576  15.748   2.524   8.181 -0.0581 -0.1929 -0.2106
 1236PYPI    C118577  11.587   6.174   5.796 -0.0397 -0.0717 -0.0358
 1236PYPI    C218578  11.714   5.959   5.484 -0.0286 -0.0421 -0.0517
 1236PYPI    C318579  11.703   6.358   5.460 -0.1448 -0.0453 -0.0583
 1236PYPI   PO418580  11.426   5.953   5.986  0.1878  0.0087 -0.0692
 1236PYPI   GL118581  11.268   5.548   6.098  0.0609  0.0658  0.0282
 1236PYPI   GL218582  11.482   5.275   6.215 -0.0898  0.2361 -0.1507
 1236PYPI   C1A18583  11.191   5.648   6.636 -0.1029 -0.0348 -0.0803
 1236PYPI   C2A18584  11.264   5.628   7.056 -0.1029 -0.6229 -0.2228
 1236PYPI   D3A18585  11.275   5.672   7.406  0.1404 -0.0985 -0.1922
 1236PYPI   C4A18586  11.241   5.577   7.774 -0.0041  0.1202  0.3441
 1236PYPI   C1B18587  11.411   5.178   6.621 -0.3264  0.0755  0.2688
 1236PYPI   C2B18588  11.477   5.144   7.093 -0.1979  0.0033 -0.0356
 1236PYPI   C3B18589  11.495   5.173   7.490 -0.1323  0.0856 -0.1667
 1236PYPI   C4B18590  11.400   5.100   7.837 -0.1668  0.0738  0.1938
 1237PYPI    C118591   5.892   6.216   5.502  0.0365  0.0117  0.0093
 1237PYPI    C218592   5.688   6.553   5.432 -0.0157 -0.0116  0.0479
 1237PYPI    C318593   5.703   6.266   5.153 -0.0026  0.0069  0.0296
 1237PYPI   PO418594   6.005   6.337   5.704 -0.2049 -0.1708  0.1871
 1237PYPI   GL118595   5.933   6.115   6.128  0.0064 -0.1577  0.0853
 1237PYPI   GL218596   6.015   6.422   6.361  0.0025 -0.2085  0.0722
 1237PYPI   C1A18597   5.678   6.017   6.553 -0.1181 -0.0385  0.1755
 1237PYPI   C2A18598   5.551   6.004   6.981 -0.1355 -0.1600  0.2061
 1237PYPI   D3A18599   5.760   6.031   7.361  0.1475 -0.1956  0.2201
 1237PYPI   C4A18600   5.605   5.940   7.749 -0.0722  0.1322 -0.2225
 1237PYPI   C1B18601   6.062   6.292   6.708  0.1910 -0.2164 -0.0219
 1237PYPI   C2B18602   6.101   6.390   7.127 -0.1187  0.2255 -0.0213
 1237PYPI   C3B18603   6.030   6.419   7.502  0.1619  0.0954 -0.0328
 1237PYPI   C4B18604   6.010   6.262   7.911  0.2993  0.0167  0.0048
 1238PYPI    C118605   2.413  12.545   6.143  0.0144  0.0830 -0.0079
 1238PYPI    C218606   2.152  12.847   6.128 -0.0974 -0.0070  0.0962
 1238PYPI    C318607   2.085  12.514   5.917 -0.1200 -0.0712  0.2039
 1238PYPI   PO418608   2.489  12.744   6.477 -0.1677  0.1816  0.3404
 1238PYPI   GL118609   2.411  12.714   6.841  0.0680  0.1011  0.0542
 1238PYPI   GL218610   2.065  12.802   6.983 -0.5223 -0.1182 -0.0868
 1238PYPI   C1A18611   2.428  12.537   7.215  0.2379  0.1857 -0.3098
 1238PYPI   C2A18612   2.535  12.663   7.614 -0.1051 -0.0857  0.1258
 1238PYPI   D3A18613   2.794  12.768   8.026 -0.0999 -0.0360 -0.1524
 1238PYPI   C4A18614   2.870  12.698   8.515  0.0438 -0.0097 -0.1714
 1238PYPI   C1B18615   2.248  13.008   7.462  0.0149  0.2278  0.0340
 1238PYPI   C2B18616   2.320  12.984   7.935 -0.2661  0.1373 -0.2124
 1238PYPI   C3B18617   2.016  12.925   8.351 -0.1677 -0.3906  0.2288
 1238PYPI   C4B18618   2.078  12.900   8.859 -0.0076  0.0199  0.0601
 1239PYPI    C118619   2.870   8.499   5.833 -0.0240 -0.0339  0.0111
 1239PYPI    C218620   2.812   8.222   5.551  0.0134  0.0553 -0.0847
 1239PYPI    C318621   2.499   8.377   5.746 -0.0050 -0.0788 -0.0067
 1239PYPI   PO418622   3.040   8.372   6.005  0.1040  0.0380  0.2783
 1239PYPI   GL118623   3.152   8.144   6.380 -0.3484 -0.0776  0.0242
 1239PYPI   GL218624   3.456   8.092   6.439 -0.2153 -0.3026  0.0078
 1239PYPI   C1A18625   2.966   8.000   6.724 -0.1199 -0.0109  0.2450
 1239PYPI   C2A18626   2.967   7.902   7.095 -0.0227  0.0174  0.2303
 1239PYPI   D3A18627   3.083   7.746   7.507  0.2289  0.0694 -0.0931
 1239PYPI   C4A18628   3.176   7.739   7.973  0.2117  0.0136 -0.0915
 1239PYPI   C1B18629   3.426   8.310   6.842  0.1162 -0.5414 -0.1227
 1239PYPI   C2B18630   3.354   8.188   7.184  0.0718 -0.0448 -0.3484
 1239PYPI   C3B18631   3.373   8.202   7.634  0.1376 -0.0065  0.0564
 1239PYPI   C4B18632   3.544   8.134   8.059  0.4312  0.3199 -0.0497
 1240PYPI    C118633   3.936   8.813   5.921  0.0141  0.1347  0.3071
 1240PYPI    C218634   4.027   9.143   5.713 -0.0050 -0.1357 -0.1427
 1240PYPI    C318635   4.317   8.891   5.826 -0.0375 -0.2089 -0.2214
 1240PYPI   PO418636   3.782   8.932   6.165  0.4554  0.0185 -0.0198
 1240PYPI   GL118637   3.818   9.320   6.544  0.2109 -0.0092 -0.1450
 1240PYPI   GL218638   3.585   9.127   6.653  0.0799  0.0413  0.0574
 1240PYPI   C1A18639   3.909   9.552   6.916  0.2177 -0.1003  0.0021
 1240PYPI   C2A18640   3.951   9.486   7.377  0.2463  0.2192 -0.2297
 1240PYPI   D3A18641   3.890   9.389   7.806 -0.1682  0.0465  0.1328
 1240PYPI   C4A18642   4.007   9.380   8.241 -0.0742 -0.1220  0.0697
 1240PYPI   C1B18643   3.655   9.058   7.086 -0.3136  0.2312 -0.2278
 1240PYPI   C2B18644   3.615   9.030   7.532  0.0454 -0.0769 -0.3379
 1240PYPI   C3B18645   3.637   8.963   7.946 -0.2681 -0.0201  0.2792
 1240PYPI   C4B18646   3.659   8.963   8.364  0.0263 -0.1459 -0.1066
 1241PYPI    C118647  15.590   7.132   5.969 -0.1561  0.0924  0.0268
 1241PYPI    C218648  15.278   7.036   5.737  0.1539 -0.1069 -0.3182
 1241PYPI    C318649  15.596   6.794   5.756  0.1512 -0.0788  0.2978
 1241PYPI   PO418650  15.526   7.127   6.205 -0.1807 -0.3124 -0.0727
 1241PYPI   GL118651  15.367   7.007   6.544  0.1721  0.0101  0.0742
 1241PYPI   GL218652  15.009   7.090   6.643  0.0502  0.1208  0.1089
 1241PYPI   C1A18653  15.618   6.814   6.860  0.2022 -0.0017 -0.2832
 1241PYPI   C2A18654  15.594   6.869   7.237 -0.1350  0.1467  0.1319
 1241PYPI   D3A18655  15.587   6.823   7.635 -0.0005  0.0983 -0.1481
 1241PYPI   C4A18656  15.596   6.731   8.033 -0.0414 -0.0111 -0.0356
 1241PYPI   C1B18657  15.112   6.965   7.040 -0.4082 -0.0910  0.1666
 1241PYPI   C2B18658  15.075   6.910   7.502  0.2475 -0.2084  0.2519
 1241PYPI   C3B18659  15.028   6.866   7.926 -0.2227 -0.0220 -0.1360
 1241PYPI   C4B18660  15.135   6.692   8.305 -0.1996  0.1926 -0.1811
 1242PYPI    C118661  12.527  10.454   5.959  0.0097  0.0787 -0.0753
 1242PYPI    C218662  12.285  10.251   5.714  0.0927  0.0054 -0.0972
 1242PYPI    C318663  12.586  10.467   5.564  0.0144  0.1327 -0.0728
 1242PYPI   PO418664  12.554  10.263   6.136  0.0424 -0.0159 -0.2766
 1242PYPI   GL118665  12.447   9.984   6.514  0.3451 -0.2153  0.2464
 1242PYPI   GL218666  12.757   9.955   6.656 -0.0062  0.0508 -0.0671
 1242PYPI   C1A18667  12.402  10.086   6.978  0.1420  0.0139 -0.2868
 1242PYPI   C2A18668  12.384   9.994   7.403 -0.1414 -0.0140 -0.0623
 1242PYPI   D3A18669  12.391  10.012   7.863 -0.1434  0.2239 -0.0033
 1242PYPI   C4A18670  12.396   9.940   8.336  0.0342 -0.0510 -0.0707
 1242PYPI   C1B18671  12.636   9.650   6.935  0.0468  0.0307 -0.1462
 1242PYPI   C2B18672  12.646   9.570   7.354  0.0848  0.2290  0.0536
 1242PYPI   C3B18673  12.532   9.542   7.719 -0.0957 -0.2669 -0.3046
 1242PYPI   C4B18674  12.492   9.441   8.190  0.1448  0.3621  0.1402
 1243PYPI    C118675   8.764   8.384   5.651  0.4155  0.0546 -0.1925
 1243PYPI    C218676   8.547   8.082   5.504  0.1536  0.0349  0.2200
 1243PYPI    C318677   8.804   8.276   5.268  0.1119 -0.3179 -0.1258
 1243PYPI   PO418678   8.483   8.433   5.831 -0.2440  0.1590  0.0797
 1243PYPI   GL118679   8.469   8.317   6.246 -0.0356 -0.1987  0.1989
 1243PYPI   GL218680   8.522   8.592   6.355 -0.1403 -0.0348 -0.0980
 1243PYPI   C1A18681   8.729   8.249   6.575  0.2053  0.0055 -0.0572
 1243PYPI   C2A18682   8.830   8.102   6.958  0.1130 -0.2869 -0.1332
 1243PYPI   D3A18683   8.717   8.179   7.399  0.1935 -0.1581 -0.1226
 1243PYPI   C4A18684   8.657   8.245   7.848  0.1202  0.1585 -0.1437
 1243PYPI   C1B18685   8.587   8.695   6.816 -0.1300 -0.5334 -0.0829
 1243PYPI   C2B18686   8.548   8.614   7.226  0.1194 -0.2003  0.1927
 1243PYPI   C3B18687   8.553   8.707   7.577  0.1904  0.1810 -0.1777
 1243PYPI   C4B18688   8.445   8.705   8.109  0.0303  0.3657  0.3327
 1244PYPI    C118689  16.916   4.868   6.121  0.2072  0.1505 -0.0092
 1244PYPI    C218690  17.301   4.869   6.229  0.2759 -0.1154 -0.2378
 1244PYPI    C318691  17.096   4.526   6.225  0.0218  0.0317 -0.0744
 1244PYPI   PO418692  16.843   5.052   6.312 -0.4097 -0.0532 -0.0897
 1244PYPI   GL118693  16.769   5.220   6.619  0.1320 -0.1316  0.1024
 1244PYPI   GL218694  16.980   5.499   6.832  0.2128 -0.0493  0.3502
 1244PYPI   C1A18695  16.694   5.201   7.151  0.3692  0.2404  0.0043
 1244PYPI   C2A18696  16.726   5.218   7.573 -0.1762  0.1544 -0.0194
 1244PYPI   D3A18697  16.594   5.145   8.004 -0.1741  0.1669  0.3156
 1244PYPI   C4A18698  16.683   5.066   8.389 -0.4445 -0.3495 -0.1766
 1244PYPI   C1B18699  17.003   5.606   7.308 -0.2622 -0.2659 -0.1728
 1244PYPI   C2B18700  16.920   5.654   7.650  0.1584 -0.0451  0.2011
 1244PYPI   C3B18701  16.944   5.525   8.053  0.0030 -0.0322 -0.1605
 1244PYPI   C4B18702  17.029   5.584   8.464  0.1071  0.0878  0.1209
 1245PYPI    C118703  13.076  10.336   6.001  0.0707 -0.0117 -0.2464
 1245PYPI    C218704  13.314  10.655   6.044  0.1808 -0.1142 -0.0817
 1245PYPI    C318705  12.965  10.690   5.852  0.1362  0.1330  0.0404
 1245PYPI   PO418706  13.143  10.268   6.301  0.0896 -0.0771 -0.1196
 1245PYPI   GL118707  13.114  10.280   6.671 -0.2017  0.1186  0.0973
 1245PYPI   GL218708  13.165  10.584   6.741  0.0123  0.0980  0.3155
 1245PYPI   C1A18709  12.987   9.955   7.083 -0.0609 -0.2196 -0.0303
 1245PYPI   C2A18710  12.885   9.983   7.580  0.2637 -0.1099  0.0894
 1245PYPI   D3A18711  12.816   9.836   8.051  0.1488  0.1069 -0.0993
 1245PYPI   C4A18712  12.986   9.878   8.385 -0.0241  0.1411  0.1046
 1245PYPI   C1B18713  13.263  10.414   7.167  0.1976 -0.1300 -0.0958
 1245PYPI   C2B18714  13.204  10.418   7.598  0.2752 -0.0107  0.5245
 1245PYPI   C3B18715  13.071  10.269   7.957  0.0000 -0.0796 -0.1442
 1245PYPI   C4B18716  13.187  10.398   8.283  0.0163  0.4991  0.0163
 1246PYPI    C118717  10.430  13.183   6.296  0.0403 -0.1959  0.0412
 1246PYPI    C218718  10.538  12.995   5.960 -0.1164 -0.0918 -0.0690
 1246PYPI    C318719  10.455  13.386   5.952  0.0760 -0.0451  0.1322
 1246PYPI   PO418720  10.517  13.001   6.488  0.2853 -0.3066  0.2471
 1246PYPI   GL118721  10.595  12.824   6.810 -0.0977 -0.1700 -0.2850
 1246PYPI   GL218722  10.244  12.678   6.754 -0.1847 -0.0212  0.0158
 1246PYPI   C1A18723  10.739  12.855   7.166 -0.0961  0.1236 -0.0889
 1246PYPI   C2A18724  10.655  12.680   7.570 -0.0373  0.1512 -0.1546
 1246PYPI   D3A18725  10.372  12.655   7.917 -0.1611  0.2240 -0.2301
 1246PYPI   C4A18726  10.531  12.762   8.340  0.4602 -0.0470 -0.1492
 1246PYPI   C1B18727  10.249  12.766   7.174 -0.0598  0.2597  0.4172
 1246PYPI   C2B18728  10.098  12.882   7.488  0.5581 -0.0767 -0.1785
 1246PYPI   C3B18729   9.906  12.793   7.936  0.0945  0.0949  0.0005
 1246PYPI   C4B18730  10.027  12.862   8.386 -0.5062 -0.0079 -0.0657
 1247PYPI    C118731  12.296   2.752   5.884 -0.1937 -0.1469 -0.0951
 1247PYPI    C218732  12.648   2.844   5.717 -0.0456 -0.0298  0.2716
 1247PYPI    C318733  12.556   2.462   5.790 -0.1327 -0.0865 -0.1137
 1247PYPI   PO418734  12.242   2.886   6.169 -0.0787  0.1657  0.1090
 1247PYPI   GL118735  12.240   3.221   6.562  0.0644  0.1247 -0.1617
 1247PYPI   GL218736  12.414   3.452   6.513  0.1329 -0.1446  0.0756
 1247PYPI   C1A18737  12.105   3.264   6.933 -0.1357  0.0999 -0.0005
 1247PYPI   C2A18738  12.090   3.195   7.374 -0.4229 -0.0699  0.2202
 1247PYPI   D3A18739  12.175   3.233   7.810 -0.0326 -0.4645 -0.1870
 1247PYPI   C4A18740  12.089   3.067   8.180  0.0107 -0.0249 -0.1073
 1247PYPI   C1B18741  12.466   3.653   6.814  0.0054  0.0892  0.1566
 1247PYPI   C2B18742  12.436   3.577   7.296 -0.1898 -0.0992  0.2491
 1247PYPI   C3B18743  12.525   3.572   7.752 -0.2842  0.2049  0.1699
 1247PYPI   C4B18744  12.460   3.471   8.184  0.0450  0.2652 -0.1012
 1248ERGO   ROH18745  12.885  15.770   6.824  0.2572  0.1090  0.0493
 1248ERGO    R118746  12.769  15.798   7.081  0.0309 -0.0805 -0.0292
 1248ERGO    R218747  12.708  15.580   7.241  0.1537 -0.1881 -0.1297
 1248ERGO    R318748  12.861  15.712   7.423 -0.1293 -0.0567  0.0212
 1248ERGO    R418749  12.682  15.545   7.583 -0.0319 -0.3408 -0.1573
 1248ERGO    R518750  12.711  15.760   7.603 -0.3135 -0.3067 -0.0593
 1248ERGO    C118751  12.811  15.647   7.954 -0.4057 -0.3063 -0.0319
 1248ERGO    C218752  12.947  15.608   8.191 -0.1797 -0.0297  0.1184
 1249ERGO   ROH18753   2.902   2.711   6.434  0.3123  0.2785  0.1306
 1249ERGO    R118754   2.759   2.837   6.644  0.0986  0.1348  0.0770
 1249ERGO    R218755   2.640   2.696   6.848  0.0235 -0.0005 -0.0461
 1249ERGO    R318756   2.787   2.861   7.006 -0.1626  0.0222  0.1038
 1249ERGO    R418757   2.599   2.728   7.190  0.0266 -0.3765 -0.0068
 1249ERGO    R518758   2.629   2.944   7.167 -0.2367 -0.3232  0.2051
 1249ERGO    C118759   2.714   2.903   7.537 -0.1463 -0.5742  0.1568
 1249ERGO    C218760   2.608   2.741   7.852  0.3259  0.0348 -0.0887
 1250ERGO   ROH18761  14.755  10.968   6.659  0.0150 -0.0901 -0.0466
 1250ERGO    R118762  14.894  11.032   6.897  0.0869  0.1773 -0.1575
 1250ERGO    R218763  14.846  11.265   7.039 -0.2235  0.1087 -0.1403
 1250ERGO    R318764  14.808  11.092   7.246  0.2431  0.0468 -0.0958
 1250ERGO    R418765  14.858  11.352   7.373 -0.1381  0.1514 -0.1542
 1250ERGO    R518766  14.964  11.165   7.413  0.2367  0.3430 -0.2147
 1250ERGO    C118767  14.830  11.240   7.762  0.3498  0.1181 -0.1207
 1250ERGO    C218768  14.853  11.213   8.103  0.4023 -0.2087  0.0538
 1251ERGO   ROH18769  14.520   9.694   6.834 -0.2482 -0.1546 -0.0471
 1251ERGO    R118770  14.541   9.842   7.074 -0.0771 -0.0795 -0.1071
 1251ERGO    R218771  14.338   9.854   7.260 -0.0100  0.1155 -0.0434
 1251ERGO    R318772  14.532   9.770   7.431 -0.0055  0.0562 -0.0774
 1251ERGO    R418773  14.321   9.877   7.605  0.0801  0.1697 -0.0422
 1251ERGO    R518774  14.531   9.934   7.607  0.1050  0.0804 -0.0990
 1251ERGO    C118775  14.493   9.811   7.966  0.1367  0.1455 -0.0734
 1251ERGO    C218776  14.469   9.669   8.294  0.3065  0.1314  0.0019
 1252ERGO   ROH18777   0.737  10.346   6.844  0.0058 -0.1430 -0.0115
 1252ERGO    R118778   0.855  10.234   7.075  0.1215 -0.0291 -0.0144
 1252ERGO    R218779   0.922  10.386   7.296 -0.1690  0.0152  0.0468
 1252ERGO    R318780   0.769  10.204   7.428  0.0750 -0.2638 -0.0439
 1252ERGO    R418781   0.996  10.254   7.607 -0.0879  0.1147  0.0702
 1252ERGO    R518782   0.927  10.060   7.535  0.2776 -0.0042  0.0182
 1252ERGO    C118783   0.895  10.006   7.911  0.1885 -0.0893 -0.0012
 1252ERGO    C218784   0.950  10.032   8.235  0.2267  0.1870  0.0172
 1253ERGO   ROH18785  15.000   4.039   6.423 -0.0559  0.0821 -0.1145
 1253ERGO    R118786  15.122   3.929   6.654  0.0103  0.0129 -0.1809
 1253ERGO    R218787  15.260   4.084   6.838  0.0802 -0.0432 -0.1821
 1253ERGO    R318788  15.088   3.970   7.015  0.1262 -0.0774 -0.1603
 1253ERGO    R418789  15.257   4.144   7.178 -0.0546  0.1445 -0.2151
 1253ERGO    R518790  15.221   3.932   7.210  0.1040  0.1357 -0.1050
 1253ERGO    C118791  15.094   4.072   7.542 -0.0900  0.2217 -0.2137
 1253ERGO    C218792  15.171   4.002   7.874 -0.2934  0.1068 -0.0061
 1254ERGO   ROH18793   2.876  12.856   6.806 -0.1700  0.1078 -0.0624
 1254ERGO    R118794   3.007  12.744   7.031 -0.2921 -0.0368 -0.0608
 1254ERGO    R218795   3.215  12.871   7.161 -0.0762 -0.3089 -0.1220
 1254ERGO    R318796   3.057  12.835   7.380 -0.0991 -0.0309 -0.0907
 1254ERGO    R418797   3.325  12.886   7.488 -0.0227 -0.3379 -0.1395
 1254ERGO    R518798   3.197  12.716   7.534 -0.2365 -0.1566 -0.0659
 1254ERGO    C118799   3.241  12.862   7.884 -0.0131 -0.0940 -0.1202
 1254ERGO    C218800   3.266  12.880   8.264  0.1067 -0.2594 -0.0494
 1255ERGO   ROH18801   9.930  13.450   7.093 -0.1140 -0.0022  0.0369
 1255ERGO    R118802  10.011  13.354   7.347  0.0228  0.1653  0.0589
 1255ERGO    R218803  10.061  13.522   7.561 -0.2678  0.2841  0.0432
 1255ERGO    R318804   9.881  13.361   7.686 -0.0243  0.0050  0.0434
 1255ERGO    R418805  10.040  13.477   7.903 -0.0090 -0.0054  0.0244
 1255ERGO    R518806  10.003  13.265   7.868  0.1848 -0.0134 -0.1091
 1255ERGO    C118807   9.860  13.299   8.220  0.3702 -0.4360  0.0137
 1255ERGO    C218808   9.871  13.360   8.477  0.3633 -0.1205  0.3765
 1256ERGO   ROH18809  11.048   7.505   6.644  0.0602 -0.0292  0.0273
 1256ERGO    R118810  11.108   7.597   6.905  0.1304 -0.0258  0.0095
 1256ERGO    R218811  10.916   7.620   7.102  0.1578  0.1116  0.0171
 1256ERGO    R318812  11.089   7.464   7.243  0.0786  0.0344  0.0310
 1256ERGO    R418813  10.883   7.543   7.438  0.1981  0.2884  0.0636
 1256ERGO    R518814  11.098   7.568   7.460  0.2286  0.1259 -0.0161
 1256ERGO    C118815  11.025   7.352   7.765  0.1471  0.3191  0.1037
 1256ERGO    C218816  10.821   7.508   8.022  0.0348 -0.0861  0.2548
 1257ERGO   ROH18817  12.081  12.142   6.775 -0.1661  0.3430 -0.0059
 1257ERGO    R118818  11.995  12.205   7.037 -0.1924  0.0626  0.0568
 1257ERGO    R218819  11.894  12.015   7.211 -0.0687 -0.1533 -0.1003
 1257ERGO    R318820  12.088  12.111   7.376 -0.1172 -0.1781 -0.0292
 1257ERGO    R418821  11.870  12.032   7.555 -0.2111 -0.1010 -0.1126
 1257ERGO    R518822  11.968  12.227   7.547 -0.1620 -0.1269 -0.0962
 1257ERGO    C118823  12.038  12.133   7.910 -0.3395 -0.0938 -0.0529
 1257ERGO    C218824  12.123  12.030   8.253 -0.1503  0.0269  0.1491
 1258ERGO   ROH18825  13.560  15.026   6.761  0.2354 -0.2877 -0.0360
 1258ERGO    R118826  13.540  15.131   7.023  0.2032 -0.1652 -0.0869
 1258ERGO    R218827  13.398  15.006   7.224  0.0912 -0.0203 -0.0716
 1258ERGO    R318828  13.633  15.026   7.359  0.0624 -0.0604 -0.0139
 1258ERGO    R418829  13.427  15.037   7.567  0.0078  0.1251 -0.0767
 1258ERGO    R518830  13.587  15.181   7.535  0.0796  0.0414 -0.0979
 1258ERGO    C118831  13.665  15.074   7.893 -0.0675  0.1719 -0.0254
 1258ERGO    C218832  13.759  15.088   8.225 -0.0487  0.3893 -0.1548
 1259ERGO   ROH18833  14.929  15.835   6.720 -0.1340  0.1961  0.1165
 1259ERGO    R118834  14.794  15.900   6.960 -0.0327  0.1647  0.1820
 1259ERGO    R218835  14.758  15.718   7.165 -0.0096  0.1184  0.1408
 1259ERGO    R318836  14.876  15.912   7.315  0.0923  0.0437  0.1589
 1259ERGO    R418837  14.744  15.737   7.509  0.0024  0.0856  0.1436
 1259ERGO    R518838  14.720  15.953   7.492  0.1120  0.1033  0.1658
 1259ERGO    C118839  14.847  15.930   7.851  0.1053 -0.0035  0.1623
 1259ERGO    C218840  14.923  15.862   8.226  0.2577  0.0656  0.2987
 1260ERGO   ROH18841  15.232  14.843   6.908 -0.1370 -0.0021  0.0994
 1260ERGO    R118842  15.206  14.933   7.175 -0.3335 -0.0517  0.1004
 1260ERGO    R218843  15.050  14.804   7.362 -0.0350 -0.4206  0.1155
 1260ERGO    R318844  15.280  14.803   7.506 -0.0092  0.1122  0.0951
 1260ERGO    R418845  15.068  14.830   7.706 -0.0276 -0.1174  0.0940
 1260ERGO    R518846  15.241  14.960   7.683 -0.2669  0.1801 -0.0246
 1260ERGO    C118847  15.295  14.844   8.042  0.0008  0.5594  0.0625
 1260ERGO    C218848  15.325  14.837   8.418 -0.2203  0.1580  0.0839
 1261ERGO   ROH18849  13.780   1.438  11.180  0.0545  0.0245 -0.2509
 1261ERGO    R118850  13.676   1.358  10.929  0.1370 -0.1694 -0.2258
 1261ERGO    R218851  13.578   1.539  10.745 -0.2228 -0.3414 -0.2145
 1261ERGO    R318852  13.756   1.417  10.579 -0.0381 -0.0396 -0.2441
 1261ERGO    R418853  13.564   1.547  10.399 -0.3160 -0.4013 -0.2124
 1261ERGO    R518854  13.623   1.337  10.397  0.0626 -0.2996 -0.2050
 1261ERGO    C118855  13.723   1.438  10.043 -0.1969 -0.1529 -0.2389
 1261ERGO    C218856  13.766   1.374   9.706  0.1734 -0.0703 -0.0274
 1262ERGO   ROH18857   0.618  12.449   6.757  0.0566  0.0627 -0.0174
 1262ERGO    R118858   0.530  12.371   7.014  0.1697 -0.0809 -0.0204
 1262ERGO    R218859   0.685  12.218   7.184  0.3625  0.0630 -0.0579
 1262ERGO    R318860   0.639  12.422   7.357  0.1480 -0.0141 -0.0249
 1262ERGO    R418861   0.691  12.191   7.529  0.0916 -0.0467 -0.0601
 1262ERGO    R518862   0.518  12.322   7.538  0.0394 -0.1157 -0.1563
 1262ERGO    C118863   0.652  12.367   7.892 -0.2675 -0.1829 -0.0304
 1262ERGO    C218864   0.597  12.308   8.195 -0.0782  0.1416 -0.1940
 1263ERGO   ROH18865  10.297   6.628   6.373  0.1227  0.1491  0.0650
 1263ERGO    R118866  10.403   6.597   6.634  0.0528  0.0305  0.0793
 1263ERGO    R218867  10.392   6.799   6.824  0.0364 -0.0437  0.1540
 1263ERGO    R318868  10.273   6.606   6.974 -0.0295 -0.0843  0.0520
 1263ERGO    R418869  10.387   6.792   7.169 -0.3303  0.0026  0.1538
 1263ERGO    R518870  10.419   6.577   7.161 -0.2117  0.0156  0.2156
 1263ERGO    C118871  10.272   6.607   7.512 -0.6057 -0.0085  0.0578
 1263ERGO    C218872  10.314   6.571   7.931  0.2101 -0.0811 -0.1821
 1264ERGO   ROH18873   4.937  10.702   6.705  0.0288  0.3621  0.0205
 1264ERGO    R118874   5.066  10.691   6.957  0.0499  0.1432  0.0010
 1264ERGO    R218875   5.004  10.863   7.163  0.1765  0.0622  0.1020
 1264ERGO    R318876   4.967  10.632   7.302  0.0562  0.0075 -0.0177
 1264ERGO    R418877   4.991  10.841   7.508  0.2510 -0.1067  0.0951
 1264ERGO    R518878   5.107  10.657   7.495  0.1280 -0.1858 -0.0373
 1264ERGO    C118879   4.949  10.612   7.839  0.1816 -0.2564 -0.0213
 1264ERGO    C218880   4.926  10.651   8.248  0.2160 -0.0923 -0.1746
 1265ERGO   ROH18881   6.551  14.842   6.132  0.0890  0.1268 -0.1802
 1265ERGO    R118882   6.614  14.943   6.388  0.0788 -0.0044 -0.1240
 1265ERGO    R218883   6.428  15.070   6.548  0.0825 -0.0384 -0.0848
 1265ERGO    R318884   6.505  14.884   6.730  0.0229 -0.1431 -0.1666
 1265ERGO    R418885   6.440  15.121   6.889  0.3111 -0.1297 -0.0780
 1265ERGO    R518886   6.627  15.009   6.895  0.2160 -0.2870 -0.2019
 1265ERGO    C118887   6.520  14.977   7.259  0.3884 -0.2810 -0.1507
 1265ERGO    C218888   6.448  15.184   7.576  0.1219 -0.1634 -0.0705
 1266ERGO   ROH18889  15.764  15.802   6.497  0.2249  0.1129  0.0173
 1266ERGO    R118890  15.739  15.700   6.759  0.1175  0.1053  0.0041
 1266ERGO    R218891  15.955  15.607   6.904  0.0472  0.0418  0.0644
 1266ERGO    R318892  15.866  15.785   7.090  0.0380  0.0530  0.0497
 1266ERGO    R418893  15.987  15.569   7.246  0.0541  0.0665  0.0668
 1266ERGO    R518894  15.786  15.649   7.269  0.0464  0.0587  0.0612
 1266ERGO    C118895  15.922  15.714   7.619  0.0494  0.0915  0.0543
 1266ERGO    C218896  15.922  15.644   8.004  0.1061 -0.1878  0.2091
 1267ERGO   ROH18897  11.608   9.232   6.593  0.1676 -0.0035  0.0483
 1267ERGO    R118898  11.744   9.256   6.840  0.2164 -0.1352  0.0354
 1267ERGO    R218899  11.653   9.420   7.045  0.5100  0.1311 -0.0391
 1267ERGO    R318900  11.669   9.191   7.190  0.0929  0.1609  0.0672
 1267ERGO    R418901  11.666   9.405   7.390  0.2383  0.2449 -0.0214
 1267ERGO    R518902  11.814   9.246   7.373  0.0377  0.0343  0.1499
 1267ERGO    C118903  11.689   9.182   7.727 -0.3113  0.3391  0.0887
 1267ERGO    C218904  11.646   9.215   8.068 -0.3474 -0.0553  0.1868
 1268ERGO   ROH18905   4.373   8.504   6.630 -0.0171 -0.0396 -0.0323
 1268ERGO    R118906   4.252   8.510   6.886  0.0182  0.0113 -0.0171
 1268ERGO    R218907   4.255   8.292   7.058 -0.0177  0.0242 -0.0037
 1268ERGO    R318908   4.362   8.472   7.231  0.0521  0.0069 -0.0275
 1268ERGO    R418909   4.246   8.266   7.402  0.0568  0.0190 -0.0016
 1268ERGO    R518910   4.208   8.479   7.413  0.0926  0.0281  0.0091
 1268ERGO    C118911   4.341   8.419   7.765  0.1657 -0.0004 -0.0228
 1268ERGO    C218912   4.408   8.521   8.152 -0.1298 -0.1018  0.0936
 1269ERGO   ROH18913   5.732  17.117   6.727  0.0933  0.0006 -0.0783
 1269ERGO    R118914   5.737  17.070   7.006 -0.0545 -0.0617 -0.0842
 1269ERGO    R218915   5.847  17.250   7.185 -0.0212 -0.1646  0.0026
 1269ERGO    R318916   5.604  17.231   7.304 -0.0845 -0.0421 -0.1080
 1269ERGO    R418917   5.787  17.311   7.520 -0.1219 -0.2069 -0.0089
 1269ERGO    R518918   5.651  17.140   7.521 -0.2308 -0.1244 -0.1087
 1269ERGO    C118919   5.523  17.329   7.826 -0.2400 -0.1166 -0.1193
 1269ERGO    C218920   5.555  17.487   8.135 -0.0194  0.0970 -0.0466
 1270ERGO   ROH18921   0.890  13.409   6.807 -0.2866 -0.0201  0.0074
 1270ERGO    R118922   0.790  13.408   7.072 -0.1879 -0.0556  0.0456
 1270ERGO    R218923   0.914  13.271   7.278 -0.0736 -0.0311 -0.0024
 1270ERGO    R318924   0.908  13.514   7.400 -0.0920 -0.0355  0.0040
 1270ERGO    R418925   0.935  13.321   7.619 -0.1102 -0.0363  0.0000
 1270ERGO    R518926   0.783  13.477   7.601 -0.1100 -0.0414 -0.0108
 1270ERGO    C118927   0.941  13.578   7.933 -0.1488 -0.0435  0.0075
 1270ERGO    C218928   0.966  13.608   8.305  0.0815 -0.0186  0.0024
 1271ERGO   ROH18929  14.328   2.199   6.736 -0.0757  0.2239  0.0094
 1271ERGO    R118930  14.379   2.350   6.969 -0.0449  0.0288  0.1317
 1271ERGO    R218931  14.214   2.342   7.190  0.0305 -0.2187  0.1781
 1271ERGO    R318932  14.445   2.282   7.320  0.0897 -0.2678  0.0526
 1271ERGO    R418933  14.250   2.336   7.534  0.2187 -0.1798  0.1597
 1271ERGO    R518934  14.446   2.429   7.509  0.2366 -0.2377  0.0332
 1271ERGO    C118935  14.489   2.276   7.856  0.3839 -0.2032  0.0312
 1271ERGO    C218936  14.334   2.300   8.264 -0.1290 -0.1700 -0.2625
 1272ERGO   ROH18937  11.707   1.617   6.523  0.2504 -0.1183  0.0038
 1272ERGO    R118938  11.648   1.476   6.761 -0.0022  0.0820  0.0652
 1272ERGO    R218939  11.843   1.344   6.908 -0.2472 -0.3286  0.0404
 1272ERGO    R318940  11.746   1.497   7.111  0.1634 -0.0328  0.0258
 1272ERGO    R418941  11.848   1.256   7.242 -0.3429 -0.2272  0.0695
 1272ERGO    R518942  11.649   1.340   7.263 -0.1513  0.2386  0.1110
 1272ERGO    C118943  11.761   1.348   7.627 -0.0132  0.1096  0.0727
 1272ERGO    C218944  11.838   1.316   7.996 -0.3795 -0.3984 -0.2212
 1273ERGO   ROH18945   8.726   3.404   6.418  0.0120  0.2235  0.0312
 1273ERGO    R118946   8.721   3.283   6.674 -0.0155  0.1486 -0.0061
 1273ERGO    R218947   8.922   3.319   6.860 -0.0692  0.1464  0.0441
 1273ERGO    R318948   8.716   3.396   7.020 -0.1235  0.0461  0.0286
 1273ERGO    R418949   8.926   3.310   7.206  0.0108  0.3998  0.0535
 1273ERGO    R518950   8.719   3.240   7.201  0.0783  0.1754  0.1435
 1273ERGO    C118951   8.734   3.378   7.556  0.0064  0.4532  0.0445
 1273ERGO    C218952   8.711   3.231   7.775 -0.0719 -0.0041 -0.1503
 1274ERGO   ROH18953  10.142   0.196  10.927 -0.1702 -0.0708 -0.0184
 1274ERGO    R118954  10.235   0.140  10.666 -0.0565 -0.1125  0.0315
 1274ERGO    R218955  10.127  -0.061  10.510 -0.0592 -0.0638 -0.0198
 1274ERGO    R318956  10.095   0.140  10.330  0.1234 -0.0551 -0.0460
 1274ERGO    R418957  10.193  -0.086  10.171 -0.0302 -0.1620 -0.0078
 1274ERGO    R518958  10.279   0.114  10.178  0.1302 -0.2221 -0.0176
 1274ERGO    C118959  10.202   0.088   9.805  0.1580 -0.2111 -0.0253
 1274ERGO    C218960  10.297   0.007   9.522  0.1948  0.1411 -0.0768
 1275ERGO   ROH18961   7.417   4.293   6.334  0.1934 -0.0603 -0.0684
 1275ERGO    R118962   7.467   4.362   6.603  0.2265 -0.1617 -0.0473
 1275ERGO    R218963   7.283   4.495   6.761  0.3818  0.1163 -0.0857
 1275ERGO    R318964   7.322   4.285   6.928  0.0091  0.0317 -0.0969
 1275ERGO    R418965   7.324   4.520   7.103  0.4516  0.0219 -0.0878
 1275ERGO    R518966   7.478   4.366   7.090  0.1719 -0.2615 -0.1034
 1275ERGO    C118967   7.385   4.337   7.459  0.1425 -0.1125 -0.0995
 1275ERGO    C218968   7.322   4.396   7.776 -0.0315 -0.1983 -0.1092
 1276ERGO   ROH18969   6.634   1.806   6.486 -0.1699 -0.0247  0.2178
 1276ERGO    R118970   6.747   1.861   6.740 -0.1899  0.0132  0.2172
 1276ERGO    R218971   6.720   2.106   6.864 -0.2474  0.0084  0.2017
 1276ERGO    R318972   6.624   1.956   7.069 -0.2160  0.0025  0.2121
 1276ERGO    R418973   6.775   2.171   7.199 -0.2058  0.0188  0.1938
 1276ERGO    R518974   6.800   1.957   7.231 -0.1904  0.0147  0.1904
 1276ERGO    C118975   6.717   2.067   7.587 -0.1522  0.0192  0.1989
 1276ERGO    C218976   6.824   2.230   7.877 -0.1174 -0.0409 -0.0353
 1277ERGO   ROH18977  16.117   6.150   6.808  0.0909 -0.1448 -0.1135
 1277ERGO    R118978  16.258   6.090   7.046  0.1207  0.0456 -0.0812
 1277ERGO    R218979  16.316   6.281   7.237 -0.1310  0.1381 -0.0927
 1277ERGO    R318980  16.192   6.105   7.404  0.0398  0.0138 -0.0948
 1277ERGO    R418981  16.372   6.258   7.578 -0.1353  0.2162 -0.0870
 1277ERGO    R518982  16.362   6.041   7.560  0.0964  0.2024 -0.0769
 1277ERGO    C118983  16.289   6.080   7.932  0.0226  0.1450 -0.0857
 1277ERGO    C218984  16.287   6.108   8.285 -0.0057 -0.0573  0.0641
 1278ERGO   ROH18985  15.927   7.644   6.723 -0.0697  0.4926 -0.1520
 1278ERGO    R118986  15.926   7.704   7.000 -0.0177  0.5371 -0.1616
 1278ERGO    R218987  15.713   7.826   7.125 -0.2011  0.1160 -0.0509
 1278ERGO    R318988  15.727   7.611   7.290  0.3519  0.1647 -0.0146
 1278ERGO    R418989  15.667   7.836   7.467 -0.5365  0.0351 -0.0895
 1278ERGO    R518990  15.831   7.695   7.488 -0.0760  0.5487  0.0698
 1278ERGO    C118991  15.654   7.640   7.822 -0.2127  0.0338 -0.0779
 1278ERGO    C218992  15.673   7.534   8.185 -0.0052 -0.1948  0.1200
 1279ERGO   ROH18993   4.852  14.383   6.326  0.0727 -0.2351  0.0329
 1279ERGO    R118994   4.998  14.330   6.563 -0.0085 -0.2128  0.0866
 1279ERGO    R218995   5.111  14.531   6.716  0.0123 -0.2092  0.0526
 1279ERGO    R318996   4.969  14.415   6.915 -0.0721 -0.1025  0.0578
 1279ERGO    R418997   5.183  14.559   7.053  0.0356 -0.2261  0.0502
 1279ERGO    R518998   5.133  14.349   7.076 -0.1076 -0.2009  0.0637
 1279ERGO    C118999   5.090  14.466   7.436 -0.0301 -0.1356  0.0538
 1279ERGO    C219000   5.067  14.428   7.819 -0.1383  0.1033  0.0765
 1280ERGO   ROH19001   6.355  15.663   6.398  0.2162  0.3880  0.0410
 1280ERGO    R119002   6.388  15.516   6.637  0.0659  0.2057 -0.0476
 1280ERGO    R219003   6.599  15.559   6.811  0.0569 -0.0464  0.0329
 1280ERGO    R319004   6.400  15.589   6.993  0.0331 -0.0376  0.0047
 1280ERGO    R419005   6.647  15.606   7.149  0.0106  0.0715  0.0229
 1280ERGO    R519006   6.479  15.473   7.187  0.0411  0.0437  0.0484
 1280ERGO    C119007   6.488  15.662   7.518 -0.0386  0.1484 -0.0093
 1280ERGO    C219008   6.502  15.675   7.784 -0.1185 -0.2187 -0.1202
 1281ERGO   ROH19009   4.130   3.566   6.446  0.2501 -0.0691 -0.1077
 1281ERGO    R119010   4.176   3.399   6.671  0.1570 -0.1088 -0.1184
 1281ERGO    R219011   4.379   3.447   6.853  0.1268 -0.1859 -0.0681
 1281ERGO    R319012   4.176   3.437   7.033  0.0872 -0.1571 -0.1135
 1281ERGO    R419013   4.419   3.452   7.196  0.0450 -0.0737 -0.0589
 1281ERGO    R519014   4.261   3.302   7.211  0.0628 -0.0894 -0.0505
 1281ERGO    C119015   4.251   3.445   7.565 -0.0399  0.0186 -0.0962
 1281ERGO    C219016   4.378   3.551   7.886 -0.1226 -0.2274  0.2393
 1282ERGO   ROH19017   7.581  16.551   6.597 -0.0939 -0.1757  0.0003
 1282ERGO    R119018   7.473  16.471   6.846 -0.0414 -0.1792  0.0220
 1282ERGO    R219019   7.629  16.374   7.053  0.0155 -0.0757  0.0273
 1282ERGO    R319020   7.507  16.572   7.194 -0.0599 -0.1036  0.0023
 1282ERGO    R419021   7.651  16.414   7.395  0.1501  0.0813  0.0017
 1282ERGO    R519022   7.439  16.466   7.398  0.1124 -0.0700  0.0794
 1282ERGO    C119023   7.550  16.623   7.728  0.1575  0.1463 -0.0366
 1282ERGO    C219024   7.517  16.688   8.170  0.3188 -0.1037 -0.2473
 1283ERGO   ROH19025   2.239  10.143   6.801  0.0217 -0.2531  0.0137
 1283ERGO    R119026   2.336  10.185   7.063  0.0027 -0.2427  0.0193
 1283ERGO    R219027   2.220  10.366   7.238  0.0767 -0.1323 -0.0443
 1283ERGO    R319028   2.206  10.150   7.401 -0.0739 -0.0845  0.0073
 1283ERGO    R419029   2.229  10.378   7.583 -0.0652 -0.0463 -0.0428
 1283ERGO    R519030   2.355  10.201   7.581 -0.1308 -0.0945  0.0573
 1283ERGO    C119031   2.221  10.181   7.938 -0.2892  0.0485  0.0066
 1283ERGO    C219032   2.254  10.109   8.323  0.0876 -0.2167  0.1584
 1284ERGO   ROH19033  13.422   1.947   6.712  0.0208 -0.0158 -0.1108
 1284ERGO    R119034  13.539   1.992   6.966 -0.1294  0.3011 -0.0923
 1284ERGO    R219035  13.414   2.139   7.164 -0.5765 -0.0485 -0.0975
 1284ERGO    R319036  13.458   1.915   7.312  0.0324  0.0466 -0.1087
 1284ERGO    R419037  13.458   2.135   7.506 -0.5313  0.0518 -0.1019
 1284ERGO    R519038  13.614   1.985   7.480 -0.1268  0.4570 -0.1210
 1284ERGO    C119039  13.525   1.922   7.845  0.0667  0.1996 -0.1149
 1284ERGO    C219040  13.565   2.018   8.194  0.0832 -0.2386 -0.1588
 1285ERGO   ROH19041   0.712   4.546   6.779  0.0548  0.1659  0.0368
 1285ERGO    R119042   0.559   4.613   7.007  0.0061  0.0445  0.0403
 1285ERGO    R219043   0.480   4.425   7.194  0.0477 -0.0393 -0.0261
 1285ERGO    R319044   0.600   4.595   7.368 -0.0293 -0.0520  0.0399
 1285ERGO    R419045   0.460   4.401   7.538 -0.0008 -0.1397 -0.0355
 1285ERGO    R519046   0.442   4.618   7.547 -0.0650 -0.1469  0.0213
 1285ERGO    C119047   0.562   4.546   7.902 -0.1013 -0.2101  0.0210
 1285ERGO    C219048   0.593   4.601   8.298  0.0357 -0.0111 -0.0277
 1286ERGO   ROH19049   2.700   1.707   6.566  0.0470  0.0146  0.0060
 1286ERGO    R119050   2.685   1.516   6.775  0.1575  0.0311  0.0287
 1286ERGO    R219051   2.866   1.509   6.984  0.0875  0.2424  0.0954
 1286ERGO    R319052   2.642   1.522   7.136  0.0168  0.0431  0.0133
 1286ERGO    R419053   2.854   1.447   7.323  0.0356  0.2960  0.1040
 1286ERGO    R519054   2.666   1.343   7.293  0.1485  0.0941  0.0564
 1286ERGO    C119055   2.636   1.424   7.664 -0.0610  0.1401  0.0318
 1286ERGO    C219056   2.714   1.383   7.946 -0.1483 -0.0573 -0.0243
 1287ERGO   ROH19057   3.308  13.892   6.746  0.1944 -0.1042  0.1030
 1287ERGO    R119058   3.172  13.923   6.992  0.1148 -0.0928  0.0574
 1287ERGO    R219059   3.219  13.759   7.209  0.1213 -0.0145  0.1115
 1287ERGO    R319060   3.263  13.994   7.337 -0.0104  0.0366  0.0655
 1287ERGO    R419061   3.221  13.799   7.552  0.1880  0.0287  0.1066
 1287ERGO    R519062   3.115  13.988   7.526  0.0433 -0.0467  0.1087
 1287ERGO    C119063   3.264  14.043   7.873  0.1031  0.1018  0.0605
 1287ERGO    C219064   3.272  14.050   8.299 -0.2135  0.0693  0.0543
 1288ERGO   ROH19065   9.721  11.919   6.905 -0.1233 -0.1947 -0.0833
 1288ERGO    R119066   9.531  11.964   7.111 -0.0560 -0.2669 -0.0046
 1288ERGO    R219067   9.514  11.802   7.334  0.2561 -0.1381  0.1224
 1288ERGO    R319068   9.541  12.037   7.468  0.0720 -0.0109 -0.0591
 1288ERGO    R419069   9.454  11.845   7.672  0.0834  0.1177  0.0619
 1288ERGO    R519070   9.361  12.037   7.626  0.0033  0.0298 -0.1394
 1288ERGO    C119071   9.445  12.091   7.994 -0.1900  0.3860 -0.1435
 1288ERGO    C219072   9.453  12.000   8.250  0.0073 -0.2829  0.2897
 1289ERGO   ROH19073   7.428   1.011   6.677  0.1667  0.0599 -0.0175
 1289ERGO    R119074   7.508   0.865   6.906 -0.2347 -0.0370  0.0671
 1289ERGO    R219075   7.702   0.956   7.080  0.0103 -0.4548  0.0182
 1289ERGO    R319076   7.507   0.917   7.266 -0.1164  0.1674  0.0411
 1289ERGO    R419077   7.760   0.895   7.415 -0.1227 -0.7627 -0.0112
 1289ERGO    R519078   7.598   0.748   7.411 -0.6609 -0.2154 -0.0275
 1289ERGO    C119079   7.611   0.822   7.785 -0.3192 -0.3578 -0.0068
 1289ERGO    C219080   7.674   0.926   8.141 -0.0002 -0.0215 -0.1524
 1290ERGO   ROH19081  15.783   6.259   6.547 -0.0291 -0.0627  0.0958
 1290ERGO    R119082  15.703   6.322   6.811  0.0449  0.0963  0.0831
 1290ERGO    R219083  15.617   6.129   6.990 -0.2476  0.2406  0.1127
 1290ERGO    R319084  15.811   6.235   7.147 -0.0936 -0.0135  0.0989
 1290ERGO    R419085  15.616   6.125   7.336 -0.1542  0.1394  0.1117
 1290ERGO    R519086  15.693   6.328   7.333  0.0594  0.0550  0.1578
 1290ERGO    C119087  15.798   6.222   7.684  0.0448 -0.1581  0.0982
 1290ERGO    C219088  15.794   6.257   7.990  0.0558 -0.3801  0.1765
 1291ERGO   ROH19089  12.558   2.265   6.627  0.0296  0.1629 -0.0941
 1291ERGO    R119090  12.455   2.340   6.879  0.2434  0.1605 -0.0052
 1291ERGO    R219091  12.308   2.167   7.037  0.0779  0.2718 -0.0480
 1291ERGO    R319092  12.494   2.231   7.224  0.2459 -0.0920 -0.0810
 1291ERGO    R419093  12.276   2.105   7.375 -0.0370  0.4018 -0.0328
 1291ERGO    R519094  12.365   2.300   7.415  0.3997  0.2313 -0.0807
 1291ERGO    C119095  12.432   2.128   7.749  0.0538  0.1359 -0.0550
 1291ERGO    C219096  12.472   2.076   8.083 -0.1179 -0.1084  0.0462
 1292ERGO   ROH19097  12.992   8.798   6.745  0.1849 -0.2369 -0.0074
 1292ERGO    R119098  12.893   8.709   6.995  0.0065 -0.1903 -0.0589
 1292ERGO    R219099  13.025   8.521   7.149 -0.1464 -0.2289  0.0320
 1292ERGO    R319100  13.007   8.712   7.341 -0.1944 -0.2102  0.0083
 1292ERGO    R419101  12.998   8.458   7.487  0.0534 -0.1900  0.0554
 1292ERGO    R519102  12.854   8.621   7.501 -0.0556 -0.2915  0.0939
 1292ERGO    C119103  12.967   8.601   7.865  0.1246 -0.1498  0.0468
 1292ERGO    C219104  13.011   8.628   8.162 -0.2605 -0.1338  0.2755
 1293ERGO   ROH19105   2.984  15.901   6.579 -0.0622 -0.5538  0.0742
 1293ERGO    R119106   2.865  15.995   6.819  0.1821 -0.0266  0.0029
 1293ERGO    R219107   2.763  15.824   7.011 -0.2652  0.3952  0.1515
 1293ERGO    R319108   2.930  15.962   7.175  0.1120  0.1137  0.0339
 1293ERGO    R419109   2.758  15.809   7.356 -0.0203  0.3460  0.1553
 1293ERGO    R519110   2.793  16.024   7.361  0.3401  0.3162  0.1579
 1293ERGO    C119111   2.912  15.930   7.711  0.4764  0.0530  0.0473
 1293ERGO    C219112   2.964  15.731   8.107  0.1725 -0.1243 -0.0711
 1294ERGO   ROH19113  14.682  14.123   6.660  0.1417  0.0529 -0.0182
 1294ERGO    R119114  14.549  14.077   6.906  0.0420  0.1167 -0.0587
 1294ERGO    R219115  14.641  13.896   7.093 -0.1322  0.0293 -0.0525
 1294ERGO    R319116  14.628  14.110   7.259 -0.0282  0.0231 -0.0335
 1294ERGO    R419117  14.641  13.877   7.438 -0.0813  0.0013 -0.0538
 1294ERGO    R519118  14.491  14.036   7.441 -0.0262  0.0565 -0.0164
 1294ERGO    C119119  14.629  14.067   7.795  0.0458 -0.0209 -0.0367
 1294ERGO    C219120  14.698  13.966   8.039  0.2000  0.0502  0.0600
 1295ERGO   ROH19121   9.559  14.357   6.724  0.0630 -0.0622  0.1107
 1295ERGO    R119122   9.537  14.327   7.005  0.1169 -0.1330  0.1080
 1295ERGO    R219123   9.738  14.402   7.179  0.0602  0.0349  0.1036
 1295ERGO    R319124   9.539  14.546   7.295 -0.0730 -0.1794  0.1456
 1295ERGO    R419125   9.696  14.442   7.520  0.1117  0.0161  0.1118
 1295ERGO    R519126   9.481  14.421   7.490  0.1245 -0.2306  0.1737
 1295ERGO    C119127   9.484  14.600   7.827  0.0168 -0.1962  0.1561
 1295ERGO    C219128   9.591  14.710   8.086  0.1728  0.1714  0.2053
 1296ERGO   ROH19129   3.174   5.082   6.490 -0.0018 -0.0718  0.0423
 1296ERGO    R119130   3.165   4.961   6.746  0.0185 -0.0468  0.0565
 1296ERGO    R219131   3.374   4.978   6.925  0.0871 -0.1273 -0.0005
 1296ERGO    R319132   3.182   5.073   7.092  0.1746 -0.0181  0.0374
 1296ERGO    R419133   3.390   4.966   7.270  0.0993 -0.1865 -0.0040
 1296ERGO    R519134   3.177   4.915   7.272  0.0733 -0.0328  0.0117
 1296ERGO    C119135   3.218   5.047   7.628  0.1886 -0.1185  0.0296
 1296ERGO    C219136   3.249   5.053   8.013  0.0816  0.1018 -0.4078
 1297ERGO   ROH19137   2.059   6.568   6.405  0.0426  0.0977 -0.0267
 1297ERGO    R119138   2.071   6.671   6.668 -0.0695  0.0769 -0.0143
 1297ERGO    R219139   1.887   6.603   6.863  0.1152 -0.3033  0.0283
 1297ERGO    R319140   2.109   6.536   7.004  0.2905  0.0898 -0.0449
 1297ERGO    R419141   1.913   6.616   7.207  0.0569 -0.6105  0.0482
 1297ERGO    R519142   2.116   6.694   7.184 -0.1179 -0.0730  0.1323
 1297ERGO    C119143   2.138   6.561   7.540  0.1874 -0.4204 -0.0089
 1297ERGO    C219144   2.171   6.508   7.999  0.0983 -0.2104  0.0193
 1298ERGO   ROH19145  17.234  11.517   7.114  0.0860 -0.2374 -0.1437
 1298ERGO    R119146  17.297  11.386   7.357 -0.1064 -0.1077 -0.0231
 1298ERGO    R219147  17.521  11.449   7.507  0.0131 -0.3308 -0.1195
 1298ERGO    R319148  17.338  11.481   7.706  0.0885  0.1640 -0.1138
 1298ERGO    R419149  17.591  11.432   7.845 -0.0161 -0.6149 -0.1240
 1298ERGO    R519150  17.404  11.324   7.873 -0.3575 -0.0884 -0.1486
 1298ERGO    C119151  17.461  11.452   8.228  0.0376 -0.3157 -0.1215
 1298ERGO    C219152  17.472  11.400   8.542  0.1068 -0.0521  0.3308
 1299ERGO   ROH19153  11.136  11.344   6.575 -0.2794 -0.1566  0.0100
 1299ERGO    R119154  11.137  11.260   6.845 -0.3755 -0.0109  0.0590
 1299ERGO    R219155  11.332  11.339   7.024 -0.1195 -0.3422 -0.0506
 1299ERGO    R319156  11.118  11.419   7.172  0.0986  0.2316 -0.0247
 1299ERGO    R419157  11.321  11.339   7.370 -0.1069 -0.3829 -0.0518
 1299ERGO    R519158  11.115  11.267   7.358 -0.3208  0.1945 -0.0584
 1299ERGO    C119159  11.114  11.415   7.709  0.1052  0.1322 -0.0283
 1299ERGO    C219160  11.233  11.543   7.965 -0.0991  0.0367 -0.1817
 1300ERGO   ROH19161  11.217   8.361   6.801  0.0787  0.2242  0.0251
 1300ERGO    R119162  11.180   8.456   7.065 -0.0299  0.1388  0.0427
 1300ERGO    R219163  10.994   8.348   7.238 -0.0962  0.0728 -0.0611
 1300ERGO    R319164  11.209   8.320   7.401 -0.1556  0.0302  0.0089
 1300ERGO    R419165  10.981   8.345   7.583 -0.1903  0.1681 -0.0639
 1300ERGO    R519166  11.162   8.465   7.586 -0.1474  0.0939 -0.0432
 1300ERGO    C119167  11.175   8.316   7.937 -0.3009  0.1837  0.0002
 1300ERGO    C219168  11.024   8.391   8.248 -0.0862  0.0222 -0.0447
 1301ERGO   ROH19169  10.309   5.336   6.464  0.1400  0.0302 -0.0254
 1301ERGO    R119170  10.337   5.228   6.724  0.0813  0.1187  0.0174
 1301ERGO    R219171  10.536   5.310   6.898  0.1352  0.0686 -0.0226
 1301ERGO    R319172  10.327   5.355   7.065  0.1672  0.2640 -0.0330
 1301ERGO    R419173  10.552   5.293   7.243  0.0983  0.0379 -0.0219
 1301ERGO    R519174  10.357   5.196   7.242  0.0031  0.2258 -0.0378
 1301ERGO    C119175  10.365   5.326   7.601  0.1069  0.2034 -0.0312
 1301ERGO    C219176  10.360   5.387   7.899 -0.2176 -0.1958  0.2225
 1302ERGO   ROH19177   1.740   3.056   6.697  0.0451 -0.0415  0.0077
 1302ERGO    R119178   1.636   3.111   6.954  0.0704  0.0001  0.0090
 1302ERGO    R219179   1.492   2.924   7.100  0.0682  0.0338  0.0469
 1302ERGO    R319180   1.678   2.978   7.291  0.0839  0.0430  0.0239
 1302ERGO    R419181   1.441   2.894   7.440  0.1496 -0.1090  0.0465
 1302ERGO    R519182   1.554   3.078   7.469  0.0786 -0.0732  0.0858
 1302ERGO    C119183   1.585   2.926   7.818  0.2117 -0.1835  0.0248
 1302ERGO    C219184   1.616   2.918   8.136 -0.2664  0.0832 -0.2105
 1303ERGO   ROH19185   5.870   5.648   6.263  0.0965 -0.1171  0.1044
 1303ERGO    R119186   5.817   5.502   6.500  0.0501 -0.0337  0.1465
 1303ERGO    R219187   6.004   5.475   6.703  0.0401 -0.0300  0.1576
 1303ERGO    R319188   5.802   5.573   6.857  0.0663  0.0746  0.1258
 1303ERGO    R419189   5.987   5.448   7.047  0.0771  0.1669  0.1759
 1303ERGO    R519190   5.773   5.409   7.028  0.0720  0.1745  0.2229
 1303ERGO    C119191   5.788   5.524   7.392  0.1231  0.3799  0.1567
 1303ERGO    C219192   5.925   5.436   7.767 -0.0588 -0.2993 -0.2772
 1304ERGO   ROH19193   4.149  17.173   6.763  0.1344  0.0694 -0.0374
 1304ERGO    R119194   4.261  17.248   7.012  0.1100  0.1019 -0.0364
 1304ERGO    R219195   4.278  17.511   7.094 -0.0439  0.1005 -0.0011
 1304ERGO    R319196   4.145  17.417   7.312  0.0319 -0.0105 -0.0016
 1304ERGO    R419197   4.248  17.679   7.395 -0.0510  0.0092  0.0494
 1304ERGO    R519198   4.277  17.489   7.498  0.0409 -0.0097 -0.0067
 1304ERGO    C119199   4.106  17.688   7.775  0.0160 -0.1481  0.0784
 1304ERGO    C219200   3.988  17.657   8.130  0.2335 -0.0321  0.0365
 1305ERGO   ROH19201  12.683   5.849   6.622  0.0297  0.0516  0.0010
 1305ERGO    R119202  12.650   5.954   6.883  0.0107 -0.0159  0.0281
 1305ERGO    R219203  12.461   5.858   7.060 -0.0952  0.0210 -0.0496
 1305ERGO    R319204  12.676   5.829   7.224 -0.1497 -0.1467 -0.0097
 1305ERGO    R419205  12.446   5.853   7.405 -0.1282  0.2253 -0.0479
 1305ERGO    R519206  12.628   5.973   7.410  0.0089  0.0061 -0.0937
 1305ERGO    C119207  12.639   5.822   7.760 -0.1984  0.1868 -0.0094
 1305ERGO    C219208  12.609   5.792   8.091  0.0544  0.2750 -0.0393
 1306ERGO   ROH19209   1.962  16.074   6.543 -0.0364  0.0331  0.0342
 1306ERGO    R119210   1.806  16.060   6.780 -0.0642  0.1427  0.0228
 1306ERGO    R219211   1.851  15.871   6.976 -0.2475  0.0751 -0.0015
 1306ERGO    R319212   1.866  16.089   7.137 -0.0594  0.0402  0.0316
 1306ERGO    R419213   1.865  15.861   7.321 -0.3717  0.0064  0.0021
 1306ERGO    R519214   1.731  16.033   7.327 -0.1881  0.1585 -0.0202
 1306ERGO    C119215   1.887  16.061   7.674 -0.2673 -0.0665  0.0352
 1306ERGO    C219216   1.817  16.116   8.024  0.2685  0.0482 -0.1676
 1307ERGO   ROH19217  10.363  13.300   6.876  0.1149 -0.2850 -0.1513
 1307ERGO    R119218  10.458  13.194   7.121  0.0459 -0.1645 -0.0704
 1307ERGO    R219219  10.610  13.343   7.299  0.0080 -0.0779 -0.1024
 1307ERGO    R319220  10.417  13.268   7.475 -0.0462  0.0218 -0.1205
 1307ERGO    R419221  10.639  13.357   7.643 -0.0211 -0.1086 -0.0993
 1307ERGO    R519222  10.536  13.166   7.655 -0.1238 -0.0482 -0.1138
 1307ERGO    C119223  10.475  13.296   8.009 -0.0888 -0.0327 -0.1144
 1307ERGO    C219224  10.328  13.284   8.368 -0.0390 -0.0448  0.2105
 1308ERGO   ROH19225   7.760   8.976   6.305 -0.0634 -0.2590 -0.0358
 1308ERGO    R119226   7.638   9.022   6.557  0.0696 -0.0945 -0.0003
 1308ERGO    R219227   7.481   8.833   6.683 -0.0331  0.0653  0.1090
 1308ERGO    R319228   7.653   8.874   6.889  0.0778 -0.0182  0.0344
 1308ERGO    R419229   7.411   8.769   7.015  0.0359  0.1945  0.1493
 1308ERGO    R519230   7.515   8.953   7.068  0.1996  0.1313  0.0684
 1308ERGO    C119231   7.532   8.771   7.402  0.1803  0.1915  0.1028
 1308ERGO    C219232   7.529   8.886   7.761  0.1406 -0.0265 -0.1174
 1309ERGO   ROH19233  14.542   4.015   6.482  0.0672  0.2264 -0.1431
 1309ERGO    R119234  14.650   3.997   6.743  0.1145  0.1424 -0.1681
 1309ERGO    R219235  14.755   4.216   6.876  0.1070  0.1058 -0.1035
 1309ERGO    R319236  14.579   4.141   7.069  0.1514  0.0092 -0.0998
 1309ERGO    R419237  14.807   4.251   7.215  0.0787  0.1818 -0.1069
 1309ERGO    R519238  14.716   4.056   7.245  0.2081  0.1214 -0.0869
 1309ERGO    C119239  14.673   4.202   7.595  0.1038  0.1353 -0.1056
 1309ERGO    C219240  14.648   4.017   7.895 -0.0348  0.0166 -0.0999
 1310ERGO   ROH19241  14.256   0.281   6.756  0.1194  0.1472 -0.1391
 1310ERGO    R119242  14.395   0.246   7.001  0.0479  0.0582 -0.1118
 1310ERGO    R219243  14.519   0.454   7.133 -0.0121  0.0120  0.0103
 1310ERGO    R319244  14.366   0.370   7.341 -0.0644 -0.0871 -0.0659
 1310ERGO    R419245  14.582   0.525   7.465 -0.2674  0.1344  0.0361
 1310ERGO    R519246  14.524   0.321   7.515 -0.1161  0.0855  0.0376
 1310ERGO    C119247  14.476   0.488   7.854 -0.4652  0.1126 -0.0203
 1310ERGO    C219248  14.594   0.461   8.272  0.0428 -0.1060 -0.0511
 1311ERGO   ROH19249   6.367   0.575   6.531 -0.0385 -0.0961  0.1306
 1311ERGO    R119250   6.528   0.627   6.758 -0.0754 -0.0914  0.1560
 1311ERGO    R219251   6.550   0.879   6.870  0.0332 -0.0540  0.0520
 1311ERGO    R319252   6.475   0.750   7.096 -0.1094  0.0836  0.0899
 1311ERGO    R419253   6.616   0.988   7.191 -0.1044  0.1092  0.0270
 1311ERGO    R519254   6.658   0.782   7.247 -0.1746  0.1266  0.1637
 1311ERGO    C119255   6.584   0.930   7.591 -0.3183  0.3334  0.0481
 1311ERGO    C219256   6.790   1.064   7.811 -0.0448 -0.0511  0.0726
 1312ERGO   ROH19257  14.013  15.101   6.799  0.1975  0.0386 -0.0429
 1312ERGO    R119258  13.974  14.991   7.057  0.0569  0.0701 -0.0510
 1312ERGO    R219259  14.181  14.889   7.208 -0.0623 -0.1338 -0.0282
 1312ERGO    R319260  14.087  15.063   7.395  0.0819 -0.0482 -0.0327
 1312ERGO    R419261  14.228  14.857   7.549 -0.0101 -0.1200 -0.0334
 1312ERGO    R519262  14.023  14.924   7.579  0.0326  0.0122 -0.0005
 1312ERGO    C119263  14.167  15.002   7.923  0.1556 -0.0318 -0.0407
 1312ERGO    C219264  14.247  15.070   8.216 -0.0853 -0.1367 -0.0673
 1313ERGO   ROH19265  16.506   1.913   6.570  0.1550  0.0596  0.0659
 1313ERGO    R119266  16.399   2.020   6.809  0.0765  0.0261  0.0467
 1313ERGO    R219267  16.296   1.860   7.010  0.0010 -0.0049 -0.0088
 1313ERGO    R319268  16.473   1.998   7.164 -0.0427 -0.0341  0.0665
 1313ERGO    R419269  16.295   1.864   7.356  0.0165 -0.1934 -0.0061
 1313ERGO    R519270  16.341   2.077   7.349 -0.0560 -0.1801  0.1143
 1313ERGO    C119271  16.460   1.995   7.702 -0.0154 -0.3307  0.0662
 1313ERGO    C219272  16.451   1.986   8.058 -0.2720 -0.2132  0.2319
 1314ERGO   ROH19273   0.798   6.462   6.651 -0.2612  0.1546 -0.1474
 1314ERGO    R119274   0.815   6.362   6.915 -0.2152  0.1998 -0.1342
 1314ERGO    R219275   0.984   6.472   7.105 -0.2286  0.2700 -0.1672
 1314ERGO    R319276   0.755   6.491   7.250 -0.2202  0.2348 -0.1477
 1314ERGO    R419277   0.965   6.438   7.448 -0.1830  0.3192 -0.1589
 1314ERGO    R519278   0.780   6.326   7.422 -0.1591  0.2662 -0.1234
 1314ERGO    C119279   0.740   6.436   7.785 -0.1485  0.3149 -0.1358
 1314ERGO    C219280   0.781   6.361   8.113  0.1516 -0.0058  0.1705
 1315ERGO   ROH19281  15.210  12.385   6.859  0.0713 -0.2718  0.0183
 1315ERGO    R119282  15.165  12.514   7.106  0.1077 -0.0966 -0.0646
 1315ERGO    R219283  15.060  12.383   7.326  0.0173  0.0886  0.0072
 1315ERGO    R319284  15.282  12.479   7.449  0.0527  0.0534 -0.0299
 1315ERGO    R419285  15.108  12.394   7.668  0.1593 -0.0946 -0.0052
 1315ERGO    R519286  15.200  12.590   7.644  0.1182 -0.0684  0.0668
 1315ERGO    C119287  15.345  12.491   7.982  0.2752 -0.2342 -0.0472
 1315ERGO    C219288  15.378  12.433   8.332 -0.1962 -0.0989  0.2009
 1316ERGO   ROH19289  10.596  14.764   6.989 -0.1569 -0.0154  0.0812
 1316ERGO    R119290  10.555  14.673   7.254  0.1181 -0.0811  0.1043
 1316ERGO    R219291  10.724  14.740   7.462  0.0802  0.2549  0.0359
 1316ERGO    R319292  10.494  14.824   7.579 -0.0440 -0.1719  0.1164
 1316ERGO    R419293  10.704  14.875   7.779 -0.0032  0.5272 -0.0825
 1316ERGO    R519294  10.520  14.762   7.810  0.2782  0.1114  0.1642
 1316ERGO    C119295  10.476  15.033   8.075 -0.1683  0.2852 -0.0758
 1316ERGO    C219296  10.476  15.141   8.401  0.0698 -0.0312  0.0202
 1317ERGO   ROH19297  13.810   0.293   6.828 -0.1289  0.2045 -0.0768
 1317ERGO    R119298  13.715   0.293   7.095 -0.0671  0.0245 -0.0531
 1317ERGO    R219299  13.682   0.061   7.241 -0.0237 -0.0747 -0.1978
 1317ERGO    R319300  13.840   0.190   7.421  0.0129 -0.1871 -0.1486
 1317ERGO    R419301  13.654   0.031   7.584 -0.3633  0.1844 -0.1981
 1317ERGO    R519302  13.691   0.246   7.600 -0.0649  0.1463 -0.3093
 1317ERGO    C119303  13.786   0.135   7.953 -0.5269  0.2299 -0.1521
 1317ERGO    C219304  13.739   0.080   8.316  0.1417  0.0465  0.1657
 1318ERGO   ROH19305   3.617  12.235   6.691 -0.0136  0.1250  0.0527
 1318ERGO    R119306   3.778  12.161   6.912 -0.0815 -0.0760  0.0391
 1318ERGO    R219307   3.966  12.331   7.022  0.1881 -0.3208 -0.0098
 1318ERGO    R319308   3.831  12.280   7.252  0.1360 -0.0955  0.0107
 1318ERGO    R419309   4.085  12.396   7.340  0.0398  0.1112 -0.0372
 1318ERGO    R519310   4.000  12.207   7.405  0.1027  0.1624  0.1637
 1318ERGO    C119311   4.027  12.386   7.741 -0.0953  0.5740 -0.0339
 1318ERGO    C219312   4.156  12.431   8.158  0.0672 -0.0045 -0.0095
 1319ERGO   ROH19313   2.370  11.459   7.018 -0.3109 -0.0890  0.1255
 1319ERGO    R119314   2.504  11.556   7.247 -0.1382 -0.0089 -0.0073
 1319ERGO    R219315   2.410  11.514   7.504 -0.0338  0.2187  0.0702
 1319ERGO    R319316   2.659  11.413   7.544 -0.0703  0.1030  0.0121
 1319ERGO    R419317   2.568  11.490   7.811 -0.0379 -0.0149  0.0562
 1319ERGO    R519318   2.753  11.550   7.715 -0.0162 -0.0294  0.0900
 1319ERGO    C119319   2.893  11.380   8.026 -0.0746 -0.2595 -0.0064
 1319ERGO    C219320   3.199  11.277   8.112 -0.0207 -0.1312 -0.2560
 1320ERGO   ROH19321   0.290   7.746   6.704  0.1573  0.1563 -0.1686
 1320ERGO    R119322   0.274   7.889   6.948 -0.0119 -0.0689 -0.0437
 1320ERGO    R219323   0.116   7.806   7.159  0.0190 -0.3921 -0.1411
 1320ERGO    R319324   0.349   7.824   7.298 -0.0202 -0.3120 -0.0856
 1320ERGO    R419325   0.139   7.822   7.503 -0.0723 -0.2123 -0.1419
 1320ERGO    R519326   0.297   7.970   7.481 -0.0730 -0.2197 -0.1751
 1320ERGO    C119327   0.371   7.848   7.835 -0.1622 -0.0324 -0.0903
 1320ERGO    C219328   0.412   7.762   8.169  0.0939  0.0032 -0.0118
 1321ERGO   ROH19329  14.077   8.601   6.680 -0.0320  0.0244 -0.0144
 1321ERGO    R119330  13.985   8.492   6.924  0.0182 -0.0752 -0.0375
 1321ERGO    R219331  14.157   8.400   7.121  0.0661 -0.0595 -0.0582
 1321ERGO    R319332  14.016   8.571   7.278  0.0013 -0.1475 -0.0227
 1321ERGO    R419333  14.103   8.359   7.460  0.1254 -0.1014 -0.0551
 1321ERGO    R519334  13.900   8.430   7.431  0.0951 -0.2065 -0.0179
 1321ERGO    C119335  13.940   8.496   7.805  0.0991 -0.2082 -0.0200
 1321ERGO    C219336  13.978   8.323   8.038  0.2415 -0.0271 -0.0938
 1322ERGO   ROH19337  12.775  11.593   7.042 -0.4145 -0.0354  0.0577
 1322ERGO    R119338  12.658  11.486   7.276 -0.1208 -0.1052  0.1770
 1322ERGO    R219339  12.796  11.319   7.449  0.2194  0.1437  0.1582
 1322ERGO    R319340  12.721  11.503   7.634  0.0903  0.1189  0.1315
 1322ERGO    R419341  12.762  11.257   7.787  0.2432  0.1682  0.1652
 1322ERGO    R519342  12.583  11.381   7.787  0.1630  0.0507  0.1409
 1322ERGO    C119343  12.671  11.393   8.158  0.1361  0.1591  0.1442
 1322ERGO    C219344  12.710  11.245   8.403  0.0587 -0.0597  0.0271
 1323ERGO   ROH19345  12.896   6.929   6.692 -0.1045  0.0175  0.0660
 1323ERGO    R119346  12.814   6.946   6.962 -0.2185  0.0530  0.0280
 1323ERGO    R219347  12.627   6.775   7.072  0.0269 -0.1832  0.0686
 1323ERGO    R319348  12.823   6.731   7.256  0.0403  0.2480  0.1694
 1323ERGO    R419349  12.574   6.731   7.411 -0.0955 -0.5271  0.0100
 1323ERGO    R519350  12.751   6.853   7.449 -0.4368 -0.0474  0.1990
 1323ERGO    C119351  12.727   6.664   7.780 -0.1542 -0.3227  0.0705
 1323ERGO    C219352  12.716   6.683   8.134  0.0079 -0.0735 -0.0211
 1324ERGO   ROH19353  16.703   3.905   6.761  0.2270 -0.0232  0.0535
 1324ERGO    R119354  16.616   3.804   7.011 -0.0063 -0.0428 -0.0331
 1324ERGO    R219355  16.790   3.695   7.196 -0.2061 -0.2587  0.0322
 1324ERGO    R319356  16.677   3.879   7.362 -0.1487 -0.2230  0.0318
 1324ERGO    R419357  16.772   3.667   7.540  0.1531 -0.0590  0.0720
 1324ERGO    R519358  16.570   3.748   7.532  0.0948 -0.1830  0.2210
 1324ERGO    C119359  16.656   3.823   7.896  0.4159  0.0908  0.0947
 1324ERGO    C219360  16.719   3.760   8.212 -0.2029  0.0837 -0.1965
 1325ERGO   ROH19361  10.619   9.698   6.769 -0.2155 -0.1606  0.1227
 1325ERGO    R119362  10.404   9.708   6.952 -0.2343 -0.1598  0.1021
 1325ERGO    R219363  10.300   9.482   7.074 -0.1641 -0.1497  0.1931
 1325ERGO    R319364  10.350   9.622   7.302 -0.2263 -0.0316  0.1342
 1325ERGO    R419365  10.167   9.407   7.383 -0.0966 -0.0933  0.2354
 1325ERGO    R519366  10.140   9.620   7.418 -0.2122 -0.0988  0.1511
 1325ERGO    C119367  10.136   9.493   7.778 -0.1156  0.0503  0.2048
 1325ERGO    C219368  10.122   9.320   7.935 -0.2728  0.1012  0.0437
 1326ERGO   ROH19369   8.733   1.721   6.487 -0.2871  0.3529 -0.1294
 1326ERGO    R119370   8.723   1.885   6.717 -0.4106  0.1064  0.0460
 1326ERGO    R219371   8.578   1.817   6.943 -0.1714 -0.3548  0.0713
 1326ERGO    R319372   8.817   1.856   7.068 -0.1512 -0.1069 -0.0375
 1326ERGO    R419373   8.631   1.781   7.282  0.0638 -0.4935  0.0224
 1326ERGO    R519374   8.758   1.958   7.277 -0.1788 -0.3130  0.0581
 1326ERGO    C119375   8.885   1.795   7.598  0.2197 -0.3415 -0.1081
 1326ERGO    C219376   8.930   1.597   7.842  0.2467  0.0345 -0.0308
 1327ERGO   ROH19377  14.352  12.210   6.949 -0.2831 -0.2562  0.1554
 1327ERGO    R119378  14.361  12.124   7.218  0.1372 -0.1797  0.1732
 1327ERGO    R219379  14.569  12.188   7.389  0.0939  0.4426  0.0179
 1327ERGO    R319380  14.368  12.281   7.546 -0.0803 -0.0701  0.1288
 1327ERGO    R419381  14.572  12.187   7.734  0.1806  0.2459  0.0178
 1327ERGO    R519382  14.362  12.129   7.731  0.2873 -0.2028  0.0428
 1327ERGO    C119383  14.384  12.273   8.083  0.0673 -0.3500  0.1217
 1327ERGO    C219384  14.409  12.163   8.393 -0.3153  0.0478 -0.0977
 1328ERGO   ROH19385   6.282   1.567   6.561  0.0639 -0.0136  0.1574
 1328ERGO    R119386   6.306   1.688   6.816 -0.0088  0.0310  0.1435
 1328ERGO    R219387   6.094   1.812   6.943 -0.0622 -0.0062  0.0913
 1328ERGO    R319388   6.157   1.642   7.145 -0.0495  0.0410  0.1268
 1328ERGO    R419389   6.050   1.880   7.279 -0.3518 -0.0556  0.0659
 1328ERGO    R519390   6.242   1.785   7.318 -0.2917  0.1113  0.1918
 1328ERGO    C119391   6.084   1.761   7.664 -0.5085 -0.0401  0.0843
 1328ERGO    C219392   5.857   1.783   7.954  0.2296 -0.1077  0.1169
 1329ERGO   ROH19393   6.011  10.930   6.795  0.2409 -0.0874 -0.0837
 1329ERGO    R119394   6.108  10.837   7.044  0.2621  0.1209 -0.0116
 1329ERGO    R219395   6.168  11.006   7.253 -0.2073  0.2623  0.0206
 1329ERGO    R319396   5.999  10.844   7.391  0.0107 -0.0642 -0.0842
 1329ERGO    R419397   6.147  10.990   7.598 -0.2941  0.1184  0.0094
 1329ERGO    R519398   6.126  10.774   7.581  0.0674  0.0839 -0.0669
 1329ERGO    C119399   5.976  10.828   7.928 -0.1400 -0.2718 -0.0956
 1329ERGO    C219400   6.143  10.880   8.149 -0.1572 -0.0200 -0.1590
 1330ERGO   ROH19401   4.316   5.304   6.475 -0.1254 -0.0115  0.1015
 1330ERGO    R119402   4.382   5.151   6.703  0.1445  0.0421  0.0636
 1330ERGO    R219403   4.607   5.200   6.856  0.1443  0.3014 -0.0131
 1330ERGO    R319404   4.428   5.213   7.059  0.1973  0.0624  0.0530
 1330ERGO    R419405   4.689   5.209   7.191  0.2460  0.2570 -0.0363
 1330ERGO    R519406   4.521   5.076   7.231  0.3819  0.0870 -0.0264
 1330ERGO    C119407   4.567   5.227   7.578  0.3549  0.0067  0.0124
 1330ERGO    C219408   4.585   5.268   7.926 -0.1162  0.0505 -0.0391
 1331ERGO   ROH19409   5.339   1.374   6.502  0.0157  0.0669  0.0577
 1331ERGO    R119410   5.191   1.359   6.743 -0.0287  0.0008  0.0263
 1331ERGO    R219411   5.274   1.209   6.960 -0.0529 -0.0336  0.0113
 1331ERGO    R319412   5.245   1.444   7.093 -0.1057 -0.0640  0.0545
 1331ERGO    R419413   5.179   1.239   7.291 -0.0529 -0.1157  0.0191
 1331ERGO    R519414   5.056   1.410   7.235 -0.0947 -0.1346  0.0525
 1331ERGO    C119415   5.097   1.477   7.609 -0.1024 -0.1921  0.0641
 1331ERGO    C219416   4.894   1.553   8.023 -0.6572  0.2526  0.0024
 1332ERGO   ROH19417   1.963  14.724   6.736 -0.1419  0.0651  0.0434
 1332ERGO    R119418   1.914  14.835   6.992  0.1352  0.1474  0.0637
 1332ERGO    R219419   1.752  14.713   7.179 -0.1297  0.4828  0.0642
 1332ERGO    R319420   1.971  14.738   7.338 -0.0440 -0.0324  0.0446
 1332ERGO    R419421   1.744  14.740   7.524 -0.0366  0.5078  0.0645
 1332ERGO    R519422   1.902  14.889   7.511  0.3249  0.1413  0.0490
 1332ERGO    C119423   1.945  14.779   7.873  0.0981  0.0387  0.0463
 1332ERGO    C219424   1.958  14.700   8.254  0.1338  0.0092 -0.1165
 1333ERGO   ROH19425  14.616   4.488   6.556 -0.0703 -0.1442  0.0743
 1333ERGO    R119426  14.582   4.654   6.783  0.0731 -0.0926  0.0594
 1333ERGO    R219427  14.388   4.607   6.973  0.0738  0.0555  0.0991
 1333ERGO    R319428  14.599   4.613   7.144  0.1082 -0.0575  0.0616
 1333ERGO    R419429  14.363   4.612   7.318  0.1419 -0.0565  0.1060
 1333ERGO    R519430  14.527   4.756   7.323  0.1793 -0.1004  0.1245
 1333ERGO    C119431  14.547   4.621   7.679  0.2138 -0.2276  0.0747
 1333ERGO    C219432  14.595   4.468   8.029 -0.1091 -0.4551 -0.2227
 1334ERGO   ROH19433   8.787  10.341   6.651  0.3188  0.1789 -0.0171
 1334ERGO    R119434   8.888  10.405   6.907  0.0766  0.2620  0.0612
 1334ERGO    R219435   8.765  10.587   7.075 -0.2725  0.0666  0.0283
 1334ERGO    R319436   8.772  10.380   7.251 -0.1067  0.0350 -0.0151
 1334ERGO    R419437   8.716  10.615   7.416 -0.0541 -0.0124  0.0675
 1334ERGO    R519438   8.876  10.472   7.446  0.0000  0.0207 -0.0659
 1334ERGO    C119439   8.694  10.438   7.780  0.2289 -0.0881  0.0496
 1334ERGO    C219440   8.833  10.469   8.031  0.0026  0.1646 -0.0233
 1335ERGO   ROH19441   9.772  16.686   6.513 -0.0335 -0.0987 -0.0728
 1335ERGO    R119442   9.810  16.579   6.772 -0.1061 -0.1225 -0.0722
 1335ERGO    R219443   9.977  16.698   6.959 -0.0075 -0.2474 -0.0830
 1335ERGO    R319444   9.754  16.690   7.114 -0.0071 -0.0713 -0.0714
 1335ERGO    R419445   9.975  16.707   7.304  0.0063  0.0091 -0.0877
 1335ERGO    R519446   9.817  16.558   7.303 -0.0365  0.0492  0.0262
 1335ERGO    C119447   9.765  16.706   7.651  0.0147  0.3236 -0.0795
 1335ERGO    C219448   9.938  16.789   7.955 -0.1418  0.1374  0.1110
 1336ERGO   ROH19449  15.817   0.617   6.760  0.1640  0.0071 -0.0277
 1336ERGO    R119450  15.947   0.574   7.007  0.0217 -0.0902  0.0310
 1336ERGO    R219451  15.993   0.777   7.189  0.0231 -0.1398  0.0842
 1336ERGO    R319452  15.863   0.610   7.359 -0.1366 -0.1082 -0.0035
 1336ERGO    R419453  16.009   0.796   7.533 -0.1560 -0.1824  0.0958
 1336ERGO    R519454  16.017   0.578   7.540 -0.2453 -0.1882  0.0776
 1336ERGO    C119455  15.896   0.650   7.895 -0.4104 -0.1774  0.0203
 1336ERGO    C219456  16.025   0.791   8.248 -0.1816  0.1031 -0.0384
 1337ERGO   ROH19457   1.599  12.627   6.984 -0.0074  0.2445  0.0357
 1337ERGO    R119458   1.732  12.570   7.228 -0.1399  0.0024  0.0564
 1337ERGO    R219459   1.824  12.769   7.397  0.0989 -0.1596  0.1266
 1337ERGO    R319460   1.675  12.636   7.581 -0.1336  0.0017  0.0572
 1337ERGO    R419461   1.809  12.845   7.734  0.2459 -0.3104  0.1667
 1337ERGO    R519462   1.811  12.632   7.778 -0.1286 -0.3423  0.0523
 1337ERGO    C119463   1.661  12.763   8.103  0.1131 -0.2469  0.1248
 1337ERGO    C219464   1.497  12.747   8.380  0.0228  0.0523 -0.0642
 1338ERGO   ROH19465   1.101   4.678  10.931 -0.1338 -0.0935  0.0114
 1338ERGO    R119466   1.124   4.578  10.668  0.0362  0.0575 -0.0326
 1338ERGO    R219467   0.917   4.590  10.485  0.0194 -0.1923 -0.0288
 1338ERGO    R319468   1.104   4.712  10.330 -0.1683  0.1764  0.0246
 1338ERGO    R419469   0.908   4.604  10.140  0.0948 -0.2303 -0.0333
 1338ERGO    R519470   1.123   4.571  10.138  0.1739  0.1971  0.0358
 1338ERGO    C119471   1.078   4.728   9.794 -0.0374  0.0937  0.0141
 1338ERGO    C219472   1.007   4.776   9.506  0.0037  0.0998  0.2417
 1339ERGO   ROH19473  10.195  15.718   6.780 -0.0903  0.0381  0.0180
 1339ERGO    R119474  10.234  15.661   7.055 -0.0377 -0.0008  0.0055
 1339ERGO    R219475  10.402  15.809   7.216  0.0540 -0.0543 -0.0098
 1339ERGO    R319476  10.181  15.833   7.371  0.0857 -0.0082  0.0239
 1339ERGO    R419477  10.405  15.874   7.555  0.0673  0.2956 -0.0745
 1339ERGO    R519478  10.243  15.731   7.579  0.1633  0.2496  0.1122
 1339ERGO    C119479  10.199  15.934   7.899  0.1047  0.5425 -0.0806
 1339ERGO    C219480  10.099  16.048   8.265  0.1801  0.0769 -0.1943
 1340ERGO   ROH19481  17.258   5.087   6.675 -0.0980  0.1151 -0.1273
 1340ERGO    R119482  17.318   5.021   6.944 -0.0211  0.0564 -0.1575
 1340ERGO    R219483  17.338   5.213   7.142 -0.0278  0.0099 -0.1080
 1340ERGO    R319484  17.154   5.057   7.267  0.0389 -0.0747 -0.1124
 1340ERGO    R419485  17.302   5.185   7.485 -0.1084  0.0898 -0.1101
 1340ERGO    R519486  17.268   4.971   7.459  0.0402  0.0591 -0.0539
 1340ERGO    C119487  17.108   5.022   7.801 -0.0927  0.0569 -0.1155
 1340ERGO    C219488  17.102   5.059   8.180  0.1725  0.1010  0.0454
 1341ERGO   ROH19489  10.397  11.127   6.913 -0.0309 -0.0951  0.0714
 1341ERGO    R119490  10.257  11.155   7.157 -0.0430 -0.0786  0.0629
 1341ERGO    R219491  10.171  10.938   7.306 -0.0449 -0.0694  0.0770
 1341ERGO    R319492  10.310  11.060   7.505 -0.0563 -0.0497  0.0728
 1341ERGO    R419493  10.132  10.872   7.643  0.1712 -0.2777  0.0638
 1341ERGO    R519494  10.151  11.086   7.681  0.0029 -0.2795  0.1635
 1341ERGO    C119495  10.240  10.949   8.026  0.2863 -0.3807  0.0521
 1341ERGO    C219496  10.453  11.098   8.281  0.1086 -0.0588  0.0571
 1342ERGO   ROH19497  12.072  10.901   6.689 -0.0922  0.0478  0.0791
 1342ERGO    R119498  12.026  10.737   6.915 -0.0860  0.0805  0.1045
 1342ERGO    R219499  12.227  10.593   7.038 -0.1127 -0.0369  0.0166
 1342ERGO    R319500  12.141  10.724   7.260  0.0659  0.0227  0.0519
 1342ERGO    R419501  12.228  10.461   7.357  0.0675  0.0245  0.0426
 1342ERGO    R519502  12.034  10.554   7.391  0.1132  0.0744  0.1557
 1342ERGO    C119503  12.148  10.507   7.752  0.3400  0.1163  0.0909
 1342ERGO    C219504  12.247  10.439   8.087 -0.0898 -0.0652 -0.1844
 1343ERGO   ROH19505  16.615  12.164   6.729 -0.0320  0.1470  0.1654
 1343ERGO    R119506  16.601  12.290   6.982  0.0357 -0.0128  0.2518
 1343ERGO    R219507  16.506  12.162   7.208  0.0690 -0.1590  0.1912
 1343ERGO    R319508  16.745  12.237   7.312  0.1107 -0.2479  0.1847
 1343ERGO    R419509  16.576  12.185   7.546 -0.0381  0.2208  0.1921
 1343ERGO    R519510  16.688  12.367   7.505  0.1572  0.0691 -0.0066
 1343ERGO    C119511  16.842  12.268   7.840 -0.0613  0.3586  0.1866
 1343ERGO    C219512  16.922  12.299   8.116 -0.1663  0.1048 -0.0751
 1344ERGO   ROH19513   4.185   6.990   6.485 -0.0875 -0.0760  0.0716
 1344ERGO    R119514   4.347   7.057   6.707 -0.1396  0.1361  0.0473
 1344ERGO    R219515   4.275   7.250   6.891 -0.4016 -0.0066  0.0966
 1344ERGO    R319516   4.315   7.049   7.070 -0.0484  0.0189  0.0538
 1344ERGO    R419517   4.256   7.283   7.235 -0.4592 -0.1122  0.1045
 1344ERGO    R519518   4.429   7.153   7.253 -0.2257  0.1829  0.0748
 1344ERGO    C119519   4.282   7.114   7.602 -0.1611 -0.1497  0.0689
 1344ERGO    C219520   4.312   7.144   7.941 -0.1967 -0.0215  0.0323
 1345ERGO   ROH19521   6.845  10.234   6.810  0.1252  0.0710  0.0568
 1345ERGO    R119522   6.939  10.192   7.074  0.1270  0.1710  0.0723
 1345ERGO    R219523   7.022  10.398   7.237 -0.0254  0.2501  0.0504
 1345ERGO    R319524   6.840  10.293   7.409  0.0266  0.1548  0.0481
 1345ERGO    R419525   7.054  10.395   7.581 -0.0326  0.2745  0.0516
 1345ERGO    R519526   6.972  10.193   7.582  0.0764  0.2295  0.0538
 1345ERGO    C119527   6.901  10.294   7.943  0.0119  0.1995  0.0501
 1345ERGO    C219528   6.791  10.321   8.276  0.1315  0.1039  0.0591
 1346ERGO   ROH19529   7.796   9.951   6.525  0.2007 -0.0280 -0.1078
 1346ERGO    R119530   7.936  10.003   6.765  0.1495 -0.0062 -0.0821
 1346ERGO    R219531   7.860  10.202   6.942  0.1557  0.0615 -0.1517
 1346ERGO    R319532   7.862   9.998   7.122  0.0483  0.1047 -0.1014
 1346ERGO    R419533   7.894  10.241   7.283  0.0545  0.1327 -0.1496
 1346ERGO    R519534   8.023  10.065   7.285  0.0103  0.1029 -0.0652
 1346ERGO    C119535   7.915  10.072   7.651 -0.1054  0.2147 -0.1012
 1346ERGO    C219536   7.875  10.199   7.981 -0.0215 -0.2951 -0.2206
 1347ERGO   ROH19537  16.086  11.772   6.853  0.0987  0.1601  0.0257
 1347ERGO    R119538  16.165  11.885   7.101  0.0460  0.0711  0.0853
 1347ERGO    R219539  15.994  12.038   7.256  0.0280  0.0889  0.0572
 1347ERGO    R319540  16.060  11.858   7.448 -0.0984  0.0054  0.0405
 1347ERGO    R419541  15.958  12.089   7.596  0.0908  0.0809  0.0645
 1347ERGO    R519542  16.150  11.991   7.626  0.0243 -0.0793  0.0473
 1347ERGO    C119543  16.000  11.951   7.974  0.0087 -0.0022  0.0531
 1347ERGO    C219544  15.965  11.818   8.326 -0.1971  0.0464  0.1413
 1348ERGO   ROH19545   1.760  13.526   6.700 -0.2394 -0.1997  0.0606
 1348ERGO    R119546   1.845  13.682   6.920 -0.0827 -0.2028  0.0034
 1348ERGO    R219547   1.670  13.783   7.108  0.0186  0.0354 -0.0273
 1348ERGO    R319548   1.834  13.655   7.283 -0.1006 -0.0625  0.0140
 1348ERGO    R419549   1.683  13.845   7.448  0.2630  0.3365 -0.0871
 1348ERGO    R519550   1.900  13.825   7.438  0.2357 -0.0124 -0.1720
 1348ERGO    C119551   1.845  13.760   7.810  0.2933  0.4199 -0.0831
 1348ERGO    C219552   1.992  13.699   8.089 -0.1309  0.0490 -0.4313
 1349W        W19553   5.493  13.542  17.012 -0.0640 -0.1738  0.0479
 1350W        W19554  16.542  11.045  14.818 -0.3667  0.1030  0.0388
 1351W        W19555  10.350  10.370  15.770  0.0110 -0.0160 -0.1154
 1352W        W19556   6.891  16.638  16.156 -0.1045  0.1619 -0.1671
 1353W        W19557   0.124   4.661   0.429 -0.2245 -0.1990 -0.0070
 1354W        W19558   0.229   0.186  14.869 -0.0594  0.3320  0.0482
 1355W        W19559   2.652   2.656   5.456 -0.0477 -0.3686  0.1361
 1356W        W19560   5.787  11.748  13.709  0.2439 -0.1740  0.3367
 1357W        W19561   0.913  15.759   3.486 -0.0605  0.2203 -0.3122
 1358W        W19562   9.860   2.896   4.178 -0.0157  0.0497 -0.3054
 1359W        W19563   6.067  10.898   1.821  0.2717 -0.4963 -0.1677
 1360W        W19564   9.195  11.528   1.865  0.2015 -0.2692 -0.0749
 1361W        W19565   5.046  12.260  12.564 -0.0253  0.0948 -0.0887
 1362W        W19566   7.125   4.570  17.067 -0.2124  0.3267  0.0119
 1363W        W19567   6.891  15.324   3.950  0.1097 -0.2858 -0.1376
 1364W        W19568  11.772   0.181  15.113 -0.1172  0.1097  0.2659
 1365W        W19569  10.746  10.341   0.668 -0.0822 -0.2161 -0.0698
 1366W        W19570   6.175   6.859   2.914 -0.1894 -0.0541  0.2002
 1367W        W19571   4.702  16.313  13.134 -0.1582 -0.0206  0.1137
 1368W        W19572  10.947   4.450  12.257  0.2532  0.1113 -0.2749
 1369W        W19573  11.547  10.210   1.765  0.1034 -0.1748  0.1370
 1370W        W19574  10.527  13.850   3.768 -0.1124  0.0188  0.0296
 1371W        W19575   4.349   5.739   2.625 -0.0839  0.0904  0.1423
 1372W        W19576   5.824   5.172  16.115  0.1350  0.0351 -0.3473
 1373W        W19577   9.169   9.055  16.842  0.0306 -0.1482 -0.2804
 1374W        W19578   1.090  10.382  16.352 -0.0061 -0.1372 -0.0782
 1375W        W19579   6.014  13.438  17.034  0.0201 -0.2607  0.3021
 1376W        W19580  10.652  13.250   0.798  0.0472 -0.3038 -0.1632
 1377W        W19581   2.620  12.596   1.108 -0.1350 -0.1870  0.0421
 1378W        W19582   6.543  10.091  16.162  0.1280  0.1004  0.0725
 1379W        W19583  13.550  16.169   0.929  0.2031 -0.1771  0.1036
 1380W        W19584   0.531  14.035  13.411 -0.1078  0.0630 -0.0830
 1381W        W19585  12.996   5.154   4.054  0.1641  0.1031 -0.0123
 1382W        W19586  14.013  12.764   2.951  0.0900  0.0720  0.1662
 1383W        W19587   1.811   5.124   0.702  0.0218 -0.0387  0.1867
 1384W        W19588   8.020  17.162   4.071  0.1369  0.2255  0.0114
 1385W        W19589   8.704   7.706  14.923  0.0658  0.1025  0.1672
 1386W        W19590   5.592  11.944   6.192 -0.0290 -0.0476  0.3480
 1387W        W19591  11.302   8.595   2.928  0.1274  0.1007  0.0902
 1388W        W19592   0.267  12.650   2.930 -0.0107 -0.2882 -0.0299
 1389W        W19593   2.769  11.183  14.920  0.0976 -0.0614 -0.3850
 1390W        W19594   6.042   0.124  15.886  0.0522 -0.1694 -0.1211
 1391W        W19595   1.756   4.294   1.291  0.3357  0.4209 -0.2996
 1392W        W19596  14.111   6.865   3.437 -0.0970 -0.0821  0.1623
 1393W        W19597   3.723  15.825  17.181  0.3717 -0.2582  0.1143
 1394W        W19598   8.658   0.705  14.943 -0.1489 -0.0666 -0.0243
 1395W        W19599   5.716   4.551  14.671  0.1695  0.0960 -0.2765
 1396W        W19600   3.467  11.410   5.070 -0.2376 -0.0203 -0.2293
 1397W        W19601   6.612  13.155  13.258  0.0641 -0.1968  0.1723
 1398W        W19602   7.969   7.660   1.805 -0.1229  0.0187  0.0710
 1399W        W19603   0.346   5.157  14.482 -0.1774  0.1425  0.1425
 1400W        W19604   3.593   9.854   3.727  0.1724  0.1697 -0.1362
 1401W        W19605  12.320   5.279  14.155 -0.2822  0.1714  0.2125
 1402W        W19606   9.915   3.346  12.226  0.0221 -0.0407  0.2339
 1403W        W19607   1.005  10.532  17.412  0.0528 -0.1054 -0.1361
 1404W        W19608  17.117  11.124  14.075  0.0928  0.0880 -0.0104
 1405W        W19609   2.955   8.921   3.468  0.2619 -0.0145  0.1102
 1406W        W19610  13.624   1.298  12.831 -0.1818  0.1213  0.1661
 1407W        W19611  14.478   3.339  15.430 -0.0836  0.0247  0.1139
 1408W        W19612  14.015   4.129   1.066  0.0621  0.1337  0.0383
 1409W        W19613   8.935   2.049  13.877  0.0107 -0.1534 -0.0051
 1410W        W19614   6.030  11.339  14.030  0.0140  0.2210  0.0802
 1411W        W19615   0.103  16.677  13.359 -0.0294  0.2004  0.0210
 1412W        W19616   3.188  16.843   3.343  0.0461 -0.0708  0.1072
 1413W        W19617   5.885   6.105   1.497 -0.1658 -0.4257 -0.0462
 1414W        W19618  15.681   2.824  12.595 -0.1996  0.1437  0.0133
 1415W        W19619   4.983   5.052  14.515 -0.2275 -0.0189 -0.0782
 1416W        W19620  12.897   4.294   5.080 -0.0497 -0.0218 -0.1841
 1417W        W19621  10.091   0.071  17.492  0.0065  0.1323  0.1708
 1418W        W19622   6.447   2.517  12.548  0.1097 -0.1203 -0.1629
 1419W        W19623   3.757  11.223   3.433 -0.3738  0.0214  0.2358
 1420W        W19624  17.285  12.041   0.369 -0.2031 -0.2662 -0.0697
 1421W        W19625   3.985  10.344   3.566 -0.0812  0.0867 -0.0631
 1422W        W19626   2.197  16.198  15.374 -0.2758  0.1912 -0.4590
 1423W        W19627   0.456  14.615  16.788  0.0403 -0.1440  0.3423
 1424W        W19628   6.868  16.928  15.761 -0.1480  0.1185 -0.2306
 1425W        W19629   2.755  15.022  16.702  0.0979 -0.0170 -0.1233
 1426W        W19630  10.958   4.447  15.662  0.3344  0.1124 -0.1398
 1427W        W19631  12.853  13.261   4.201 -0.1550  0.2079  0.0229
 1428W        W19632  13.755   3.479   2.953 -0.3356  0.0800  0.1067
 1429W        W19633   9.224  10.314   3.086 -0.1553  0.2005  0.2654
 1430W        W19634  11.737   9.988   4.788  0.1103  0.1543  0.2036
 1431W        W19635   0.219  14.664  13.143 -0.0644 -0.0250 -0.1073
 1432W        W19636   4.761  13.464  12.311  0.0361  0.3870  0.2959
 1433W        W19637   7.376   1.065   4.213 -0.0306 -0.1426 -0.1238
 1434W        W19638   6.742  10.909  14.990  0.2499 -0.0063  0.2828
 1435W        W19639   0.412  15.681   4.751 -0.3183  0.1015 -0.0346
 1436W        W19640   0.469  13.738   5.067 -0.1297 -0.1708  0.2044
 1437W        W19641  12.712   6.208  13.762  0.2852  0.1959 -0.0715
 1438W        W19642  17.004  10.909   4.453 -0.0334  0.2533 -0.2751
 1439W        W19643   2.653  11.894   2.574  0.1128 -0.3298 -0.1816
 1440W        W19644  15.842   3.549   3.626  0.1277 -0.1789  0.0064
 1441W        W19645  15.776   1.804   5.160  0.1348  0.2865  0.0516
 1442W        W19646   1.925   1.896   3.134 -0.2450  0.0240  0.3199
 1443W        W19647  15.536   8.878  13.486 -0.0862 -0.2679 -0.1922
 1444W        W19648   5.450   9.075  17.383 -0.0536  0.0724 -0.0381
 1445W        W19649  12.311   4.821  13.892  0.1311 -0.0191 -0.2096
 1446W        W19650  14.895   0.909   4.713  0.0293 -0.1025  0.0911
 1447W        W19651   4.712   7.697   4.655  0.1412 -0.0344 -0.2023
 1448W        W19652   5.073   6.424  15.602  0.1394 -0.1365 -0.2627
 1449W        W19653   6.362  12.303  13.821 -0.1233 -0.0171 -0.0789
 1450W        W19654   3.190   1.981  12.564  0.1709  0.0059 -0.0409
 1451W        W19655  10.172  15.758  17.033 -0.0186 -0.0366  0.2827
 1452W        W19656  10.624  16.978  12.793  0.0946  0.0029  0.3554
 1453W        W19657  11.929  11.601  16.025 -0.0333 -0.1740 -0.1785
 1454W        W19658   6.214   2.787   5.048  0.2605 -0.0466 -0.1123
 1455W        W19659   7.375   8.004  12.045  0.0298  0.1302  0.2593
 1456W        W19660  13.955  13.256  14.100 -0.1613  0.0891  0.0773
 1457W        W19661  16.107   2.712  17.245 -0.1128  0.2219 -0.3620
 1458W        W19662   0.753   8.815  13.616 -0.0219  0.0040  0.2392
 1459W        W19663  10.598  10.048   3.890  0.0589 -0.1351  0.1824
 1460W        W19664  10.232  13.580  16.642  0.0816 -0.2487  0.0601
 1461W        W19665   5.917   8.726  13.000  0.1304  0.3272  0.1162
 1462W        W19666   8.618   8.716  17.348 -0.1437 -0.0336  0.0223
 1463W        W19667  12.943   6.411   1.399 -0.0628 -0.0942  0.1254
 1464W        W19668  14.931   2.558   5.095  0.0250  0.1765 -0.2161
 1465W        W19669  12.700   3.332   5.565  0.2004 -0.2081  0.1210
 1466W        W19670  12.276  16.587  16.717  0.2114 -0.1363 -0.2702
 1467W        W19671  13.143   5.446  13.532  0.0213  0.0894 -0.1165
 1468W        W19672  15.874   2.617   4.064  0.0033 -0.0567  0.1921
 1469W        W19673   4.262   2.170  12.468 -0.0728  0.1643 -0.4780
 1470W        W19674   7.517   0.403   5.124 -0.2006  0.0534  0.0716
 1471W        W19675  16.348   0.734  12.663  0.1038 -0.1230 -0.2432
 1472W        W19676  17.219  16.231  13.768  0.0331 -0.3846 -0.0907
 1473W        W19677  16.221  14.677  14.482 -0.2227 -0.1331  0.0334
 1474W        W19678   2.170   7.310  17.229 -0.4107 -0.0648  0.1011
 1475W        W19679  15.854   9.394  16.448 -0.0821  0.1066  0.1761
 1476W        W19680   1.476   1.652   1.514 -0.0267  0.1504  0.2539
 1477W        W19681   8.924  13.916  12.635 -0.0093  0.0153  0.0337
 1478W        W19682   3.662   1.227   3.446 -0.1663  0.2382  0.2891
 1479W        W19683   4.535   8.300  15.570 -0.1920  0.0844 -0.0236
 1480W        W19684  15.540  14.620  13.206  0.3252  0.3082  0.1434
 1481W        W19685  14.358   6.042   0.335 -0.2712  0.0922 -0.2154
 1482W        W19686  10.606  12.589   0.674 -0.1669 -0.0774  0.3179
 1483W        W19687   4.106  11.328  16.012 -0.1912 -0.1483  0.2300
 1484W        W19688   5.122  15.671   4.860  0.1152 -0.0798  0.0944
 1485W        W19689  14.659  11.687  17.367 -0.2438  0.0463  0.2657
 1486W        W19690  13.671   9.678  12.511  0.1905  0.1727 -0.0065
 1487W        W19691  13.832   3.025  15.425  0.1464 -0.1057  0.5013
 1488W        W19692   5.302   3.035  16.357 -0.0387 -0.0316  0.0067
 1489W        W19693  16.994   1.025  13.902  0.3072 -0.0507 -0.0139
 1490W        W19694  16.864   3.331   0.348 -0.3079 -0.1556  0.3251
 1491W        W19695  15.929   7.791   1.383  0.2231  0.1449 -0.0659
 1492W        W19696   2.777   1.291   2.441 -0.1489 -0.1388  0.1717
 1493W        W19697   0.241  12.848   4.573  0.3250 -0.2378  0.1014
 1494W        W19698  16.480  16.294  12.435  0.1318  0.0061 -0.0928
 1495W        W19699  11.417  15.857   2.967 -0.0945  0.0441 -0.1455
 1496W        W19700   5.750  11.843   0.175  0.1395  0.0111 -0.1429
 1497W        W19701   5.926   1.329  16.178 -0.3594 -0.0207  0.0719
 1498W        W19702  12.526   6.483   3.282  0.1545  0.0927  0.0384
 1499W        W19703   2.617   2.083  15.385 -0.1487  0.1289  0.3107
 1500W        W19704  16.453  10.880   4.352  0.0714 -0.1086 -0.1607
 1501W        W19705  15.494   5.375  17.158 -0.0197  0.1558  0.0614
 1502W        W19706  12.109  13.590   1.041 -0.0649 -0.0003  0.0367
 1503W        W19707  16.233   8.128  16.528  0.2008  0.1375 -0.3388
 1504W        W19708   3.565   6.405   4.598 -0.3279  0.2518 -0.1967
 1505W        W19709   7.150   5.851  16.611 -0.0376 -0.1899  0.0220
 1506W        W19710  17.226   7.857   6.003 -0.0407  0.3031 -0.2553
 1507W        W19711   4.670   6.166   2.028  0.0009  0.0761 -0.1894
 1508W        W19712  12.910  14.228   2.932  0.1000 -0.0441 -0.1348
 1509W        W19713   2.761   4.807  12.052 -0.0998 -0.0547 -0.1695
 1510W        W19714   6.591  10.849  16.669 -0.1356  0.0280 -0.0542
 1511W        W19715   4.110  11.360  14.097  0.0134  0.2421  0.1209
 1512W        W19716  14.929  14.817   3.180  0.3295  0.0946  0.0851
 1513W        W19717   8.244   9.788   4.124 -0.1011 -0.0776  0.0463
 1514W        W19718   8.651  12.621   4.125 -0.0827  0.0631  0.2614
 1515W        W19719  15.134  14.970   2.267 -0.2540  0.1098 -0.0508
 1516W        W19720   3.066  14.908  14.637 -0.1152  0.1065 -0.1362
 1517W        W19721   4.128  12.439   4.427  0.3500 -0.1591  0.0435
 1518W        W19722   0.789  12.470  16.387 -0.0365  0.0959 -0.1952
 1519W        W19723  16.111  17.294   1.948  0.0658 -0.1480  0.0086
 1520W        W19724  10.947   6.314   2.508  0.0371 -0.0604 -0.3179
 1521W        W19725   7.954  16.241   4.764 -0.2284  0.0771 -0.2540
 1522W        W19726   7.542   7.030   2.230  0.2009 -0.0707  0.1279
 1523W        W19727  14.878   4.064   5.940 -0.1232  0.2044  0.0947
 1524W        W19728   4.827  16.961  14.533  0.0731  0.0182  0.0414
 1525W        W19729   6.150  12.094   2.070  0.2507 -0.1485 -0.3057
 1526W        W19730   0.354   1.596  17.132  0.1679  0.1109 -0.1074
 1527W        W19731  15.811  11.751   4.683 -0.1279 -0.1089 -0.2411
 1528W        W19732   9.175  13.882   2.159  0.1377  0.0134 -0.0660
 1529W        W19733  13.577  15.591  14.310  0.1619 -0.1327 -0.0131
 1530W        W19734   7.387   5.752   3.261 -0.0561 -0.2331 -0.2308
 1531W        W19735   8.182  15.321   3.606  0.0885  0.0092 -0.2905
 1532W        W19736   6.946   6.435   3.081 -0.3517  0.1393  0.1185
 1533W        W19737   6.928   3.048  14.034 -0.0101  0.3548  0.0902
 1534W        W19738   4.595  15.873   1.015 -0.0170 -0.1478 -0.1446
 1535W        W19739   1.848   2.146   4.371  0.1190 -0.2136  0.0532
 1536W        W19740  16.145  10.268   0.389 -0.1840 -0.1696 -0.0219
 1537W        W19741   3.675  10.298   2.120 -0.2135 -0.1294 -0.2654
 1538W        W19742  11.222  10.799  11.906  0.2409 -0.0386  0.4115
 1539W        W19743   2.701   5.795  15.532  0.2450  0.0830  0.0952
 1540W        W19744   7.025  13.511   0.830  0.1256  0.0499 -0.2482
 1541W        W19745   2.387  16.446   5.012  0.2613  0.1335  0.0090
 1542W        W19746   7.578   9.918   0.003 -0.1587 -0.0195 -0.0589
 1543W        W19747  15.625   7.573   1.088  0.0309  0.4314 -0.1857
 1544W        W19748   0.631  15.323   1.735 -0.0378  0.1522  0.0727
 1545W        W19749   5.807  10.211  11.111 -0.2583  0.3274  0.1521
 1546W        W19750  15.191  11.113   2.564 -0.0679 -0.0109 -0.0420
 1547W        W19751  10.005  10.929   2.514 -0.2812  0.1964  0.1045
 1548W        W19752   3.719   2.771  13.866  0.0169  0.1761  0.4793
 1549W        W19753   4.227  16.154   1.232 -0.2633  0.1444  0.1791
 1550W        W19754   2.906   8.904  16.608 -0.2102  0.3262  0.1826
 1551W        W19755  12.536  13.698  14.332 -0.1831 -0.1032 -0.1967
 1552W        W19756   5.685  16.745   5.163  0.2359  0.2510  0.0146
 1553W        W19757  14.327  10.413   3.490  0.0087  0.0945  0.0813
 1554W        W19758   2.528  15.291   4.336 -0.1701  0.3667  0.3625
 1555W        W19759   5.410   0.689  12.484  0.0582  0.1640 -0.0781
 1556W        W19760   7.545   5.103   3.977  0.0840  0.0026 -0.1831
 1557W        W19761   0.740  11.404  13.503  0.1722  0.1837  0.0551
 1558W        W19762   7.900  11.934  17.026  0.4700  0.3434  0.0667
 1559W        W19763  14.050   8.251   4.228 -0.5433  0.1151 -0.0298
 1560W        W19764   3.856  10.000  13.301  0.3560 -0.1617 -0.0944
 1561W        W19765  10.666   6.846  11.602 -0.0153  0.2372 -0.2339
 1562W        W19766   7.710   9.070  16.292 -0.0903 -0.1785  0.1751
 1563W        W19767   3.818   5.898  13.100  0.1529  0.1133  0.0163
 1564W        W19768  11.738  10.419  12.793 -0.2337 -0.1586 -0.2217
 1565W        W19769   8.042  16.470  12.883 -0.1165 -0.1838  0.0525
 1566W        W19770   6.676   4.163  16.159 -0.2237  0.2515  0.1190
 1567W        W19771  13.966  15.500   0.236 -0.0533 -0.0297  0.3172
 1568W        W19772  13.252   6.967  13.534  0.1753 -0.0115  0.3236
 1569W        W19773   5.847  11.734  15.900 -0.0042 -0.1770  0.1680
 1570W        W19774  14.834   8.063   0.777  0.2007  0.0970 -0.3817
 1571W        W19775   2.883   6.731   1.050 -0.0688 -0.2629 -0.0878
 1572W        W19776  14.124   0.255   0.210 -0.1561 -0.0248 -0.0136
 1573W        W19777   7.095   7.272  15.047  0.3849 -0.0567  0.2819
 1574W        W19778   8.503  12.161   3.165 -0.1376 -0.0811 -0.0512
 1575W        W19779  13.879  16.681  15.669 -0.0570 -0.3533 -0.1225
 1576W        W19780   6.938  12.287  16.112 -0.1945  0.1592 -0.0487
 1577W        W19781   5.471  11.364  12.337  0.1594  0.0428  0.0080
 1578W        W19782   1.363  17.152  14.221 -0.0180 -0.1127 -0.1453
 1579W        W19783  15.578   4.021   3.265 -0.4552 -0.0187  0.0902
 1580W        W19784   7.300   7.145   1.782 -0.2072 -0.0431  0.2086
 1581W        W19785   8.165  13.518  12.292 -0.0272  0.1049  0.2839
 1582W        W19786   8.749  12.170   4.396 -0.0320 -0.1431 -0.0783
 1583W        W19787   4.497  12.859  16.086 -0.1636  0.1169  0.2090
 1584W        W19788   6.326   1.193   1.723 -0.2128 -0.1347 -0.1794
 1585W        W19789  11.609   7.244   5.226 -0.0175  0.1556 -0.0089
 1586W        W19790   8.966   2.790  17.486 -0.1701 -0.0964  0.1219
 1587W        W19791  10.895   2.572   0.909 -0.2084  0.0686  0.0029
 1588W        W19792   9.862  15.821  12.203  0.1505  0.0525  0.1426
 1589W        W19793   1.655  12.147   4.620 -0.1939 -0.2605 -0.0083
 1590W        W19794   5.911  16.302   5.204  0.2667  0.1363 -0.4404
 1591W        W19795   7.674   1.015  12.667 -0.2260  0.0264 -0.1956
 1592W        W19796  14.424   9.922   0.848  0.0001  0.2385  0.2276
 1593W        W19797   9.948   0.997   4.077  0.1214  0.0694 -0.2279
 1594W        W19798   2.698  12.852   0.669 -0.0011 -0.2435 -0.4749
 1595W        W19799   2.835  10.667   2.794  0.0699 -0.0758  0.2320
 1596W        W19800   7.218   1.403   3.778 -0.1526 -0.0683  0.1817
 1597W        W19801  10.285  16.548   1.495  0.0323 -0.1011 -0.0728
 1598W        W19802   7.581   2.743   2.211 -0.0189 -0.0307  0.0117
 1599W        W19803   1.099   7.172  16.672  0.4126  0.1520  0.0717
 1600W        W19804   9.046   1.184  13.688 -0.0651  0.2057 -0.0998
 1601W        W19805  13.332   6.128  15.288 -0.1449 -0.1561 -0.2381
 1602W        W19806  14.737   2.621  14.748  0.1006  0.1922 -0.2302
 1603W        W19807   5.478   6.422  14.377  0.0390 -0.0325 -0.2081
 1604W        W19808   8.661   0.916   1.746  0.0458 -0.0279 -0.0775
 1605W        W19809   5.417  11.123   0.154  0.1011  0.0445 -0.0927
 1606W        W19810   0.349  16.193   1.797 -0.2832  0.0020 -0.0325
 1607W        W19811   9.688   0.102   4.027  0.2727 -0.1562 -0.0098
 1608W        W19812   9.099   7.334   2.818  0.2740  0.1970 -0.0313
 1609W        W19813   0.803  12.693  12.988  0.2346 -0.0341  0.1139
 1610W        W19814   3.008   2.223  17.454 -0.1691 -0.0324 -0.1989
 1611W        W19815  13.432   8.460   0.093  0.1101  0.2064  0.0676
 1612W        W19816   2.697   0.528   1.636 -0.0068 -0.1132 -0.3077
 1613W        W19817   8.042   6.045   3.249  0.0271  0.0426 -0.2652
 1614W        W19818   5.306   0.687  14.881  0.0787 -0.0213  0.1539
 1615W        W19819  15.764   6.978   1.933 -0.0288  0.3421  0.0602
 1616W        W19820   2.107   5.848   2.637  0.2489  0.1879 -0.0146
 1617W        W19821  14.642  11.500   4.160  0.2185  0.0076 -0.1591
 1618W        W19822   2.896   8.538   2.562 -0.1605  0.1267  0.1414
 1619W        W19823   0.896  10.480  16.924  0.0279  0.2926  0.0875
 1620W        W19824  11.242  15.674  14.472  0.3233  0.2191  0.0080
 1621W        W19825  15.884   1.087   4.267 -0.0118 -0.0514  0.4398
 1622W        W19826   1.873   0.080  15.024  0.2166 -0.1394  0.3037
 1623W        W19827   2.177  16.530  16.441 -0.1996 -0.0476 -0.0625
 1624W        W19828  17.254  15.237   4.233 -0.0289 -0.0454  0.0210
 1625W        W19829  15.687  17.142  16.252 -0.0391  0.3305 -0.3249
 1626W        W19830   6.587  10.516  15.883  0.1598  0.1432  0.1644
 1627W        W19831   0.589   0.390  13.146 -0.2386 -0.0363  0.0317
 1628W        W19832  14.126   6.893  12.771 -0.0316  0.1125 -0.2047
 1629W        W19833  10.769   7.937   3.322  0.2508 -0.0960  0.1391
 1630W        W19834   6.558   7.559  13.300  0.0193  0.0815 -0.1229
 1631W        W19835  14.215   0.608   3.696 -0.0616  0.0157  0.0688
 1632W        W19836  12.654  11.614  14.651 -0.1527 -0.1958  0.0401
 1633W        W19837  10.804   8.048  13.941  0.0912 -0.0911 -0.1856
 1634W        W19838  12.663   0.947   2.837  0.1275 -0.2381  0.0576
 1635W        W19839  12.658   0.460  13.620 -0.0172 -0.0538  0.1223
 1636W        W19840   6.865  12.255  13.872 -0.2811  0.2572 -0.1209
 1637W        W19841   7.983   0.033  17.346  0.1757 -0.0412 -0.2003
 1638W        W19842   3.568  13.128   4.442 -0.1236 -0.0520  0.0288
 1639W        W19843  14.356   7.994   1.666  0.2401  0.1296  0.1155
 1640W        W19844   6.895   3.704  16.154 -0.0998 -0.2287 -0.1713
 1641W        W19845   3.429   3.063   5.260 -0.2164 -0.0158  0.5072
 1642W        W19846   4.902  11.351  13.622  0.1028 -0.0641 -0.0145
 1643W        W19847   0.456   3.719   6.132  0.0718 -0.1498  0.0048
 1644W        W19848  14.831   7.003   2.098 -0.2034  0.2502  0.3062
 1645W        W19849  13.554   1.579  16.442 -0.1588 -0.1358 -0.0113
 1646W        W19850   0.232   1.461   1.522  0.0635  0.2007 -0.0754
 1647W        W19851   3.692   5.898  15.518 -0.3318 -0.0754 -0.2844
 1648W        W19852  11.411  16.668   0.702  0.2659  0.0271  0.0123
 1649W        W19853   6.536  14.420   4.433  0.0624  0.1423 -0.0240
 1650W        W19854  12.881  14.469  15.476 -0.1133  0.0514  0.1190
 1651W        W19855   1.448   8.978  13.054  0.0831  0.0597  0.0748
 1652W        W19856  11.591  14.663  12.897 -0.0222 -0.2166  0.0695
 1653W        W19857   5.973  14.289   4.391 -0.1125 -0.0506  0.0585
 1654W        W19858   9.717   5.893  12.021  0.0472 -0.3386  0.0182
 1655W        W19859  14.631   9.871  13.002  0.1350  0.1224  0.0602
 1656W        W19860  14.133  11.974   1.696  0.1652 -0.0734  0.1820
 1657W        W19861   5.318   3.086  13.143  0.1717 -0.4602 -0.2095
 1658W        W19862   8.983  13.188   0.072  0.1729  0.1897  0.1280
 1659W        W19863  16.910  15.129   1.326  0.0400  0.2774 -0.3842
 1660W        W19864  10.267  17.221   0.414  0.0253  0.2776 -0.1798
 1661W        W19865   1.554   6.912   3.459  0.1186 -0.1006 -0.0089
 1662W        W19866  10.993  11.647   5.747 -0.0072  0.3246 -0.0859
 1663W        W19867   5.180  11.719   4.176 -0.0659  0.3001  0.0275
 1664W        W19868   1.855   6.212  15.736  0.2589  0.0255  0.2344
 1665W        W19869   6.365  11.711   2.321  0.1315  0.2326 -0.0234
 1666W        W19870  12.748   8.308  14.396 -0.0183 -0.2420  0.1363
 1667W        W19871   7.688  17.085  13.312 -0.1682 -0.4243  0.1325
 1668W        W19872   0.932   9.155  13.909  0.0083 -0.1603  0.2167
 1669W        W19873  14.119  10.698   0.498 -0.2153 -0.1659 -0.1813
 1670W        W19874   2.518   8.867  13.219  0.1706 -0.0960 -0.1321
 1671W        W19875   2.344  13.961  14.485  0.0992 -0.1683 -0.1238
 1672W        W19876  11.895   1.378   0.214 -0.0118 -0.0323 -0.0992
 1673W        W19877   7.213   8.510  11.974  0.2450  0.0448 -0.1499
 1674W        W19878   2.720  15.466   1.952 -0.0241  0.1634  0.2909
 1675W        W19879   1.520   6.464  13.845  0.2279 -0.1129  0.4355
 1676W        W19880   2.889   8.823   0.050 -0.1505 -0.3292 -0.2152
 1677W        W19881   6.273   8.499  17.058  0.1242 -0.0602  0.0802
 1678W        W19882   1.096  15.541   5.530  0.2034  0.0400 -0.0701
 1679W        W19883   7.661   2.517  17.483 -0.0238  0.5243  0.1913
 1680W        W19884   2.812   2.057   1.024 -0.0072  0.3257 -0.0896
 1681W        W19885   9.447   4.271   2.918 -0.3839  0.2206 -0.1059
 1682W        W19886   7.911   3.699  13.630  0.1216  0.1044  0.0826
 1683W        W19887  14.964   8.612   0.275 -0.0959  0.1876  0.2485
 1684W        W19888   5.650   3.575  14.359  0.1346  0.0125  0.0112
 1685W        W19889   1.825  16.227   5.377 -0.3643  0.1864 -0.1302
 1686W        W19890   2.672   7.084   3.623  0.0424 -0.0154  0.0567
 1687W        W19891   4.804  11.041   5.534 -0.0619 -0.1603 -0.3285
 1688W        W19892   9.976  11.810  14.646  0.0233  0.0318  0.0786
 1689W        W19893   1.834   7.016  14.427  0.1044 -0.3948 -0.1491
 1690W        W19894   9.174   5.593   3.426  0.2487 -0.1816  0.0728
 1691W        W19895   7.455   7.370   3.050  0.1710  0.1678 -0.0741
 1692W        W19896   2.392   8.725  16.602  0.0683  0.2204 -0.0564
 1693W        W19897   3.429   4.767   1.773  0.2239 -0.3572  0.2756
 1694W        W19898  12.657   3.213   4.207  0.0964  0.0236 -0.3037
 1695W        W19899  10.029   0.829  13.898  0.0876  0.1989  0.2908
 1696W        W19900   0.673   7.609   0.037  0.3351 -0.0350  0.0508
 1697W        W19901   1.037   2.271   5.214  0.1609 -0.1415 -0.3329
 1698W        W19902  15.842   6.326  17.127  0.1241 -0.3830 -0.2459
 1699W        W19903   9.550   9.253  10.947  0.3188 -0.1664  0.3738
 1700W        W19904  15.740  15.042  12.875  0.2383  0.2597 -0.1778
 1701W        W19905   6.184  10.330   1.958 -0.0155  0.1202 -0.3687
 1702W        W19906  16.502  14.176   4.581  0.1484  0.0444 -0.0431
 1703W        W19907   2.939   0.701  15.227 -0.0127  0.0539  0.1910
 1704W        W19908   1.961  11.200  16.531 -0.2046  0.2735 -0.1028
 1705W        W19909   5.608  11.482  17.391  0.0729  0.0058  0.0252
 1706W        W19910   0.320   7.430  13.744  0.3165 -0.1971  0.2174
 1707W        W19911   4.256  12.765  12.500  0.0154  0.2984  0.1210
 1708W        W19912   6.545   7.219   2.147  0.2168  0.1419 -0.4772
 1709W        W19913  13.851  15.895  13.300 -0.0755 -0.1721 -0.1129
 1710W        W19914   3.635   5.199  11.628  0.2194  0.0666  0.0894
 1711W        W19915   2.701  10.363  16.670  0.1749  0.1123  0.2096
 1712W        W19916   0.590   8.556   1.838  0.3658 -0.3060 -0.0355
 1713W        W19917   9.496  15.131   0.472  0.1280  0.0715 -0.0890
 1714W        W19918  14.869   1.376   4.938  0.0264  0.1614 -0.2536
 1715W        W19919  10.246  16.672   6.464 -0.0532 -0.0563  0.2154
 1716W        W19920   6.567   0.794  15.765  0.2119  0.0378  0.1461
 1717W        W19921  11.693  14.474   0.779 -0.0010 -0.2213  0.2104
 1718W        W19922  14.875   7.487  16.228  0.1291  0.2512  0.1512
 1719W        W19923   5.110  13.869  15.837 -0.1577  0.2728  0.1317
 1720W        W19924   7.210   0.644   2.490 -0.2922 -0.1215 -0.3527
 1721W        W19925   4.710   6.526   1.134 -0.1338 -0.2300  0.3010
 1722W        W19926  14.212   0.463   4.641 -0.0068 -0.1406  0.1829
 1723W        W19927   5.391   9.675   0.465  0.0911  0.1368 -0.1801
 1724W        W19928   3.798   6.509   1.090 -0.0163  0.1289  0.2769
 1725W        W19929   0.794   9.806  12.401 -0.1960  0.3505  0.0599
 1726W        W19930  10.185   8.719   5.291  0.2589 -0.1870 -0.0787
 1727W        W19931  11.210  12.927  14.126  0.1259 -0.2153 -0.0093
 1728W        W19932  13.238   9.267  16.540 -0.0871 -0.0298  0.1187
 1729W        W19933   6.478  10.078   4.151  0.0190 -0.0878 -0.1612
 1730W        W19934  15.624  10.376  15.069 -0.0249  0.0378  0.0573
 1731W        W19935   1.766   6.647   4.867 -0.1492 -0.0910 -0.3322
 1732W        W19936  15.711   2.307  16.683  0.1978  0.2553 -0.1382
 1733W        W19937   7.456   7.775   2.507  0.1330  0.0822  0.1829
 1734W        W19938   3.380  17.231   4.799  0.1964 -0.0646  0.2108
 1735W        W19939   2.078   9.927  17.182  0.0484  0.0075 -0.0738
 1736W        W19940   7.098  15.373  16.774  0.2600  0.1772 -0.1383
 1737W        W19941  16.093  14.056   4.782 -0.0938 -0.0535  0.0876
 1738W        W19942  11.422  13.556   2.314 -0.2366  0.0165 -0.0691
 1739W        W19943   0.072   6.593   2.126  0.1460 -0.1517 -0.0744
 1740W        W19944   3.317   0.589  17.018  0.3269  0.0535  0.0562
 1741W        W19945   9.881   3.639   0.178 -0.1217  0.1696  0.0592
 1742W        W19946  12.147  15.477   0.178 -0.3663  0.5289  0.0939
 1743W        W19947   1.374  16.145   2.579  0.1198  0.2203  0.0313
 1744W        W19948   2.440   3.510   0.789  0.0121  0.0612 -0.2832
 1745W        W19949  12.744   2.283  16.835 -0.0353  0.1918 -0.0786
 1746W        W19950  11.462  15.860   4.340  0.2723 -0.3781 -0.1083
 1747W        W19951  11.394  11.844  16.396 -0.3165  0.0250 -0.0987
 1748W        W19952  16.024   9.748   6.002  0.1106  0.2470 -0.1871
 1749W        W19953  14.693   1.117   0.952 -0.2068 -0.2018  0.0801
 1750W        W19954  16.090   5.767   4.624 -0.1702 -0.1823  0.0226
 1751W        W19955  11.437  11.301   0.630 -0.3067 -0.0734  0.1112
 1752W        W19956  13.389   2.747   0.921 -0.1495 -0.2506 -0.0552
 1753W        W19957   0.235  15.741  14.986  0.0257  0.1349  0.0724
 1754W        W19958  16.948  14.425   4.504  0.1092  0.0968 -0.3773
 1755W        W19959   0.997   3.154   3.293 -0.0955  0.1831  0.1710
 1756W        W19960  11.101  15.869  13.412  0.0542  0.2032  0.0365
 1757W        W19961   8.703   6.759  13.040  0.0002  0.1175  0.0088
 1758W        W19962   5.285   6.846  13.546 -0.1108 -0.0578  0.4501
 1759W        W19963   3.210   8.417  16.654 -0.1154 -0.0781  0.1004
 1760W        W19964   6.594   0.211  13.805 -0.2587  0.1228 -0.4160
 1761W        W19965  15.484  15.908   2.118 -0.0982  0.2134 -0.2657
 1762W        W19966  16.144  13.126   1.335 -0.1129  0.1176  0.0364
 1763W        W19967   1.898  16.035   4.445  0.2723 -0.2522 -0.0279
 1764W        W19968   2.281  16.939  12.771 -0.1862 -0.0144  0.2041
 1765W        W19969   6.521  13.839  15.407  0.0135 -0.1011 -0.0277
 1766W        W19970   4.555  13.452  15.414  0.0414 -0.1091  0.0877
 1767W        W19971   9.117   5.676  16.551 -0.0287 -0.0189 -0.0393
 1768W        W19972   2.046  10.559  13.384  0.0217  0.1004 -0.1394
 1769W        W19973  17.157   5.113  14.392  0.1197  0.0478  0.0729
 1770W        W19974   2.027   8.494  12.575 -0.0705 -0.0028 -0.1970
 1771W        W19975  17.067  12.226   2.127  0.0093 -0.3808 -0.4642
 1772W        W19976  10.089  16.753  16.085 -0.0290  0.0444 -0.0530
 1773W        W19977  10.898   2.186  14.501  0.2457  0.0905  0.1029
 1774W        W19978  15.268  15.510   2.471 -0.2566 -0.0468  0.0964
 1775W        W19979   1.991   6.288  12.503  0.0013 -0.3508  0.1916
 1776W        W19980  10.586   6.682  12.362  0.0208  0.0962 -0.2783
 1777W        W19981   7.012   4.166   0.468 -0.1007 -0.0257  0.0222
 1778W        W19982   5.436   8.784  13.065  0.1699  0.1693 -0.1375
 1779W        W19983  12.035  14.607  15.510  0.1281  0.0317 -0.2399
 1780W        W19984   7.465   0.981   2.269 -0.0220  0.1890 -0.2235
 1781W        W19985   9.505  12.086   3.203  0.0425  0.0081 -0.1437
 1782W        W19986   7.278   6.761  15.397 -0.0018 -0.1811 -0.0133
 1783W        W19987  12.504  15.253  16.947 -0.0394 -0.2371  0.0976
 1784W        W19988  15.383   7.678   2.481  0.1289  0.0420  0.1411
 1785W        W19989  14.913   1.115  12.474  0.2613 -0.1315  0.2200
 1786W        W19990   9.049   2.840   4.801 -0.1167  0.3689 -0.2240
 1787W        W19991   5.259  13.382  12.135 -0.0421  0.2259  0.0318
 1788W        W19992  11.038  12.931   0.664  0.1724 -0.0684 -0.0190
 1789W        W19993  15.404   4.845  12.194  0.0930 -0.0924  0.0432
 1790W        W19994   9.585   3.600  13.056 -0.2162 -0.0005 -0.2224
 1791W        W19995   1.049   4.301   5.646  0.1224  0.3717  0.0842
 1792W        W19996   2.805  10.523   1.160  0.3022  0.2692  0.1139
 1793W        W19997  14.933  11.012  12.938 -0.2628 -0.0555 -0.0032
 1794W        W19998   5.041  11.417  15.507 -0.1801 -0.0274  0.0055
 1795W        W19999   6.776   2.274  16.930 -0.2353 -0.0848 -0.2529
 1796W        W20000  10.637   4.701  14.810 -0.0166  0.1535 -0.0062
 1797W        W20001   4.009  12.210   1.342  0.0225  0.1698  0.1290
 1798W        W20002  15.525   1.530   1.792  0.0263 -0.2000 -0.2538
 1799W        W20003  15.323   2.483  14.352  0.0239  0.1129 -0.0237
 1800W        W20004   7.376  15.365  16.294 -0.0902 -0.1070 -0.0855
 1801W        W20005   3.853  16.646   5.334 -0.0066  0.0099 -0.1396
 1802W        W20006  14.792   2.905   1.509  0.1101 -0.0872  0.0944
 1803W        W20007   6.043   1.004  12.879 -0.1969  0.0854  0.1891
 1804W        W20008  17.096  14.994  16.538  0.1393  0.2274 -0.0011
 1805W        W20009   7.196   6.145  12.191  0.2191 -0.0476  0.0571
 1806W        W20010   4.140  13.207  13.636 -0.1610 -0.0511  0.2346
 1807W        W20011   2.921  10.958  13.419 -0.0560  0.0626  0.1166
 1808W        W20012   1.850  11.442  15.385 -0.2063 -0.1468  0.0242
 1809W        W20013  10.762   6.400   1.261 -0.0633 -0.1994 -0.3690
 1810W        W20014   3.388   0.443   4.876  0.0489 -0.0337  0.2274
 1811W        W20015   1.471   3.818  13.990  0.0453 -0.2594 -0.1040
 1812W        W20016   3.662  13.194  15.069 -0.2950  0.0674  0.0033
 1813W        W20017   7.461   1.409   2.496 -0.0771 -0.1358  0.0073
 1814W        W20018   7.464   3.664  11.341 -0.1116 -0.2226  0.2868
 1815W        W20019   5.477  12.995   3.895  0.0165  0.2272  0.1373
 1816W        W20020   7.028   7.767  16.435  0.0005  0.0029 -0.1118
 1817W        W20021   1.717  12.637  12.558 -0.3026  0.2928 -0.0351
 1818W        W20022   3.256   4.563  17.503 -0.4675  0.1746  0.4276
 1819W        W20023   1.229   8.641  15.231  0.2642 -0.0332 -0.2000
 1820W        W20024   1.674   4.822  14.064  0.0215 -0.1030  0.0764
 1821W        W20025  14.160  14.997  12.936  0.0138 -0.1424  0.0438
 1822W        W20026   7.198   3.981  14.917  0.0417  0.1429 -0.0227
 1823W        W20027  12.202   3.735   0.087  0.0687  0.1504 -0.1299
 1824W        W20028  14.328  14.638  17.369  0.0308  0.0283  0.1799
 1825W        W20029   8.308   0.625  17.493  0.1038 -0.0247  0.0181
 1826W        W20030   8.930   9.195   5.317  0.0646  0.1114  0.3125
 1827W        W20031  17.042   5.712   4.584  0.0129  0.1573  0.0478
 1828W        W20032  15.819   3.899   0.333 -0.1655 -0.3406  0.1635
 1829W        W20033   4.077   5.143  11.836  0.1785  0.0988 -0.0497
 1830W        W20034  16.647   0.114  17.050  0.1976 -0.1923 -0.0387
 1831W        W20035   8.476   3.921   3.639 -0.0137 -0.0128  0.1998
 1832W        W20036   5.914   2.344  15.780 -0.2758  0.0611  0.1460
 1833W        W20037   6.999   2.812  16.089  0.2707 -0.0215  0.0533
 1834W        W20038   2.645  10.997  13.802  0.0227 -0.0548 -0.1135
 1835W        W20039   9.255   0.593   5.275 -0.1335 -0.0926  0.0383
 1836W        W20040   9.543  10.408   5.382  0.0347 -0.2502  0.1661
 1837W        W20041   5.220   2.566  16.938  0.0709  0.2413  0.0505
 1838W        W20042  17.113  11.052   5.057  0.0553  0.1950 -0.2321
 1839W        W20043  16.123   3.183  15.020 -0.1971  0.0637 -0.0683
 1840W        W20044   7.742  13.803   1.978 -0.2422 -0.2874  0.0315
 1841W        W20045  14.935  17.066  12.809  0.2019 -0.0342 -0.2088
 1842W        W20046   9.097  15.037   2.307 -0.1124  0.0888 -0.0664
 1843W        W20047  13.263  15.447  13.099 -0.1598 -0.0222  0.2065
 1844W        W20048  15.600  11.286   3.862  0.0074 -0.1307 -0.1782
 1845W        W20049  14.840   3.520   1.053 -0.1508 -0.0277  0.0199
 1846W        W20050   1.298  17.084   0.499 -0.1997  0.0589  0.1463
 1847W        W20051  12.106   9.058  14.462 -0.3262  0.1148 -0.2652
 1848W        W20052  11.210   9.375   2.156  0.0235 -0.3433  0.0786
 1849W        W20053   3.220  12.649   1.426 -0.0323  0.0281 -0.0983
 1850W        W20054   9.216   7.552   1.197  0.0796 -0.0754  0.4672
 1851W        W20055  16.530  10.489   0.649  0.2528 -0.3209  0.3967
 1852W        W20056   4.457   3.420  12.153  0.0594  0.0539  0.0994
 1853W        W20057   5.098   7.972   0.904 -0.0368 -0.1030  0.1269
 1854W        W20058   4.964  10.873  13.386 -0.0495  0.0044 -0.0027
 1855W        W20059  17.169   8.838  15.911 -0.0132  0.2274  0.0620
 1856W        W20060   5.548   5.232  16.488  0.0401 -0.2063 -0.2057
 1857W        W20061  11.385  16.412   0.295  0.2115  0.1285 -0.3779
 1858W        W20062   3.363   3.106   1.934 -0.2937 -0.0692 -0.1580
 1859W        W20063  15.703   0.892   2.870  0.0357 -0.1453  0.1391
 1860W        W20064  15.662  10.462   0.292 -0.2055  0.3695  0.0705
 1861W        W20065   1.520   7.831  14.927 -0.2097 -0.0788 -0.0343
 1862W        W20066   9.547   9.351   0.668 -0.4142  0.2093  0.0106
 1863W        W20067   3.499   8.994  17.306 -0.0168 -0.1693 -0.1328
 1864W        W20068  17.044  15.812   5.324  0.0173  0.0254  0.2522
 1865W        W20069  16.851   0.423   0.365 -0.1115 -0.2841 -0.0333
 1866W        W20070   3.559   7.309  12.129 -0.1120 -0.3123 -0.4387
 1867W        W20071   7.021  14.379   2.836 -0.3061 -0.2320 -0.0475
 1868W        W20072   3.395  10.538  16.237  0.2394  0.0519  0.3362
 1869W        W20073   0.775  13.920  17.196  0.1731  0.1014 -0.0088
 1870W        W20074   1.040   8.621   4.594  0.1400  0.0460  0.2432
 1871W        W20075   3.214  15.513   0.358  0.0038 -0.1667 -0.2267
 1872W        W20076   1.481   1.996  17.203 -0.0417 -0.0350  0.2381
 1873W        W20077   1.652   3.159   4.558  0.0992  0.2097 -0.0197
 1874W        W20078   1.379  16.217   4.749 -0.1123 -0.2469 -0.0520
 1875W        W20079   7.436  17.012   1.294 -0.2965 -0.1447 -0.2711
 1876W        W20080  11.073   2.129   0.770 -0.2077  0.1104 -0.0205
 1877W        W20081  10.284   6.627  11.876 -0.0266 -0.0862 -0.0194
 1878W        W20082   1.888   8.612  14.765  0.1892 -0.1920  0.0405
 1879W        W20083   8.515   0.887  13.650  0.1806 -0.0622  0.1503
 1880W        W20084   0.582  13.816   3.420  0.1718 -0.2763  0.2964
 1881W        W20085  11.036  11.745  17.278  0.3412  0.1812  0.0676
 1882W        W20086  15.749   6.328   4.276 -0.2445  0.1076  0.2042
 1883W        W20087   3.857  11.172   5.283  0.2648 -0.3299 -0.0197
 1884W        W20088   4.306  14.990  13.952 -0.2333  0.0036 -0.1424
 1885W        W20089   7.218   9.995   4.858  0.2302 -0.1351  0.1351
 1886W        W20090   7.502   9.014   1.486  0.2262 -0.2543 -0.2541
 1887W        W20091   8.394  16.794  13.960  0.2625 -0.1419  0.1115
 1888W        W20092   0.339   3.486  17.461  0.0487 -0.2656 -0.2820
 1889W        W20093   5.812   8.523   4.870 -0.1007  0.2144  0.3036
 1890W        W20094   5.195   4.425  16.537 -0.1389 -0.0302 -0.0330
 1891W        W20095   8.103   9.890   2.254  0.1042  0.1881  0.0232
 1892W        W20096   4.128   2.520  16.139 -0.0823 -0.0413 -0.1364
 1893W        W20097  12.515  17.167   1.311  0.2345  0.0731  0.0768
 1894W        W20098  12.646  10.866   1.357  0.0227  0.0807  0.0111
 1895W        W20099   4.722   7.331  14.174  0.0623  0.0753 -0.0075
 1896W        W20100   1.846  13.362   4.900  0.2067  0.1283  0.0634
 1897W        W20101  12.051   8.928   5.826 -0.0319  0.1033  0.1097
 1898W        W20102   2.712   3.994   4.606  0.0278  0.0719 -0.0882
 1899W        W20103   8.038   8.356   3.645  0.1268 -0.0907 -0.1085
 1900W        W20104   0.652   1.189   4.910 -0.0957 -0.1780  0.0492
 1901W        W20105   8.645  14.688   0.028  0.4420 -0.1286 -0.0564
 1902W        W20106   2.517  11.011   0.231 -0.2012 -0.0068 -0.0847
 1903W        W20107   3.678  10.569   2.934  0.0007 -0.2458 -0.3130
 1904W        W20108  17.083   5.936   2.817  0.0530  0.0408  0.2304
 1905W        W20109   2.463   7.905   2.740  0.1005 -0.2949  0.0092
 1906W        W20110  16.819  12.010  16.462 -0.0089  0.3186  0.0558
 1907W        W20111  15.717  10.619   3.324  0.0286 -0.1397 -0.0820
 1908W        W20112  11.987  17.277  13.187 -0.0811 -0.2309 -0.0728
 1909W        W20113   5.899   4.625  14.174 -0.1632 -0.1178 -0.2129
 1910W        W20114   1.125   6.340  13.053 -0.2488 -0.0867  0.5060
 1911W        W20115  15.356   6.481   4.900  0.1851 -0.2360 -0.1411
 1912W        W20116  10.823   3.181   1.264  0.0282 -0.1487  0.0160
 1913W        W20117   1.797  17.104  17.057  0.0551 -0.2256  0.1882
 1914W        W20118   9.215   3.440   3.499  0.0094 -0.1088  0.2074
 1915W        W20119  10.869   7.510  16.491  0.3928 -0.0364  0.2407
 1916W        W20120  10.834  11.585   5.266 -0.1759 -0.2659 -0.0483
 1917W        W20121   0.875  14.306   4.569  0.1565 -0.0981 -0.1249
 1918W        W20122   1.662  12.171   1.898  0.1520  0.3210 -0.1874
 1919W        W20123   8.653   4.650   1.845 -0.0969  0.1357  0.0536
 1920W        W20124   4.194   0.604   3.986 -0.0153  0.0272  0.2110
 1921W        W20125   1.538  14.764   2.199 -0.0661  0.0343 -0.0284
 1922W        W20126   2.792  15.205   0.595  0.1138  0.1109  0.0291
 1923W        W20127  13.718  11.581  14.909  0.1661  0.0794  0.0436
 1924W        W20128   9.512   2.866  15.255 -0.1833  0.0062  0.0208
 1925W        W20129   8.851   2.734   4.207  0.2924  0.1708  0.0862
 1926W        W20130  13.317  15.322  13.976 -0.1513 -0.0521  0.1590
 1927W        W20131   2.747   9.723  16.259 -0.0612  0.4206 -0.1862
 1928W        W20132   7.111  11.724   4.777 -0.2808 -0.0557  0.1302
 1929W        W20133  14.656   5.744  16.949 -0.0386  0.0620  0.2263
 1930W        W20134  15.623   6.151   2.038  0.1589  0.1210 -0.1383
 1931W        W20135   9.717   0.020   2.551  0.3491 -0.1063  0.0743
 1932W        W20136  11.743   4.042   3.605 -0.1648  0.0370 -0.0682
 1933W        W20137   3.327  14.812  13.439 -0.7589 -0.2495  0.0790
 1934W        W20138  13.460   5.795  16.174  0.0563  0.1289 -0.0883
 1935W        W20139  16.272  10.519  12.951  0.2520 -0.2783  0.1909
 1936W        W20140   9.840  14.434  16.587 -0.2240  0.1578 -0.3268
 1937W        W20141  14.486  10.347   1.777  0.0232  0.0847  0.1373
 1938W        W20142   5.166  13.327   4.079  0.0099 -0.0380  0.2988
 1939W        W20143  12.210  11.721  15.063 -0.2093  0.1975 -0.0170
 1940W        W20144  16.789   1.608   2.025 -0.0730  0.1964  0.1798
 1941W        W20145  11.192   7.693   3.108  0.2042  0.3136 -0.1785
 1942W        W20146  11.995   7.420   3.331 -0.0338 -0.1193  0.1219
 1943W        W20147   0.726  14.019   0.870 -0.1234 -0.0513 -0.0013
 1944W        W20148   9.292   1.092   5.059 -0.0655 -0.1195 -0.0427
 1945W        W20149   3.771  16.875  12.417  0.1098 -0.0794 -0.0039
 1946W        W20150   2.640  14.436   3.400  0.4237  0.0934 -0.1349
 1947W        W20151  11.126   2.242  13.213 -0.1060  0.1677 -0.0550
 1948W        W20152  15.312   3.744   0.255  0.1300  0.1116 -0.1435
 1949W        W20153  16.912   1.149   2.000 -0.4014  0.0625 -0.2532
 1950W        W20154   2.532   1.030   3.838  0.0066 -0.1739  0.0977
 1951W        W20155   3.983   2.890  13.078  0.4585 -0.1608 -0.2716
 1952W        W20156   6.193  13.577   2.400 -0.1313 -0.0889 -0.0503
 1953W        W20157   2.573  10.685  14.806  0.4478 -0.2331 -0.1328
 1954W        W20158   8.731   2.829   1.395  0.2117  0.1112 -0.1589
 1955W        W20159  12.124  15.409   5.285 -0.1863  0.2113 -0.0357
 1956W        W20160   7.690   4.809   4.397  0.2253  0.0498  0.1162
 1957W        W20161  14.915  11.838  14.521  0.0643 -0.2223 -0.2370
 1958W        W20162   3.030  15.605   4.844 -0.0287 -0.1372  0.1526
 1959W        W20163   0.590   7.929   3.253  0.2027 -0.0509  0.2920
 1960W        W20164   5.514   2.645  13.812 -0.1643  0.2110  0.1211
 1961W        W20165   7.747  10.339  17.153 -0.0240  0.0728  0.0146
 1962W        W20166  11.218  13.771  16.820 -0.1290 -0.1221  0.1716
 1963W        W20167   6.167   8.705   0.023 -0.1085  0.4316  0.0737
 1964W        W20168   9.964   7.327   1.808 -0.0967 -0.3182  0.2165
 1965W        W20169   5.177   0.248  12.489 -0.0890 -0.2032  0.2080
 1966W        W20170  14.909   7.728   5.192 -0.2459 -0.1015 -0.1455
 1967W        W20171  15.919   5.595   2.365 -0.1411  0.1558  0.1720
 1968W        W20172  10.351   5.507  13.240 -0.0849 -0.0038 -0.0168
 1969W        W20173   2.644  15.394   2.929  0.0613 -0.0800  0.0739
 1970W        W20174   6.635   4.985  14.374 -0.0478 -0.0591  0.0700
 1971W        W20175  12.880   0.422   3.644 -0.0983  0.1031 -0.2152
 1972W        W20176   9.338   5.114  13.740 -0.1295  0.1750 -0.0005
 1973W        W20177  16.150  11.372  16.315  0.1371  0.0633 -0.3730
 1974W        W20178   6.365   5.361  16.730 -0.3150 -0.0359 -0.1284
 1975W        W20179  12.614   6.728  14.035 -0.3764  0.1404  0.0120
 1976W        W20180  17.024   6.244   3.342 -0.0804 -0.3486  0.3051
 1977W        W20181  15.383   4.631  14.451 -0.1966  0.1705 -0.0072
 1978W        W20182   4.075  15.864  12.968  0.0547  0.0892 -0.1350
 1979W        W20183   7.279  17.287  16.029 -0.0248  0.2156 -0.0820
 1980W        W20184   0.243  13.600  16.013  0.0223 -0.0479  0.1466
 1981W        W20185  10.470   4.989  14.414  0.2855 -0.1338 -0.0317
 1982W        W20186  17.122   8.251   5.415  0.0464  0.0793  0.1604
 1983W        W20187  13.159  13.643  14.111  0.0225 -0.2424 -0.4473
 1984W        W20188  11.983  12.177   1.990 -0.2477 -0.3029 -0.0471
 1985W        W20189  16.988   7.800  14.915 -0.2551 -0.0374  0.2004
 1986W        W20190   6.775  15.715   0.103  0.2928  0.0225 -0.0219
 1987W        W20191  10.919  13.636   2.073 -0.0522 -0.0797  0.0671
 1988W        W20192   4.248   7.982  17.132  0.3786  0.1781 -0.1959
 1989W        W20193   6.120   2.252   4.740 -0.2554  0.1305  0.0577
 1990W        W20194  14.318   5.198   0.994  0.0655 -0.0269  0.0938
 1991W        W20195   2.272   8.064   4.023 -0.0457 -0.1201 -0.0425
 1992W        W20196   5.877   9.044   3.133 -0.2513  0.3127  0.0251
 1993W        W20197  12.645   2.296   2.253 -0.2389  0.0561 -0.0865
 1994W        W20198   7.969   7.259   3.008 -0.2554 -0.1687  0.3050
 1995W        W20199   2.009   1.768   4.694  0.3685  0.0066 -0.3456
 1996W        W20200   7.802  15.580  16.551  0.0067 -0.1928 -0.0690
 1997W        W20201   9.516   1.878   6.098  0.1984 -0.0788  0.1225
 1998W        W20202   1.015  16.760  15.473 -0.2300  0.1704  0.1623
 1999W        W20203   9.399   2.785  14.628 -0.1133 -0.2121  0.0401
 2000W        W20204   4.513   4.645   2.555 -0.0144 -0.2206 -0.0305
 2001W        W20205   8.383  15.904  13.630  0.0270  0.1174 -0.1260
 2002W        W20206  11.199   3.220  12.593 -0.0947  0.0166  0.1255
 2003W        W20207   0.678   9.318  14.745  0.3706  0.1684  0.1521
 2004W        W20208   4.884  12.594   0.072 -0.0544  0.0359 -0.0723
 2005W        W20209  15.150  10.407   5.910 -0.1058  0.5209  0.2991
 2006W        W20210  11.501  13.004   1.559  0.0754  0.0722 -0.0541
 2007W        W20211   9.243   3.284  15.025  0.1426  0.0931  0.0128
 2008W        W20212   6.970   5.267   0.651 -0.0638 -0.0371 -0.1504
 2009W        W20213   9.865  15.632   1.702 -0.1569 -0.0024  0.1524
 2010W        W20214  16.203   8.318  16.077 -0.0520  0.1689  0.2546
 2011W        W20215  16.987  13.878   2.065 -0.3920  0.3249  0.1838
 2012W        W20216   4.093   7.902   2.290 -0.4003  0.2628 -0.0860
 2013W        W20217  12.164   5.694  14.616 -0.0036  0.2413  0.2327
 2014W        W20218  10.549  10.590   1.530  0.0468 -0.0569  0.3926
 2015W        W20219   2.109   4.989  16.749 -0.0931 -0.0172  0.0724
 2016W        W20220   3.013  13.727  12.783  0.1563  0.2303  0.1522
 2017W        W20221   6.422   5.344   3.342 -0.1957  0.1458  0.0531
 2018W        W20222  13.850   0.499  14.956  0.0975 -0.2139 -0.4842
 2019W        W20223   8.237  12.706   4.491  0.2315  0.3455  0.0469
 2020W        W20224   9.382  16.253  15.816 -0.3465  0.2442 -0.3143
 2021W        W20225   3.248  15.689   1.853 -0.2772 -0.2642  0.0404
 2022W        W20226  13.654   1.973  13.427  0.1018  0.2864  0.1627
 2023W        W20227   4.544   4.513  12.054 -0.1348 -0.1806  0.4277
 2024W        W20228   9.939  14.058  14.602  0.1955 -0.1993  0.4005
 2025W        W20229  16.191  11.255  14.264 -0.0619  0.1807  0.1706
 2026W        W20230   3.128  11.693   3.984 -0.1471  0.1187 -0.1269
 2027W        W20231  11.378   7.822  16.709 -0.4028 -0.1621 -0.0786
 2028W        W20232   2.123  11.541  14.899 -0.2841  0.1878 -0.2760
 2029W        W20233   9.152  16.703  15.945 -0.1041 -0.4325 -0.0518
 2030W        W20234  12.667   8.106   1.858  0.1262  0.1393 -0.0564
 2031W        W20235   6.903   2.931   3.995 -0.1280 -0.3003 -0.1887
 2032W        W20236   2.222  13.988  12.413 -0.1343  0.0047  0.0950
 2033W        W20237   4.933   1.907  13.581 -0.0148  0.1172  0.0737
 2034W        W20238  10.855   2.854   0.481 -0.0453 -0.0507  0.0228
 2035W        W20239   4.475   1.226  16.690 -0.1662 -0.2937  0.0790
 2036W        W20240  12.440  11.899   4.466 -0.0264 -0.2692  0.0816
 2037W        W20241   6.227   8.822   0.929 -0.2124 -0.0960 -0.0613
 2038W        W20242   5.995  14.250  14.229 -0.0320  0.0791  0.0439
 2039W        W20243   0.819   2.335  12.464  0.0950  0.0814  0.2467
 2040W        W20244  16.777   3.756  16.931  0.1430  0.1450  0.0729
 2041W        W20245   7.557   8.958  15.388  0.3279  0.0161  0.4831
 2042W        W20246   7.192  17.216   4.234  0.2421 -0.0973 -0.1794
 2043W        W20247   4.968  17.164   3.417 -0.0521  0.1639 -0.3862
 2044W        W20248   0.631  15.198  15.194 -0.2237 -0.3075  0.0981
 2045W        W20249  15.790   8.482  16.379 -0.1851 -0.1229 -0.0649
 2046W        W20250  10.825   1.026  16.427  0.2035  0.1814  0.3543
 2047W        W20251   1.973   0.535   2.902  0.0044  0.3952  0.1265
 2048W        W20252   5.151  12.529   4.569  0.0229 -0.0657  0.1015
 2049W        W20253  16.001   2.961   4.888  0.0677 -0.0295  0.2482
 2050W        W20254   1.930   0.268   4.106 -0.3044 -0.0259  0.2084
 2051W        W20255  17.001  15.238  14.239 -0.2159  0.2080  0.2581
 2052W        W20256   7.215   3.113   4.395 -0.2143  0.0970 -0.1426
 2053W        W20257   0.130   6.129   4.756 -0.1673 -0.1596 -0.0906
 2054W        W20258  15.233  15.129  13.779  0.0934 -0.0074  0.0831
 2055W        W20259   3.314   9.422   3.710 -0.2016 -0.1307  0.1115
 2056W        W20260   9.660   7.716  12.904 -0.0281  0.1413 -0.0303
 2057W        W20261  12.481   9.901  13.240 -0.1397 -0.2113 -0.0366
 2058W        W20262   8.111  11.597   3.645  0.0085  0.0116  0.1486
 2059W        W20263   3.471   5.685  12.829 -0.2219 -0.2129  0.2656
 2060W        W20264  14.911   6.110   1.489 -0.4046 -0.0686  0.0093
 2061W        W20265  10.039  16.735  16.784  0.0797  0.0824  0.3881
 2062W        W20266   1.479   4.396  12.323 -0.0121  0.0880  0.1752
 2063W        W20267   6.483  13.391  15.616  0.0336 -0.1718  0.0537
 2064W        W20268   4.697  16.450  15.064 -0.0779 -0.0970 -0.1318
 2065W        W20269   4.591   3.960   4.099  0.2633 -0.3290  0.2936
 2066W        W20270   9.873   2.057   5.073  0.0174  0.1691  0.0932
 2067W        W20271   7.846   1.407  17.432 -0.0271 -0.1986 -0.0637
 2068W        W20272   8.300   3.013  15.443 -0.3045  0.3479  0.3066
 2069W        W20273   9.501   6.677   5.254 -0.1831 -0.2362 -0.0297
 2070W        W20274  13.843   1.771  16.091  0.2109 -0.1792 -0.0216
 2071W        W20275  14.596  17.144   0.826  0.0542  0.2531 -0.0534
 2072W        W20276  10.722   5.895   1.109 -0.1117  0.0786  0.1189
 2073W        W20277  13.653   9.335  14.255  0.0854  0.0181 -0.0659
 2074W        W20278   8.500   2.091   0.523 -0.1407  0.0849 -0.0608
 2075W        W20279   6.666   1.680  17.265  0.3550  0.0326  0.0363
 2076W        W20280   8.949   5.175   4.260  0.1361 -0.1834 -0.1685
 2077W        W20281   5.287   3.380  13.602 -0.2014 -0.1571 -0.0007
 2078W        W20282  12.052  14.450  13.645 -0.0421  0.2645 -0.3078
 2079W        W20283  11.113   1.182   4.454 -0.2012 -0.2667 -0.0163
 2080W        W20284   6.011   5.940  14.998  0.1215 -0.0344  0.1624
 2081W        W20285   7.065  11.324   0.159  0.1662  0.1525  0.1192
 2082W        W20286   5.431  10.029  15.335  0.1312  0.0208 -0.1266
 2083W        W20287  15.761  17.053  12.934  0.0619  0.1446  0.1021
 2084W        W20288  11.872  16.572  16.374  0.2171  0.2410  0.4208
 2085W        W20289   3.237   2.670   1.788  0.1167 -0.2715 -0.1268
 2086W        W20290  10.755  10.038   2.743  0.0177 -0.1486 -0.0890
 2087W        W20291   5.653  10.963  14.313 -0.1139 -0.0914  0.1801
 2088W        W20292  11.267   4.037  15.825  0.0447 -0.0173  0.2476
 2089W        W20293   2.056   0.227   0.268  0.0049  0.1475  0.2219
 2090W        W20294   3.972  16.864   1.932 -0.0733 -0.0198 -0.2350
 2091W        W20295  14.691   5.279  16.747 -0.3924  0.1856 -0.0967
 2092W        W20296   3.050   7.264   2.231  0.1303 -0.0374 -0.0877
 2093W        W20297   4.744   2.773   1.188  0.2079 -0.1361  0.1599
 2094W        W20298  14.419  10.338  13.149 -0.4385 -0.1204  0.2008
 2095W        W20299   5.440   6.712  15.222  0.0623 -0.0013 -0.3683
 2096W        W20300  12.253   3.990   1.857 -0.0763 -0.3235 -0.2785
 2097W        W20301   2.333  13.631   2.390 -0.0415 -0.0089 -0.1121
 2098W        W20302  15.674   9.312   4.633  0.2925 -0.1280  0.0482
 2099W        W20303  11.605   6.956   2.371 -0.2517 -0.2640 -0.0825
 2100W        W20304   5.877  11.386  16.866 -0.0564  0.0054  0.1517
 2101W        W20305   3.839   3.151  14.335  0.0291  0.0855 -0.1100
 2102W        W20306   2.391  12.355  15.299  0.0160  0.2373 -0.0328
 2103W        W20307  17.022   4.543  13.205  0.0283 -0.1726 -0.3104
 2104W        W20308  12.678  14.564  14.329  0.0463  0.1929 -0.2339
 2105W        W20309   9.220  10.254   1.567  0.2046 -0.2190 -0.2156
 2106W        W20310  12.729   6.796   1.199  0.3461 -0.3699 -0.0475
 2107W        W20311   9.253  15.940  17.089  0.0633 -0.0666  0.0774
 2108W        W20312   5.692  10.697   0.272 -0.0129 -0.0425 -0.3001
 2109W        W20313   7.276  14.635  17.032  0.0777 -0.0958  0.3192
 2110W        W20314  10.359  16.262  16.268 -0.1516  0.2558  0.3450
 2111W        W20315   8.010   3.960   0.748 -0.1837 -0.1314  0.3209
 2112W        W20316  15.155  15.102   6.055  0.0974  0.1359 -0.0413
 2113W        W20317  16.086  15.933   5.193  0.0553  0.0477 -0.0684
 2114W        W20318  16.827   2.367   2.772 -0.3661 -0.0367 -0.0424
 2115W        W20319  13.028  13.341  16.311 -0.1128 -0.4038  0.2171
 2116W        W20320  10.857   3.825  16.049 -0.2864  0.3172 -0.2629
 2117W        W20321   7.665   0.771   1.353 -0.1261 -0.1467 -0.1675
 2118W        W20322  13.399   4.538  14.856 -0.0557 -0.0586  0.1049
 2119W        W20323   3.919   7.701  16.062 -0.2324  0.2231  0.1005
 2120W        W20324  11.766  12.579   5.448  0.2532 -0.1290  0.0417
 2121W        W20325  16.406   2.811  16.383  0.0864 -0.0324 -0.2594
 2122W        W20326   4.828   6.412   4.776  0.1254  0.0663  0.0569
 2123W        W20327  14.169   4.026  13.580 -0.3282 -0.4217 -0.1614
 2124W        W20328  11.674  15.325   0.059  0.1404 -0.0092  0.0812
 2125W        W20329   6.156   9.156   3.846 -0.0457 -0.1021 -0.0603
 2126W        W20330   9.001  12.778   3.285 -0.1262 -0.1495  0.0891
 2127W        W20331  10.597   5.701   1.843 -0.0027 -0.1428 -0.0596
 2128W        W20332  13.729  14.632   4.503 -0.1233 -0.0237 -0.1126
 2129W        W20333   7.641   0.477  15.317  0.0206  0.0195 -0.1345
 2130W        W20334  10.715  14.871   4.483  0.1021 -0.1344 -0.3827
 2131W        W20335  17.019  16.701  13.644 -0.1203 -0.1130  0.1625
 2132W        W20336   8.258  10.830  12.130  0.0678 -0.0341 -0.0860
 2133W        W20337   1.850  13.838  15.825  0.0745 -0.0189  0.2766
 2134W        W20338  11.627   6.118   5.025  0.0743 -0.6328  0.0880
 2135W        W20339   3.937   0.771  13.128 -0.0238  0.0515 -0.0185
 2136W        W20340  10.594   5.265  14.042  0.1504 -0.0980 -0.1735
 2137W        W20341  13.619   3.364  13.689 -0.0340  0.1185  0.3052
 2138W        W20342  15.929   0.466  15.650  0.0121 -0.0464 -0.1421
 2139W        W20343  14.514   9.417  12.740 -0.0861 -0.1281 -0.2409
 2140W        W20344   9.570   4.148  13.330 -0.4241  0.0105  0.0401
 2141W        W20345  16.026   9.778   2.202  0.0580 -0.0397 -0.0562
 2142W        W20346   4.507  14.437  14.049  0.0595 -0.1547 -0.1199
 2143W        W20347   8.189  16.914   1.033 -0.1786 -0.0159  0.0461
 2144W        W20348  11.042   3.401   1.698 -0.2659 -0.0285 -0.0625
 2145W        W20349  15.733  16.185  16.147  0.2698  0.0796 -0.0366
 2146W        W20350   2.754   8.035  14.177  0.2648  0.1947  0.1737
 2147W        W20351  17.212   1.004  17.418  0.0720 -0.0859  0.1619
 2148W        W20352   6.849   3.859  16.629 -0.0967  0.2673  0.2654
 2149W        W20353  15.285  14.093  17.438 -0.3700  0.1807  0.2791
 2150W        W20354   9.440   8.112   2.672 -0.4205 -0.0155 -0.2216
 2151W        W20355   9.049   1.189  12.832 -0.3469  0.0557  0.1017
 2152W        W20356  10.255  11.774   4.500  0.1495 -0.1508  0.1522
 2153W        W20357   0.218   9.050  16.680 -0.3427 -0.0550 -0.0416
 2154W        W20358   3.353  13.782  16.597  0.2949  0.1935  0.1516
 2155W        W20359   6.608   2.307   2.145 -0.0324  0.1751  0.0289
 2156W        W20360   6.828   5.331   2.131 -0.1179  0.1946  0.1820
 2157W        W20361   9.348   8.829  17.264  0.0932  0.0721  0.0700
 2158W        W20362   3.297  16.215   1.127 -0.0786 -0.2897 -0.2989
 2159W        W20363   6.594   8.900   1.307  0.2668  0.2643 -0.0732
 2160W        W20364   7.621   2.419  12.284  0.0609  0.2040  0.3413
 2161W        W20365   7.345   2.425  16.202  0.1714 -0.1125  0.1144
 2162W        W20366   9.315  12.086  15.185 -0.1001  0.0462  0.0464
 2163W        W20367  10.368  10.524   3.615  0.0012  0.0199 -0.1503
 2164W        W20368  10.987   9.122  15.456 -0.2246  0.1515  0.0682
 2165W        W20369  13.503   5.553  15.160  0.1401  0.0247 -0.2083
 2166W        W20370   5.380   5.323   1.904 -0.0146  0.3933 -0.2476
 2167W        W20371  11.457  10.519  15.849  0.2863 -0.0989  0.0202
 2168W        W20372   7.518   9.874   2.372 -0.1754  0.0727  0.0566
 2169W        W20373   4.968   0.776  14.306 -0.0325  0.1761  0.3770
 2170W        W20374  12.362  15.792  12.303 -0.1324 -0.1007  0.2416
 2171W        W20375  15.180  11.691   0.961  0.2393  0.0727  0.4765
 2172W        W20376   8.096   4.597  13.941 -0.2827  0.2525  0.0282
 2173W        W20377   5.802   7.928  12.196 -0.2879  0.1562 -0.1030
 2174W        W20378   5.141   5.554   4.822 -0.1469  0.0542 -0.0664
 2175W        W20379  13.934  10.170   2.507  0.0034  0.1337 -0.1149
 2176W        W20380   1.671   3.186  16.472 -0.1720  0.0342  0.3944
 2177W        W20381  12.502   3.503  15.350 -0.0456  0.1566  0.0831
 2178W        W20382   9.042   7.095   3.720 -0.3615  0.3196  0.4516
 2179W        W20383   6.676   2.827  12.970  0.2415  0.3430 -0.0655
 2180W        W20384  10.996   5.032  12.232  0.1419 -0.0971 -0.3625
 2181W        W20385   4.913   8.582  13.883  0.1225 -0.0766 -0.1784
 2182W        W20386  11.190   1.268   3.106 -0.1362 -0.3802  0.3713
 2183W        W20387   0.736   7.062   1.983  0.1665  0.0672 -0.1419
 2184W        W20388  15.774   5.877  13.990  0.2192  0.2772 -0.1515
 2185W        W20389  11.344  12.395   3.626 -0.0749  0.0302 -0.2475
 2186W        W20390  10.108   6.995   3.696  0.2141 -0.1925 -0.0013
 2187W        W20391  15.785   7.194  15.696 -0.2961  0.3429  0.0906
 2188W        W20392   4.885   8.797  13.081  0.1217  0.0480  0.0852
 2189W        W20393   7.089   1.736  12.623  0.0016  0.1682 -0.2630
 2190W        W20394  16.969  15.976   3.737  0.1650 -0.0229  0.2124
 2191W        W20395   6.823  14.096   4.659 -0.0564 -0.1830  0.1329
 2192W        W20396  10.087   4.955  15.895 -0.0642  0.0299  0.0396
 2193W        W20397   4.816   8.271  13.090 -0.1537 -0.2114  0.2965
 2194W        W20398  10.277   8.373  17.267 -0.3858 -0.1672 -0.1210
 2195W        W20399   1.709   3.318  15.978  0.0368 -0.0798 -0.0736
 2196W        W20400  16.788   3.138  14.382 -0.0370 -0.3421  0.0309
 2197W        W20401   0.233  15.280  15.898  0.1899  0.1699  0.3377
 2198W        W20402  17.031  12.815  14.814 -0.0725  0.0564  0.0253
 2199W        W20403  12.739   2.968  12.699  0.1656  0.2430  0.1826
 2200W        W20404  16.420  15.094   3.326 -0.0596  0.0007 -0.0998
 2201W        W20405   7.036  14.140   2.209  0.1340  0.1845 -0.1972
 2202W        W20406  11.467   6.136  14.365  0.1877  0.1182 -0.1775
 2203W        W20407  11.387  14.219  16.040 -0.3478  0.2934  0.0515
 2204W        W20408   3.477   5.111   5.974  0.0451  0.1282  0.0979
 2205W        W20409   7.031  11.704  12.733 -0.1161 -0.0139  0.0476
 2206W        W20410   3.731   4.457   4.284  0.1535  0.1055 -0.1470
 2207W        W20411   8.909   0.506  11.990 -0.1585  0.0280  0.0586
 2208W        W20412   1.879  10.399   2.734 -0.2495  0.0932  0.0941
 2209W        W20413   8.414  11.157  12.546  0.1795  0.0202 -0.0245
 2210W        W20414   7.247  10.947  12.112 -0.1719  0.0504 -0.0751
 2211W        W20415   3.302   2.337   4.756  0.2351  0.1224 -0.0205
 2212W        W20416   1.210   6.048  15.453  0.1711 -0.0276  0.0817
 2213W        W20417  16.129   8.284  13.691 -0.1827 -0.2438 -0.1850
 2214W        W20418  16.283   8.037  17.097 -0.4383 -0.2110  0.0925
 2215W        W20419   8.917  14.126  16.265 -0.0652 -0.1126  0.0010
 2216W        W20420   7.104   6.222  14.723  0.0499 -0.3210 -0.0377
 2217W        W20421   0.523  12.610  16.012 -0.3909 -0.0510  0.1943
 2218W        W20422  12.378   9.446   5.071  0.2146 -0.0844 -0.3217
 2219W        W20423  17.242  14.447   5.406  0.0092  0.2686  0.1253
 2220W        W20424   1.019   1.817   4.412  0.0164 -0.1556  0.1887
 2221W        W20425   8.512   6.773   1.779 -0.0625 -0.1298 -0.0858
 2222W        W20426   3.924   6.045  15.064 -0.0447 -0.0458 -0.2108
 2223W        W20427   6.560   7.071  13.141  0.3072  0.0786  0.0300
 2224W        W20428   6.794  11.285  15.312 -0.0786 -0.2174  0.1900
 2225W        W20429   3.782  11.626   4.693 -0.0315 -0.2429 -0.1786
 2226W        W20430   4.776  12.028   3.032 -0.0249  0.1895 -0.0043
 2227W        W20431  16.009   1.616  12.592 -0.2020 -0.0464 -0.3977
 2228W        W20432   4.009   3.436  12.463  0.1856  0.4429 -0.0936
 2229W        W20433   7.532   7.707  16.342 -0.0985 -0.2335 -0.1142
 2230W        W20434   3.671   3.841   0.195  0.1043 -0.4072  0.1908
 2231W        W20435  13.669  11.062   2.721  0.3530  0.0863  0.0629
 2232W        W20436  10.187   6.482   2.007 -0.1630 -0.0202 -0.0263
 2233W        W20437  15.322  16.884  14.757 -0.0550  0.2312 -0.1781
 2234W        W20438   7.592   9.670  13.751 -0.1781 -0.0043  0.1669
 2235W        W20439  16.710   4.314  14.109  0.0607 -0.0227 -0.0050
 2236W        W20440   3.302   4.474   2.292 -0.1384  0.0190  0.1018
 2237W        W20441   1.011   4.784   3.037  0.0757 -0.1578 -0.2526
 2238W        W20442   2.942  12.291   3.437 -0.3476 -0.0032  0.0179
 2239W        W20443  11.754   8.208   1.929  0.1649  0.2618 -0.1392
 2240W        W20444   7.074  13.844   3.721 -0.0105 -0.0005 -0.0290
 2241W        W20445  12.689  16.210  12.289  0.3097 -0.0664 -0.2023
 2242W        W20446  13.449   8.138  12.858  0.4143 -0.1039  0.2452
 2243W        W20447   0.681  15.697   5.793  0.1613  0.1993 -0.0951
 2244W        W20448  10.928  10.257   0.013  0.1190 -0.1380  0.1354
 2245W        W20449  17.143  16.532   2.490 -0.1980 -0.1082 -0.0522
 2246W        W20450   3.491   7.082  15.785 -0.0856 -0.2548  0.0783
 2247W        W20451   8.542  13.476   0.821  0.2246  0.3168  0.2000
 2248W        W20452   4.870   0.490  17.258 -0.2406  0.0829  0.0500
 2249W        W20453  11.554  13.137  15.034  0.1897  0.1151 -0.0163
 2250W        W20454   0.952   5.762  17.382  0.1254 -0.1075 -0.2226
 2251W        W20455  11.297  16.631   2.159  0.3009 -0.0447 -0.0460
 2252W        W20456  12.006   7.628  15.913 -0.0423 -0.0150  0.2326
 2253W        W20457   1.142   2.345  14.632  0.0030  0.0952 -0.1760
 2254W        W20458  11.647   2.770  16.219 -0.1090  0.2695  0.0847
 2255W        W20459   1.166   5.969   4.791 -0.3280  0.2353  0.1305
 2256W        W20460   1.149  11.288  16.361  0.0847  0.0176 -0.1188
 2257W        W20461  10.496   7.475  16.095 -0.0796  0.1552 -0.2908
 2258W        W20462   3.747  13.660   1.945 -0.2404  0.5726 -0.2114
 2259W        W20463   3.723  16.493  11.770 -0.1349 -0.0800  0.1306
 2260W        W20464   0.217   8.668  15.144  0.0845  0.1810 -0.3079
 2261W        W20465  17.178  14.573   1.989 -0.2328 -0.0395  0.2001
 2262W        W20466   2.266  12.253  13.796  0.2032 -0.0229 -0.0399
 2263W        W20467   3.516   8.013  17.511 -0.1024  0.0301 -0.1020
 2264W        W20468   0.088   6.280   2.974 -0.0845  0.0678  0.0818
 2265W        W20469   8.859  15.108  15.765 -0.0616  0.0720 -0.0609
 2266W        W20470   0.138  15.357   3.459  0.1742 -0.3985  0.0493
 2267W        W20471   4.267   1.205  12.788 -0.0504 -0.0036 -0.2786
 2268W        W20472  16.340   4.555   5.434  0.0380  0.1115  0.0556
 2269W        W20473   9.471  14.037   0.868 -0.0601 -0.0897  0.1966
 2270W        W20474   0.213   2.625  15.595  0.1931 -0.2505 -0.1308
 2271W        W20475   1.535   0.710   5.145  0.1589 -0.2112  0.1041
 2272W        W20476   9.997  15.083  15.407 -0.0612  0.0632  0.2646
 2273W        W20477  16.621  17.198  15.538  0.0103 -0.3265 -0.3534
 2274W        W20478   1.597  15.443   4.985  0.1681  0.3199 -0.1498
 2275W        W20479  13.363   2.592   5.299  0.4232 -0.0638  0.0498
 2276W        W20480   7.703   3.547   1.665  0.3202  0.0677  0.0153
 2277W        W20481   9.794   4.836  12.044  0.0760  0.0082  0.1844
 2278W        W20482  16.647  10.207  14.894 -0.1461  0.2976 -0.3139
 2279W        W20483  14.356  16.115  14.904  0.1483  0.1017  0.1688
 2280W        W20484   6.035   1.952   0.368 -0.1002  0.1090  0.2235
 2281W        W20485   5.410   2.471   5.442  0.2095 -0.0015  0.0553
 2282W        W20486   3.426   7.432   4.296  0.0174 -0.0988  0.0761
 2283W        W20487   5.594   3.947   0.980 -0.0914  0.1967  0.0362
 2284W        W20488  11.881  14.057   4.638 -0.1855  0.4777 -0.0628
 2285W        W20489  11.429   8.131   2.324 -0.1837 -0.2918 -0.1950
 2286W        W20490  14.564   1.789   5.572 -0.0187  0.0600  0.2390
 2287W        W20491   3.652  15.988  16.625 -0.1913  0.0661 -0.1691
 2288W        W20492   8.689  16.679  12.034 -0.1581  0.1678 -0.0476
 2289W        W20493  14.554  14.624  14.934  0.1160 -0.0054  0.1019
 2290W        W20494   9.730  17.210   0.266 -0.0823  0.1483 -0.0254
 2291W        W20495   4.517   6.471  17.283 -0.2673 -0.0227 -0.2057
 2292W        W20496   3.853   5.964   0.969 -0.2003  0.0890  0.1858
 2293W        W20497   3.674  16.484   1.840  0.0838 -0.0838 -0.1695
 2294W        W20498  15.655   0.596  16.055 -0.0912 -0.1677  0.4120
 2295W        W20499   6.741  16.831   1.772 -0.2098  0.1092 -0.1455
 2296W        W20500  11.975   9.712   2.386 -0.0248  0.0281 -0.0829
 2297W        W20501  14.601   1.633  12.603  0.3149 -0.1157 -0.0443
 2298W        W20502  10.752   2.810  17.224  0.3955  0.1071  0.0654
 2299W        W20503  13.533   1.526  17.410 -0.1136 -0.2781 -0.4502
 2300W        W20504  13.397  15.659  16.144 -0.0676  0.4262 -0.0073
 2301W        W20505   7.703   4.922   0.700  0.1297  0.1494 -0.2971
 2302W        W20506   9.037  15.800   3.316  0.1823 -0.3338 -0.1630
 2303W        W20507   6.052   6.443   0.790 -0.0313  0.0221 -0.0464
 2304W        W20508  13.776  12.412   1.391 -0.3473  0.2602  0.1754
 2305W        W20509  15.569  11.870   1.379 -0.0461  0.1183  0.0162
 2306W        W20510  13.177   6.982   4.329  0.0778 -0.0085  0.1920
 2307W        W20511   4.454  14.706  15.083  0.0504  0.1901  0.3224
 2308W        W20512   0.558  10.859   1.229 -0.2002  0.2138  0.0478
 2309W        W20513   4.934   5.026  13.968 -0.0910 -0.0877  0.0127
 2310W        W20514   6.656   9.735   0.154 -0.0165 -0.2372  0.1907
 2311W        W20515  15.908  16.621   4.260  0.1271 -0.0416  0.0310
 2312W        W20516   6.127   6.496  17.371 -0.1825  0.3236  0.2962
 2313W        W20517  16.551   4.446   0.095  0.1504 -0.1389  0.0691
 2314W        W20518  13.158  14.846   0.463  0.1575 -0.0615 -0.0882
 2315W        W20519   4.008  12.547   6.539  0.1693 -0.0379 -0.1757
 2316W        W20520   3.476   0.404  14.493 -0.1168 -0.1947 -0.2101
 2317W        W20521  13.645  14.893  16.122 -0.0253 -0.3564 -0.1122
 2318W        W20522   3.574   4.360  12.113  0.0953  0.1003  0.0085
 2319W        W20523  11.361   8.547   2.035 -0.0122 -0.0820  0.0905
 2320W        W20524   2.486   6.445   0.781  0.0994  0.3176  0.0643
 2321W        W20525   6.916   3.490   4.680 -0.2321 -0.2055  0.2454
 2322W        W20526   3.574   0.388   0.038  0.2031  0.0024  0.0589
 2323W        W20527   3.506   9.122  13.043 -0.0701 -0.0063  0.3164
 2324W        W20528  11.399   5.796   4.720 -0.0051 -0.4655  0.3467
 2325W        W20529   9.253   7.228   2.279  0.0221 -0.0415  0.3535
 2326W        W20530   7.535  16.282  15.072  0.0332  0.1739  0.1689
 2327W        W20531  10.233  12.660  11.972 -0.2468  0.0716 -0.1262
 2328W        W20532  15.705  17.267   5.133  0.2165 -0.2635 -0.0877
 2329W        W20533   8.370   7.260  15.676  0.2382  0.0228 -0.0576
 2330W        W20534   8.694  13.200   4.557 -0.1476 -0.1877  0.0246
 2331W        W20535  15.713   2.745  13.075  0.1662  0.2751 -0.0174
 2332W        W20536   5.357  10.619   1.918 -0.0733 -0.1891  0.1334
 2333W        W20537   7.703  14.606   2.363  0.0200 -0.0771 -0.0674
 2334W        W20538   9.640   0.565   0.622  0.2780  0.1881  0.0627
 2335W        W20539  16.714  14.394  12.575  0.0653  0.0990 -0.0887
 2336W        W20540  10.693   6.618  15.973  0.2959 -0.0998  0.0145
 2337W        W20541   5.392   0.306  16.592  0.0479  0.4338  0.3761
 2338W        W20542  12.919   7.412   2.934 -0.0026  0.0562  0.2900
 2339W        W20543   4.135   0.020  13.861  0.2713  0.0228 -0.0615
 2340W        W20544   7.915   5.863   0.584 -0.1000 -0.0123  0.1358
 2341W        W20545  15.280  17.122   5.347 -0.2632 -0.0330 -0.1060
 2342W        W20546   4.274  13.260  14.136  0.0742  0.0216 -0.1539
 2343W        W20547  16.581   3.860  13.882  0.0361 -0.2210 -0.1775
 2344W        W20548   4.547   5.920   3.212 -0.0440 -0.0159  0.2083
 2345W        W20549   8.743  14.215  14.411  0.0162  0.2300  0.0484
 2346W        W20550  15.114   9.749  13.206 -0.1101 -0.1460  0.1788
 2347W        W20551   7.101   6.688   0.868  0.0022  0.0861  0.2416
 2348W        W20552  12.589  15.736  15.695 -0.2324 -0.0959  0.1459
 2349W        W20553   3.190   2.661   3.267  0.2910  0.3065 -0.1843
 2350W        W20554   9.767   8.387   1.067 -0.3894  0.2304 -0.0103
 2351W        W20555   4.773   3.259   0.912 -0.1002  0.1630  0.1751
 2352W        W20556   4.317  13.926  12.888  0.0040 -0.2861  0.1440
 2353W        W20557  14.180  11.297  13.048  0.0962  0.0152 -0.0537
 2354W        W20558   7.273   1.329   0.532 -0.2416 -0.0692  0.0073
 2355W        W20559   2.962   9.716  13.264 -0.0311  0.0045 -0.0002
 2356W        W20560  17.212  11.762  13.293 -0.3159  0.1075 -0.1361
 2357W        W20561  14.647  10.639  12.798 -0.0081 -0.0548 -0.0559
 2358W        W20562   8.835   2.717   0.439 -0.0752  0.0358 -0.2302
 2359W        W20563  13.931  10.628  16.650 -0.3365  0.0382 -0.1185
 2360W        W20564  17.050   8.206   3.487  0.0641 -0.2075 -0.1353
 2361W        W20565   1.486  10.162   1.863 -0.2726  0.0355 -0.2290
 2362W        W20566  11.192  13.178   2.048  0.0555 -0.0060 -0.2012
 2363W        W20567   9.683  14.139  13.520 -0.0102  0.2536  0.2916
 2364W        W20568   3.669   6.021   2.001 -0.0837  0.0391 -0.0258
 2365W        W20569  12.177   7.553   0.015  0.0043  0.1042 -0.1192
 2366W        W20570  13.075  14.186   2.426 -0.0787  0.0684 -0.1543
 2367W        W20571   7.818  12.380   4.726 -0.2030 -0.2360 -0.2566
 2368W        W20572   2.316  15.933  17.140  0.1565  0.0552  0.1260
 2369W        W20573  14.842  10.778  14.526  0.0145 -0.0793  0.2576
 2370W        W20574   6.304  17.024   4.432 -0.0649  0.1164 -0.0598
 2371W        W20575   0.607   8.784  12.642  0.1500  0.0034  0.1771
 2372W        W20576   8.456  14.738  14.445 -0.0218 -0.0784 -0.3328
 2373W        W20577   2.511  13.772   0.836  0.1334  0.1548  0.3473
 2374W        W20578   2.927   1.154   0.539  0.0589  0.1035 -0.0174
 2375W        W20579  10.770   2.850   4.317 -0.0135  0.3063 -0.0786
 2376W        W20580   9.293   0.960  13.290  0.1491  0.0146  0.2407
 2377W        W20581  12.455  16.117  17.079  0.1188 -0.2166  0.0765
 2378W        W20582  14.096  10.451   1.435  0.4172  0.0963  0.2365
 2379W        W20583   4.779   1.627  16.574 -0.1067  0.1474  0.1534
 2380W        W20584   5.103  11.200   0.545  0.0429 -0.0405  0.2488
 2381W        W20585  13.189  13.043   2.615 -0.1381  0.1514 -0.0253
 2382W        W20586   1.412  12.334  17.373 -0.0686 -0.0741 -0.0206
 2383W        W20587   7.724   2.027   0.276  0.2523  0.1718 -0.1649
 2384W        W20588   2.633   1.869  17.291 -0.3435  0.1842 -0.1510
 2385W        W20589  11.502  10.453  14.606 -0.0497 -0.0396  0.2528
 2386W        W20590  14.098  15.253   3.746 -0.0427  0.1761  0.1869
 2387W        W20591   9.132  12.759   1.381 -0.0170 -0.0322 -0.0642
 2388W        W20592   9.879   2.256   6.062 -0.1282  0.2411 -0.0096
 2389W        W20593  13.990   8.269   5.458  0.1597  0.0604  0.1711
 2390W        W20594  15.654   3.453   3.189  0.2081  0.0432  0.3199
 2391W        W20595  10.671  10.560   4.027 -0.2029 -0.1072 -0.1645
 2392W        W20596   3.614  12.770  12.051 -0.0253  0.1091  0.0369
 2393W        W20597   0.458   5.519  16.560  0.0424 -0.0550  0.1625
 2394W        W20598   6.872   3.933   2.804 -0.1927 -0.1674 -0.1632
 2395W        W20599   4.111  15.234   2.776 -0.1233 -0.0255 -0.3151
 2396W        W20600  15.400   0.090   1.569  0.0520 -0.0375 -0.0425
 2397W        W20601  12.736  12.654  17.173  0.1211  0.0035 -0.0929
 2398W        W20602   1.723   7.877   3.762 -0.0010 -0.0063  0.1158
 2399W        W20603   8.818   0.285  15.193  0.2279  0.3503 -0.1440
 2400W        W20604  17.124  11.760  17.458 -0.2037 -0.1001  0.1330
 2401W        W20605   6.773  15.216  13.315  0.3341 -0.0211  0.0281
 2402W        W20606  15.781  13.843   0.823 -0.0513  0.0829 -0.4378
 2403W        W20607   7.697   4.160  17.392 -0.2216 -0.2065  0.0782
 2404W        W20608   5.558   6.222  14.840  0.1928  0.2145  0.1880
 2405W        W20609  15.137   9.595   2.057  0.0462 -0.0547  0.2378
 2406W        W20610   7.728  16.864   0.930  0.2291  0.1719  0.1368
 2407W        W20611   0.697  16.027  16.166 -0.0904  0.1042 -0.2193
 2408W        W20612   6.134  12.743   3.431 -0.1713  0.2606  0.1977
 2409W        W20613   9.458   2.998   6.128  0.1656  0.0873  0.3085
 2410W        W20614   2.959   6.673  16.545  0.1074 -0.2875 -0.0926
 2411W        W20615   4.587   7.331  15.993  0.1273 -0.0598 -0.3896
 2412W        W20616   3.796   0.201   2.650  0.0186  0.1814 -0.1316
 2413W        W20617   4.619   0.868  13.783 -0.2173 -0.1346  0.1871
 2414W        W20618   3.597   5.228   1.607 -0.1938 -0.0493  0.1579
 2415W        W20619   6.710  13.137  13.746 -0.0682 -0.0391 -0.0298
 2416W        W20620  11.964   1.420  13.681 -0.2934 -0.1525  0.0978
 2417W        W20621   5.985  13.148   1.947  0.0264 -0.0068 -0.1704
 2418W        W20622  11.455  17.302   4.250 -0.1481 -0.2518  0.0623
 2419W        W20623  10.324   9.128  14.707 -0.0318 -0.0344  0.2318
 2420W        W20624  16.593   0.105   3.688  0.0729  0.0036 -0.1150
 2421W        W20625   6.927   4.486  14.391  0.1498  0.1571 -0.1019
 2422W        W20626   1.197   9.332   3.844  0.0000 -0.1741 -0.1018
 2423W        W20627  15.812  10.834   5.601  0.1651 -0.3562 -0.2271
 2424W        W20628  12.539  12.795  16.715 -0.0110  0.0338  0.0941
 2425W        W20629   7.646   1.588   2.995 -0.2757 -0.0180 -0.0231
 2426W        W20630   6.507  11.072   4.324 -0.3587 -0.0892  0.1651
 2427W        W20631  16.279   7.807  16.168  0.1194 -0.2791  0.0006
 2428W        W20632  10.979  16.366  13.358 -0.1197 -0.1160  0.0745
 2429W        W20633   6.691   5.173  13.837  0.0123  0.0269 -0.0900
 2430W        W20634   4.621  10.631   5.337 -0.1903  0.0725 -0.0362
 2431W        W20635  11.778   0.731   5.044 -0.0060  0.2986  0.1079
 2432W        W20636   1.220  16.312  12.386 -0.0750  0.1149 -0.0229
 2433W        W20637  10.512  12.617   1.190  0.1405 -0.0092  0.0926
 2434W        W20638   5.462  12.552   4.186  0.2262 -0.2052 -0.1142
 2435W        W20639  11.934   4.155  14.081 -0.2180 -0.0013  0.1888
 2436W        W20640   4.081   8.989   5.060 -0.2501  0.3071 -0.0012
 2437W        W20641   7.125   3.820   3.682 -0.2598 -0.0655 -0.2214
 2438W        W20642   1.687   8.580  13.257 -0.2606  0.1327 -0.1965
 2439W        W20643   4.664   2.021   1.795  0.0261 -0.1626  0.0631
 2440W        W20644   3.571  10.799   2.123  0.1171 -0.2514  0.0644
 2441W        W20645  13.595  16.814   3.870 -0.2071 -0.2501  0.1266
 2442W        W20646   2.957   4.944  17.306  0.0407 -0.1946 -0.0317
 2443W        W20647   2.434   9.637  13.339 -0.1826  0.2105 -0.2802
 2444W        W20648   8.867  12.400  15.155  0.2298  0.0437 -0.0008
 2445W        W20649   9.575   0.706  15.463 -0.0503 -0.1272  0.0088
 2446W        W20650  11.244   0.999  13.122 -0.1234 -0.0270  0.1436
 2447W        W20651  16.465   9.258   1.920  0.1114 -0.0936 -0.0839
 2448W        W20652  11.012   3.523  14.177 -0.0416 -0.0279 -0.0995
 2449W        W20653  14.261  16.197  15.544 -0.1624  0.1614  0.1504
 2450W        W20654  16.559  10.371   5.711  0.1595 -0.3779  0.1196
 2451W        W20655  16.846  11.616  14.258  0.4656  0.0113 -0.0499
 2452W        W20656   6.089   3.662  14.091 -0.4081  0.0150 -0.4143
 2453W        W20657  12.014  12.179   0.690 -0.2748 -0.0956 -0.1159
 2454W        W20658   4.220  10.897  13.957  0.2894 -0.3501  0.0978
 2455W        W20659   0.534   3.284   4.511  0.2611  0.0243  0.3121
 2456W        W20660   9.305   1.702  16.337 -0.0373 -0.0186 -0.1280
 2457W        W20661  16.958  16.042   2.278 -0.2659  0.1483  0.3897
 2458W        W20662  15.288   0.046   4.727  0.2917 -0.1923  0.0837
 2459W        W20663  15.690   3.309  12.390  0.3076 -0.1725  0.1049
 2460W        W20664   5.602   4.520   3.519 -0.0621  0.0050 -0.0559
 2461W        W20665  17.120  10.990  12.875  0.5170  0.1852 -0.0580
 2462W        W20666  11.585   8.227  15.959  0.1942  0.1004 -0.1205
 2463W        W20667   4.689  11.942  16.270  0.2731  0.3020  0.0725
 2464W        W20668   4.135   6.620   3.753 -0.3745 -0.4363 -0.0158
 2465W        W20669  17.140  16.280   4.939  0.0071  0.0804 -0.2804
 2466W        W20670   6.989  16.697  17.100 -0.1280 -0.2385 -0.4104
 2467W        W20671  15.690  13.153  13.365  0.0841  0.0616 -0.0582
 2468W        W20672  11.152   1.735   4.427  0.1978 -0.1007  0.2806
 2469W        W20673  10.740  11.428  16.149  0.1387 -0.3406 -0.1268
 2470W        W20674   7.639  10.653  14.029 -0.1458 -0.0548  0.1190
 2471W        W20675   8.172   7.777  12.855 -0.4720 -0.0115 -0.0926
 2472W        W20676  15.850  12.118   5.043  0.0503 -0.4662  0.0099
 2473W        W20677   7.141  11.692   1.120 -0.2686 -0.0706  0.3052
 2474W        W20678   0.037  13.103  14.088  0.0252 -0.0135  0.0576
 2475W        W20679   4.787  10.333  17.026 -0.0835  0.0276 -0.1181
 2476W        W20680   0.673  13.374   4.753  0.0419 -0.0412  0.0791
 2477W        W20681  11.554   4.373  15.608  0.0692  0.0460 -0.0653
 2478W        W20682   3.330   1.845   4.682 -0.1071 -0.0077 -0.2025
 2479W        W20683   7.251   3.906   4.905  0.1534  0.1220 -0.1165
 2480W        W20684   4.484  15.566  16.099  0.1139  0.1613 -0.0535
 2481W        W20685   0.165   8.403  16.856  0.2234  0.1753  0.0206
 2482W        W20686   8.566  13.400  17.352 -0.1127 -0.1929  0.0397
 2483W        W20687  15.695   8.062   1.000  0.3018 -0.3121 -0.1112
 2484W        W20688  13.711  11.349  13.710  0.1010  0.0249  0.1760
 2485W        W20689   0.075   0.710  13.971 -0.0076  0.1020 -0.0602
 2486W        W20690   1.491  11.109  15.989 -0.1419 -0.0252 -0.2751
 2487W        W20691   5.009   9.888  12.074 -0.1619  0.1237 -0.0308
 2488W        W20692   6.232  11.758  16.650 -0.1971  0.1655  0.0126
 2489W        W20693  15.891   2.621  16.226 -0.0747 -0.2267  0.2134
 2490W        W20694  12.342   8.811   0.130 -0.2630  0.0220 -0.0221
 2491W        W20695  12.934   2.078  16.046 -0.1077 -0.0192 -0.0749
 2492W        W20696  16.141  12.960  17.101  0.0394  0.2052  0.0047
 2493W        W20697   9.531   1.996  15.557 -0.2950 -0.4419 -0.1148
 2494W        W20698  13.564   1.660  16.902 -0.2249 -0.1763 -0.0259
 2495W        W20699   6.963   2.717   2.303 -0.0941 -0.0754 -0.0977
 2496W        W20700   3.387   8.604  13.810  0.1774  0.0569  0.3549
 2497W        W20701   0.504  12.644  14.172  0.1586 -0.1753  0.1156
 2498W        W20702   1.737   7.248   3.018  0.1030  0.2842  0.0185
 2499W        W20703   0.162   4.330  12.215  0.1866  0.1121 -0.0045
 2500W        W20704   9.318   8.135  12.109  0.1394 -0.2771 -0.1680
 2501W        W20705  15.718   7.872  13.174  0.1919  0.2825 -0.0246
 2502W        W20706   8.315   3.539  15.572 -0.0012  0.0753  0.1771
 2503W        W20707  10.367  16.159  16.773 -0.0161  0.1945 -0.0469
 2504W        W20708   7.866   3.885  14.088  0.0126  0.0548  0.0441
 2505W        W20709  11.623   3.525  13.318  0.1447  0.1258  0.0230
 2506W        W20710  13.329  14.112   3.411  0.0392  0.0197 -0.0694
 2507W        W20711   5.615   0.792   1.501 -0.0972 -0.2764 -0.0750
 2508W        W20712   2.280   8.387   3.647  0.4053  0.0836  0.0322
 2509W        W20713   6.086  17.043   0.183 -0.4786 -0.0493  0.2864
 2510W        W20714  14.259  12.505  16.183 -0.2224 -0.3454 -0.1275
 2511W        W20715   5.478   5.676  16.212 -0.1436  0.1574 -0.1526
 2512W        W20716   6.991   7.381   1.202 -0.0042  0.0972 -0.1673
 2513W        W20717   1.537   8.872   0.444 -0.1449  0.0684  0.0622
 2514W        W20718   0.654   9.664  13.957  0.2105  0.0490  0.2643
 2515W        W20719   9.093   9.265  17.359  0.0758  0.1299  0.0360
 2516W        W20720  14.705  15.631   2.632 -0.0572  0.1004 -0.0252
 2517W        W20721   4.951   8.938   4.517 -0.0044  0.3280 -0.1690
 2518W        W20722  13.725  12.289  12.701 -0.0547  0.4047  0.0723
 2519W        W20723  14.531  12.323  14.936  0.2444 -0.3342  0.1242
 2520W        W20724   3.944   3.651  13.461 -0.1004 -0.0931  0.0446
 2521W        W20725  14.940   2.948  14.441  0.0085  0.0627  0.0388
 2522W        W20726   0.921   2.216   4.726  0.0807  0.1217 -0.1836
 2523W        W20727  14.351   8.676   1.363 -0.5640  0.2995 -0.0725
 2524W        W20728  11.289   6.584  13.052 -0.0944 -0.2728 -0.2329
 2525W        W20729   1.380  16.657  12.768  0.3021 -0.2844 -0.0176
 2526W        W20730   2.013  14.082  14.886  0.0359  0.2939 -0.0673
 2527W        W20731  14.246   6.987   2.939  0.0667  0.2012 -0.1754
 2528W        W20732   8.412   1.265  12.812 -0.0663 -0.1821 -0.1935
 2529W        W20733   3.823  10.874   4.251  0.0742  0.0639  0.0583
 2530W        W20734  12.689   5.907  13.156 -0.0409 -0.1145  0.0306
 2531W        W20735  15.372   5.591  12.757 -0.0357 -0.1200  0.1344
 2532W        W20736   3.989   0.211  16.463 -0.0559  0.0935 -0.1070
 2533W        W20737   8.014   8.614   0.581  0.1698  0.2786  0.0842
 2534W        W20738  13.509  17.019  17.053 -0.0505  0.2515  0.0110
 2535W        W20739   4.629   3.911   2.736  0.1088  0.0688  0.0729
 2536W        W20740   3.568  11.794   6.366 -0.2419  0.6569 -0.0891
 2537W        W20741  15.892  14.752  16.750 -0.0152  0.2996 -0.1388
 2538W        W20742  14.946   2.611   4.208 -0.1771  0.0675  0.0322
 2539W        W20743  12.363   5.784   1.146  0.0696  0.0207 -0.0637
 2540W        W20744   5.891  14.954  12.503  0.0241 -0.0226 -0.1853
 2541W        W20745   7.993   5.298  15.733 -0.1672 -0.3479  0.1032
 2542W        W20746   2.155   2.118  17.222 -0.1373  0.1636  0.2075
 2543W        W20747   2.461   1.422   1.149 -0.3340  0.0578  0.0225
 2544W        W20748  15.373   9.051   5.887  0.1632  0.0497 -0.0222
 2545W        W20749   8.706   1.304  15.566 -0.1720 -0.0121 -0.0620
 2546W        W20750   7.759  16.080  13.104  0.1665 -0.4818 -0.3982
 2547W        W20751   6.887   2.036   1.004 -0.3610  0.3658 -0.2499
 2548W        W20752  10.612  12.723  16.385 -0.1093  0.2513 -0.3153
 2549W        W20753   6.958   3.771  13.685 -0.0393 -0.2066 -0.1604
 2550W        W20754  11.719  11.748  14.267 -0.1730  0.0447 -0.0623
 2551W        W20755   6.426   1.700   5.360  0.1346 -0.1672  0.0865
 2552W        W20756  12.736   9.131  12.314  0.5093 -0.0707 -0.6054
 2553W        W20757  15.419  12.770  13.709 -0.1457 -0.1078 -0.4705
 2554W        W20758  14.601  13.858  14.381 -0.2520  0.2336  0.1826
 2555W        W20759  12.219  12.024   2.395 -0.2142  0.0835  0.1187
 2556W        W20760   7.238  14.907   4.099 -0.0483  0.0510  0.1313
 2557W        W20761  10.878  13.640  17.242  0.0094 -0.0068 -0.0851
 2558W        W20762   1.056   0.369  12.755 -0.0206 -0.1358 -0.0095
 2559W        W20763   6.429   1.258  14.769  0.1950 -0.2510  0.1876
 2560W        W20764  11.802  12.135  16.605  0.0043 -0.2210 -0.0773
 2561W        W20765  15.921   8.089   4.738 -0.0137  0.2026 -0.0066
 2562W        W20766   3.854   9.951  12.380 -0.1430 -0.2005 -0.1736
 2563W        W20767  16.999  16.912   2.073 -0.0528  0.0038  0.5117
 2564W        W20768   6.247   4.569   0.034  0.0671  0.0431 -0.1722
 2565W        W20769  17.072   5.398  17.488  0.0273 -0.1622 -0.0770
 2566W        W20770   3.521  16.980   1.701 -0.2889 -0.0329  0.2761
 2567W        W20771   4.783   0.221  15.149  0.0882 -0.3083  0.0311
 2568W        W20772  10.243  12.875   2.163 -0.0826  0.0800  0.0933
 2569W        W20773   9.699  15.978  13.021 -0.1488  0.1433  0.0086
 2570W        W20774   3.610  11.772   1.327  0.2780 -0.0255  0.0557
 2571W        W20775   5.068  17.162   4.505  0.0343 -0.0930  0.2566
 2572W        W20776  10.829   0.342   1.887 -0.1205  0.0400  0.3254
 2573W        W20777   6.552  16.876   4.851 -0.1606 -0.0654  0.0900
 2574W        W20778  11.552   8.883   5.538 -0.1828  0.0463  0.2791
 2575W        W20779   3.580   6.609  15.869 -0.0402 -0.3021  0.1128
 2576W        W20780   0.102   1.185  14.164  0.1332 -0.2247 -0.0640
 2577W        W20781   0.323   0.611  14.407 -0.0842  0.0487  0.2611
 2578W        W20782  15.273  16.118  15.289 -0.2782  0.0473  0.2111
 2579W        W20783   6.241   0.218   3.714 -0.1961  0.0838 -0.0385
 2580W        W20784   3.737   7.848  17.102 -0.0198  0.0338  0.1682
 2581W        W20785  11.963   3.435   2.963 -0.2792 -0.0989  0.0631
 2582W        W20786  13.054   9.837  13.307 -0.0227 -0.0269  0.2434
 2583W        W20787   5.433  16.149   0.805  0.2050  0.1349 -0.0662
 2584W        W20788   9.809   4.802   2.085  0.2883 -0.0512 -0.0433
 2585W        W20789   0.640  10.141  17.374  0.4195  0.0392  0.1888
 2586W        W20790  11.380   7.635   2.148  0.0323 -0.1073 -0.1206
 2587W        W20791  12.528  14.333  17.377 -0.2681  0.1977 -0.0216
 2588W        W20792   0.001  13.364  16.350  0.1328 -0.1341  0.0833
 2589W        W20793  11.973   1.972  16.344 -0.2900 -0.2774 -0.1134
 2590W        W20794   0.878   8.212  15.345  0.0267  0.2411  0.1930
 2591W        W20795   6.271  12.729  14.883  0.0248  0.1175  0.0216
 2592W        W20796   4.154   4.744  12.336  0.0145 -0.1022 -0.2844
 2593W        W20797  10.304   6.623  15.012 -0.3751 -0.2623  0.0200
 2594W        W20798  17.120   9.748   3.012 -0.1830 -0.1675  0.1842
 2595W        W20799  14.787   5.441  14.510  0.2006  0.0212  0.0517
 2596W        W20800  14.427   8.118  13.012  0.0124  0.1530 -0.0977
 2597W        W20801   4.759   8.508  17.277 -0.0713  0.0230 -0.2271
 2598W        W20802  12.867  12.257   4.429 -0.2043 -0.0953  0.1802
 2599W        W20803  13.984   9.822  15.075 -0.0139  0.0078 -0.1070
 2600W        W20804  12.438   7.943  14.247 -0.0433  0.0641  0.1074
 2601W        W20805  16.233  13.543  13.770  0.1510 -0.0673 -0.0900
 2602W        W20806  13.320  15.450   3.225  0.0210 -0.0632 -0.3592
 2603W        W20807  12.603   3.744   4.816 -0.1048  0.5270 -0.0923
 2604W        W20808  10.360   6.288  16.347  0.0384  0.1351  0.2464
 2605W        W20809   7.720   1.294   3.553  0.0052 -0.0062 -0.0812
 2606W        W20810  15.692   3.113  16.352 -0.4148 -0.0803  0.2061
 2607W        W20811   4.191   7.243  14.051  0.1924  0.0502 -0.0316
 2608W        W20812  12.319  12.957  17.251  0.0017  0.0545 -0.2514
 2609W        W20813   4.751   3.377  16.935  0.0170  0.0451  0.0003
 2610W        W20814   3.683   8.386   5.409 -0.4284  0.1099  0.1573
 2611W        W20815   0.245   2.272   3.224 -0.2229  0.1064 -0.2559
 2612W        W20816   6.354   2.065  12.240 -0.0230 -0.1038  0.0448
 2613W        W20817   0.601  10.461  15.418  0.0777  0.3273 -0.0003
 2614W        W20818   1.015   9.801   3.636 -0.1071 -0.0563 -0.2721
 2615W        W20819  15.706   8.392   1.356  0.0888  0.0863  0.2357
 2616W        W20820  15.116   2.900   1.912 -0.1725 -0.2242  0.0319
 2617W        W20821   7.523   1.966  15.479 -0.0039 -0.0933 -0.2309
 2618W        W20822  10.150   5.390  14.330 -0.1063  0.0322 -0.1856
 2619W        W20823   0.816  10.286  15.046 -0.0201 -0.1011  0.0470
 2620W        W20824   7.379   5.345   0.030  0.1262  0.0539  0.0046
 2621W        W20825   9.735   5.932  14.856 -0.1707 -0.0038 -0.2311
 2622W        W20826   7.852  11.838  17.509 -0.4048 -0.0296  0.3611
 2623W        W20827   7.352  10.831  17.428 -0.0789 -0.0130 -0.2363
 2624W        W20828  10.654   1.864   3.507  0.2702  0.0534  0.0744
 2625W        W20829   5.118  16.892   5.244  0.2885  0.0838 -0.0399
 2626W        W20830  12.465   0.828   1.246  0.1574  0.1002 -0.1028
 2627W        W20831   4.362  12.687   0.855 -0.0517  0.1688  0.2323
 2628W        W20832  16.690  11.033   5.370 -0.0770  0.3796  0.0512
 2629W        W20833   4.474   3.132  17.416 -0.1541  0.1938 -0.1021
 2630W        W20834   3.908   8.548  13.721 -0.0062  0.1002  0.1569
 2631W        W20835  12.933  13.416   2.823 -0.2231  0.0612  0.0992
 2632W        W20836  17.275  12.959  16.654  0.3599  0.0003  0.0368
 2633W        W20837   6.311   0.414   3.286 -0.0304  0.0339  0.0406
 2634W        W20838   6.368   5.933  13.965  0.0823  0.3367  0.2276
 2635W        W20839   5.023   9.269   0.209  0.0197  0.2824 -0.2054
 2636W        W20840  12.926   9.427   2.463  0.0427  0.0745  0.3768
 2637W        W20841  15.719   6.522   1.670 -0.0410 -0.1146 -0.0703
 2638W        W20842   8.583   6.147   1.799  0.1148 -0.1555 -0.2482
 2639W        W20843  16.420   0.024   5.169 -0.1271  0.1044  0.1011
 2640W        W20844   0.449   9.649   2.058 -0.1015 -0.0808  0.1988
 2641W        W20845  15.893  17.216   2.847 -0.2616 -0.0292  0.1925
 2642W        W20846  12.499   0.750   0.677 -0.3654  0.0426  0.2064
 2643W        W20847   5.278  11.923   3.148 -0.1193  0.0204 -0.1359
 2644W        W20848   3.223  14.741   2.695 -0.0833 -0.2507  0.0395
 2645W        W20849   2.159  16.785   3.906  0.2464 -0.0890 -0.0098
 2646W        W20850   3.039  16.166   3.075  0.1593 -0.0594 -0.2227
 2647W        W20851   0.919   1.765  16.351 -0.2555  0.1412 -0.3173
 2648W        W20852   2.748   2.257   4.183  0.1877 -0.3103  0.0328
 2649W        W20853   1.894  11.633   5.753  0.1226  0.0778  0.1626
 2650W        W20854   5.518   5.697  17.181  0.2479 -0.1631 -0.0375
 2651W        W20855  11.528  13.868  13.039 -0.0050 -0.2178 -0.2511
 2652W        W20856  15.490  14.461  16.568  0.0587 -0.1853 -0.1882
 2653W        W20857  13.671  11.933  16.558 -0.0921 -0.1002  0.3505
 2654W        W20858   1.708   3.813  13.092  0.1326 -0.0466  0.0973
 2655W        W20859  16.798  14.315   5.827 -0.2277 -0.6235  0.3074
 2656W        W20860   8.016  16.243  15.301 -0.0488  0.2258  0.0802
 2657W        W20861  11.261   4.092  16.377 -0.0575 -0.0877  0.0005
 2658W        W20862   2.021  14.821   1.705 -0.0374  0.1401  0.0133
 2659W        W20863  16.490   8.577  16.624 -0.0434  0.1850 -0.1116
 2660W        W20864  15.449   5.745   2.298 -0.0547 -0.2766  0.0722
 2661W        W20865   3.392  10.224  14.567 -0.0459  0.2217 -0.1870
 2662W        W20866   8.646   0.840  12.692 -0.0360 -0.0504 -0.2687
 2663W        W20867   8.935   4.590  15.900  0.0358  0.1132 -0.2629
 2664W        W20868  15.479  12.232  13.623  0.1445 -0.0167  0.4286
 2665W        W20869   5.513   1.729   1.804  0.1707  0.1556  0.1614
 2666W        W20870   4.963   8.130   4.741  0.0057 -0.2829  0.1086
 2667W        W20871  16.331   3.360   3.585 -0.1337  0.3082 -0.3329
 2668W        W20872   3.235   5.042  11.843 -0.0397  0.0842  0.0075
 2669W        W20873  13.110  13.741  17.185  0.2548 -0.2982 -0.0703
 2670W        W20874  15.102   6.968  14.167  0.1781 -0.1081 -0.0908
 2671W        W20875   9.561   5.050   4.106  0.1416 -0.0609  0.0495
 2672W        W20876  10.362   9.019  14.198 -0.1364 -0.3690  0.1134
 2673W        W20877   6.744   1.855  12.989 -0.1278 -0.0033 -0.0051
 2674W        W20878   6.045   2.153   1.861  0.1975 -0.1538  0.0872
 2675W        W20879  12.704   6.000   2.371  0.0849  0.1572 -0.0660
 2676W        W20880   0.605   6.085  14.159  0.2822 -0.0149 -0.1793
 2677W        W20881   0.625   6.534   5.390 -0.2260  0.2637  0.2720
 2678W        W20882  14.121   8.963  14.901  0.0787  0.0948 -0.2615
 2679W        W20883   4.153  14.524  16.481  0.2288  0.0882 -0.0961
 2680W        W20884  11.142   9.688  15.749 -0.1001 -0.1110  0.0829
 2681W        W20885   1.011   6.005   3.511  0.0181 -0.1838 -0.3901
 2682W        W20886  14.362   7.346   3.267 -0.0962 -0.3570  0.1778
 2683W        W20887  12.281  15.312  13.781  0.0111 -0.1323 -0.1802
 2684W        W20888   5.792   7.390   0.028 -0.3647 -0.0449 -0.0836
 2685W        W20889   9.386  14.158   0.316  0.0639 -0.1196  0.2219
 2686W        W20890   0.918   1.746   3.942  0.0609  0.1537  0.1650
 2687W        W20891   8.723   0.743  14.417 -0.0997  0.3833  0.2117
 2688W        W20892  12.906   4.896   4.514  0.2809  0.0703 -0.2285
 2689W        W20893   2.859  10.736   4.352 -0.0694  0.2663 -0.1429
 2690W        W20894   7.653  15.044   1.569 -0.0734  0.2339  0.0628
 2691W        W20895  12.635   5.658   3.184  0.0799 -0.0110 -0.0115
 2692W        W20896   6.418   2.983  14.129 -0.0316 -0.3119 -0.0354
 2693W        W20897   6.264  14.647  12.653  0.1400  0.2141 -0.1864
 2694W        W20898  17.251   8.146  13.160 -0.2471 -0.3397 -0.1191
 2695W        W20899  14.146   2.292  16.801  0.3491  0.4626  0.2374
 2696W        W20900   8.868   4.491  15.316 -0.1618  0.2891  0.1143
 2697W        W20901  13.594  10.038   3.563 -0.2098  0.1950  0.3643
 2698W        W20902  15.672  13.693  15.314 -0.0290 -0.3334  0.1661
 2699W        W20903   3.571  15.761   0.188 -0.1874 -0.1759  0.2788
 2700W        W20904   7.215   4.467   0.116 -0.2533 -0.1448 -0.2320
 2701W        W20905   0.426   7.461  17.022  0.1601 -0.1680  0.0472
 2702W        W20906   0.846  14.393  15.481  0.3227  0.0870 -0.0015
 2703W        W20907   8.600   4.445  14.224  0.1393  0.2410  0.0033
 2704W        W20908  11.611  11.868  11.883 -0.3321 -0.0582  0.1667
 2705W        W20909   2.746  12.889  16.651 -0.0490 -0.2648 -0.0108
 2706W        W20910   9.939   3.933  17.272  0.2130  0.3539 -0.0116
 2707W        W20911   3.547  15.012  14.752 -0.0674  0.1266  0.3309
 2708W        W20912  15.871   1.097  12.541 -0.0119  0.0636 -0.0660
 2709W        W20913   1.193   5.253  17.434  0.0692 -0.1227 -0.0757
 2710W        W20914   9.662  15.024   4.238 -0.0719 -0.1443 -0.2919
 2711W        W20915   1.628  11.975  15.442  0.1212 -0.1301 -0.1180
 2712W        W20916  13.594   6.534  17.320  0.0702 -0.3808  0.0574
 2713W        W20917  15.831   4.905  17.145 -0.0901 -0.1057  0.0674
 2714W        W20918  11.229  12.562  13.098  0.0163 -0.1394  0.3377
 2715W        W20919  16.012  14.402   0.743  0.3679  0.1646 -0.0494
 2716W        W20920   6.643   3.350  15.969 -0.0584 -0.2057  0.0805
 2717W        W20921  10.374  15.770   0.811 -0.0615 -0.0792 -0.1241
 2718W        W20922   3.224  13.026  13.312 -0.0019 -0.2087  0.1043
 2719W        W20923   5.036  12.081   0.222  0.1900  0.0580  0.0125
 2720W        W20924   1.250  13.031   4.371  0.0489  0.0260 -0.0721
 2721W        W20925   6.089   4.176  14.091  0.0353 -0.0407 -0.1215
 2722W        W20926  14.875   3.946   2.204  0.1494 -0.0392 -0.1873
 2723W        W20927   6.072   5.495  14.739 -0.0830 -0.3189 -0.0820
 2724W        W20928   0.480  16.966  16.233  0.0450 -0.2783 -0.0309
 2725W        W20929   9.141  15.025   1.748  0.5397 -0.0118 -0.2155
 2726W        W20930   2.464  12.912  14.515  0.3722  0.4006  0.2640
 2727W        W20931   6.770   4.856   4.111 -0.0103 -0.1642 -0.0802
 2728W        W20932   2.891   4.615  15.117  0.3030 -0.0439  0.0027
 2729W        W20933   2.398   2.261   5.136 -0.1157  0.2231 -0.1214
 2730W        W20934   4.231   3.017  12.707  0.0927 -0.2435  0.4823
 2731W        W20935   3.104  10.090  14.062  0.1718 -0.1537  0.0390
 2732W        W20936   5.449   4.510   4.101  0.1307  0.1462 -0.0509
 2733W        W20937   3.333  11.392   1.160  0.2090  0.3046 -0.2661
 2734W        W20938  16.446   5.270   5.513 -0.0198  0.1317 -0.2240
 2735W        W20939   5.503  14.405  12.865 -0.4628  0.1829 -0.0474
 2736W        W20940   7.791  10.327   2.230 -0.0526 -0.0895  0.0982
 2737W        W20941   6.461  12.813   3.847  0.1414 -0.0106  0.1441
 2738W        W20942   6.965  13.490  13.490 -0.1943 -0.0549  0.0240
 2739W        W20943   2.840   7.394  16.484  0.1907 -0.0925  0.0535
 2740W        W20944  12.962   6.996  12.707  0.2169  0.0692  0.1233
 2741W        W20945   4.485   7.726  16.787 -0.2637  0.0009 -0.3256
 2742W        W20946  13.945   5.672  14.951  0.1308  0.1813  0.2583
 2743W        W20947   1.836   9.487  13.240 -0.0507  0.1113 -0.0943
 2744W        W20948   1.963   1.096   0.480  0.0809  0.1447  0.0568
 2745W        W20949   8.211   7.464   1.282  0.0801 -0.0328 -0.1418
 2746W        W20950   0.578  16.692  14.291  0.2290 -0.0949 -0.1729
 2747W        W20951   6.953   9.543  14.336 -0.4495  0.0479 -0.0107
 2748W        W20952  12.203   8.374   1.864 -0.3427 -0.0058 -0.1458
 2749W        W20953   5.090  11.690  17.230  0.0571 -0.0424 -0.1266
 2750W        W20954   5.594   1.484  13.725 -0.0812  0.4966 -0.0133
 2751W        W20955   4.918   4.005  17.409  0.2480 -0.2645  0.3684
 2752W        W20956   6.164  10.767   3.766 -0.0583 -0.1401  0.2738
 2753W        W20957   9.957   8.080  14.793  0.3195  0.1314 -0.1595
 2754W        W20958   7.648  16.703   2.212 -0.2744  0.3361 -0.0060
 2755W        W20959  11.632  15.115  16.984  0.2930  0.0946 -0.1334
 2756W        W20960   5.239  17.102   1.343 -0.0451 -0.1367  0.2436
 2757W        W20961  12.456  10.206  12.211 -0.1805 -0.1105 -0.1449
 2758W        W20962   8.736   2.039   4.659  0.0739  0.1731  0.3070
 2759W        W20963  13.045   4.391  14.447  0.1675 -0.0164 -0.2113
 2760W        W20964   0.215   8.394   3.158  0.0681  0.0496 -0.0270
 2761W        W20965  11.778  14.947   1.001 -0.1883  0.0519 -0.2368
 2762W        W20966   7.418  14.597  12.012  0.1176 -0.0363  0.0107
 2763W        W20967  13.821   3.234   4.749 -0.3187 -0.0991  0.4278
 2764W        W20968  10.634  10.273   1.180  0.3561 -0.0721 -0.2472
 2765W        W20969  14.869   0.081   0.020 -0.0534  0.3717  0.0772
 2766W        W20970   5.972  16.940  15.136  0.1277  0.2089 -0.0109
 2767W        W20971   9.757  12.613  15.700 -0.0972 -0.0657 -0.1876
 2768W        W20972   2.659  13.208   3.972  0.3117 -0.0461  0.3108
 2769W        W20973   4.979   1.665   1.595 -0.0873  0.1159 -0.2924
 2770W        W20974   5.303  11.590  15.159 -0.1100 -0.1207 -0.0474
 2771W        W20975   5.478  15.542   1.355 -0.1853 -0.3573  0.1565
 2772W        W20976   3.855   1.372  12.582 -0.3526  0.1422  0.0663
 2773W        W20977   9.107  13.244   3.451  0.0694  0.1224 -0.3688
 2774W        W20978  11.395  10.943  14.757 -0.1847 -0.2055 -0.2125
 2775W        W20979  13.594  13.269   4.234  0.0667  0.0982 -0.2704
 2776W        W20980  13.510  13.217  15.357 -0.3185 -0.3735 -0.2323
 2777W        W20981  14.226   2.935  12.396 -0.0419 -0.1699 -0.1544
 2778W        W20982   6.551   2.600   4.047 -0.1737 -0.1841 -0.3296
 2779W        W20983   8.010  14.077   1.622 -0.2237  0.1288  0.3150
 2780W        W20984   0.492   6.893  14.600  0.1600  0.2143 -0.0451
 2781W        W20985   6.538  14.586  14.777  0.0205 -0.0240 -0.0202
 2782W        W20986   6.157   2.625   1.975 -0.2175  0.1320  0.0646
 2783W        W20987  10.160  15.482   3.740  0.2816 -0.0866 -0.1250
 2784W        W20988   4.088  12.216  12.735 -0.1336  0.0226 -0.0180
 2785W        W20989   1.830   7.796  17.270 -0.2561  0.0876 -0.3060
 2786W        W20990  14.882   9.088  12.896  0.4977 -0.1196 -0.0879
 2787W        W20991   7.567  10.726   2.023  0.1827  0.1326  0.1646
 2788W        W20992  16.720   5.560   2.761 -0.0976  0.0982 -0.2614
 2789W        W20993   8.051  14.234  17.396  0.2143  0.0708 -0.0243
 2790W        W20994   7.832  11.305  13.721  0.0231 -0.3158 -0.3793
 2791W        W20995   7.868  10.590  13.111 -0.2948 -0.0646  0.1297
 2792W        W20996   9.279  12.862   5.381 -0.0708  0.0521 -0.0319
 2793W        W20997   6.794   7.354   1.746 -0.1823  0.2269 -0.1491
 2794W        W20998   2.845  13.958   0.116  0.0018 -0.0141  0.1678
 2795W        W20999   0.798   7.820  14.987  0.4319  0.0344  0.0149
 2796W        W21000  11.813   9.915  13.074  0.1466  0.0873 -0.0636
 2797W        W21001  10.287  14.308   4.015  0.0417  0.2933  0.3199
 2798W        W21002  11.374   3.630   4.483 -0.0188 -0.1261 -0.0444
 2799W        W21003  16.589   3.633   5.191 -0.2799  0.1475  0.2701
 2800W        W21004   4.762   0.940  14.760  0.2677  0.1212  0.2639
 2801W        W21005   2.671  16.164  15.146  0.0859  0.2198 -0.0859
 2802W        W21006  13.822   6.679   4.536 -0.0500 -0.0768 -0.1078
 2803W        W21007   7.019   3.286   3.632  0.3367 -0.0304  0.0294
 2804W        W21008  12.589   2.900   5.202 -0.1249 -0.0047 -0.1923
 2805W        W21009   9.647  16.987   5.392  0.1298 -0.0470 -0.3466
 2806W        W21010   4.049  11.568   2.512  0.2921  0.2033  0.2706
 2807W        W21011  12.659   7.631  13.893 -0.4422  0.1002 -0.5920
 2808W        W21012  15.629   4.643  13.484  0.1646  0.0281  0.0973
 2809W        W21013   2.438   6.868   1.079 -0.2313  0.0038  0.0612
 2810W        W21014  14.219  15.667   2.894 -0.1209 -0.0968  0.1067
 2811W        W21015   2.963   3.453  14.422  0.3075 -0.0586 -0.1577
 2812W        W21016  11.796   7.887  15.528  0.3120 -0.0672  0.2098
 2813W        W21017  12.130  14.685   0.707  0.3325  0.4299  0.0453
 2814W        W21018   7.697  12.690   0.986  0.0664 -0.2611 -0.0980
 2815W        W21019  15.241   2.233  16.437  0.0323  0.0456 -0.2706
 2816W        W21020  11.560   5.699   2.767 -0.1719  0.0906  0.1046
 2817W        W21021   5.925   1.850  13.473 -0.1335 -0.0919  0.0154
 2818W        W21022  16.898   0.432  16.693 -0.3182  0.1431 -0.0195
 2819W        W21023  13.099   4.392   3.689  0.3597  0.0348  0.1031
 2820W        W21024  12.561   7.087  14.726  0.1030  0.2942  0.0193
 2821W        W21025  12.575   8.121   0.464  0.1536  0.0271 -0.1954
 2822W        W21026  14.750   9.359   4.394  0.1696  0.2925 -0.0357
 2823W        W21027   2.599   5.113  16.883 -0.0270 -0.0344 -0.0783
 2824W        W21028  15.772  14.326  17.036  0.1285  0.1535  0.0470
 2825W        W21029  16.187   0.834  14.377 -0.0828  0.2995 -0.2348
 2826W        W21030  11.124   5.608  16.542 -0.1758  0.0379  0.0153
 2827W        W21031   4.248  16.532  16.442  0.1889  0.1037  0.0144
 2828W        W21032   0.746   3.846   2.020 -0.0528 -0.2440 -0.0237
 2829W        W21033   9.764  13.365   0.535  0.0503 -0.0876  0.1633
 2830W        W21034  10.273   6.211  15.303 -0.3385  0.2883 -0.0790
 2831W        W21035   1.579   5.178  15.288 -0.0753  0.1752  0.1057
 2832W        W21036   4.903   1.936  14.639 -0.0374  0.3163 -0.0190
 2833W        W21037   4.003  12.603   3.142 -0.3067  0.3449  0.2568
 2834W        W21038   5.902  16.026   4.678  0.0827 -0.2084  0.0882
 2835W        W21039  12.168   1.671   3.994  0.1816  0.1367  0.0279
 2836W        W21040   3.917   0.172  14.299  0.2908 -0.0730  0.1423
 2837W        W21041  14.288  16.157  13.826 -0.1391  0.2832  0.2187
 2838W        W21042  12.362   1.223   0.949  0.1970  0.2141 -0.1240
 2839W        W21043  11.164   7.167   2.152  0.0724  0.0048 -0.0134
 2840W        W21044   3.112  16.083   5.251  0.0299 -0.0209 -0.1077
 2841W        W21045   4.444   3.696  15.259  0.1904 -0.0966 -0.1974
 2842W        W21046  14.666   5.699  16.421 -0.1977  0.0478 -0.0551
 2843W        W21047  14.245  17.195   1.115 -0.0211 -0.0867 -0.1206
 2844W        W21048  13.409   4.942   0.744  0.0577 -0.0348 -0.1608
 2845W        W21049   7.614   7.130   5.033 -0.3347  0.1311  0.1648
 2846W        W21050  14.442  10.723  16.603 -0.0306  0.0147 -0.1457
 2847W        W21051  14.872  10.057   0.432  0.0602  0.1846 -0.3455
 2848W        W21052  12.185   3.269  15.695 -0.0407 -0.1034  0.0118
 2849W        W21053  11.603   3.240  16.330  0.0462  0.1084 -0.1279
 2850W        W21054  11.047   4.874  13.279 -0.0399 -0.1548 -0.0115
 2851W        W21055  13.297  15.003   1.399 -0.0176 -0.4314 -0.0172
 2852W        W21056   7.659   4.078  12.042 -0.2530  0.1735 -0.2011
 2853W        W21057   9.321   0.241   3.615  0.0241 -0.0834  0.0556
 2854W        W21058   6.406   9.326  12.460  0.0675 -0.2424 -0.2534
 2855W        W21059   7.843   0.837   0.872  0.1600 -0.1370  0.0064
 2856W        W21060  14.632   6.809  14.302 -0.5014 -0.1299 -0.0563
 2857W        W21061   0.188  15.850  16.861  0.2107 -0.2034  0.1513
 2858W        W21062  14.973   3.135   4.872 -0.2374  0.2644  0.0721
 2859W        W21063   3.656  16.954  11.912  0.0156 -0.0609 -0.1969
 2860W        W21064  11.842   5.086  15.605 -0.0126  0.3491  0.2843
 2861W        W21065   0.639   9.514  13.380 -0.1855  0.1585 -0.0563
 2862W        W21066  12.948   2.217  13.496  0.1291 -0.2378  0.0983
 2863W        W21067  12.747  11.024   2.855  0.1157 -0.0682  0.1467
 2864W        W21068  12.546   2.117  12.672  0.0451  0.2219  0.2685
 2865W        W21069   0.087   9.162   1.290  0.0623  0.0361  0.1876
 2866W        W21070   2.101  11.212   1.093 -0.2938 -0.0694  0.0377
 2867W        W21071   6.602  10.004   1.051  0.0525  0.1074  0.0189
 2868W        W21072  12.623   4.815  12.955 -0.1075 -0.0116 -0.1571
 2869W        W21073  16.697  13.612  13.818  0.0266 -0.0347 -0.2466
 2870W        W21074   6.177   3.814  14.572  0.0445  0.2060 -0.1785
 2871W        W21075  15.487  13.346   5.349  0.1065  0.1002 -0.0555
 2872W        W21076   7.052  16.075  15.302 -0.0434 -0.1929 -0.1365
 2873W        W21077  11.824   7.541  12.465 -0.0558 -0.2247 -0.2794
 2874W        W21078  13.233   9.693  15.644  0.1527 -0.0510 -0.2096
 2875W        W21079   2.307  15.238  16.538  0.0972 -0.1641  0.0407
 2876W        W21080  15.801  14.441   3.244 -0.2445  0.0449  0.3747
 2877W        W21081   8.495   8.951  14.394 -0.1481  0.2369  0.0107
 2878W        W21082   1.331  17.261  15.372 -0.1839 -0.2658  0.2026
 2879W        W21083  16.387  15.108   2.722 -0.1184 -0.0672 -0.1387
 2880W        W21084   5.033   1.654   5.222  0.0657 -0.1809  0.1193
 2881W        W21085  10.416  11.802  14.450 -0.1517  0.2459 -0.1130
 2882W        W21086   0.136   6.124  15.019 -0.5422  0.2671  0.0839
 2883W        W21087  14.586   3.297  16.753 -0.1504  0.1187 -0.0170
 2884W        W21088  12.478  15.007   1.056  0.1015  0.1244 -0.0616
 2885W        W21089  10.634   8.884  12.280  0.0610 -0.5427  0.1036
 2886W        W21090  13.446  14.236   2.063  0.0170  0.0858  0.2218
 2887W        W21091   6.106   4.679  15.579 -0.1423 -0.1540  0.2756
 2888W        W21092   1.281   6.978   4.175  0.1018  0.0538  0.1168
 2889W        W21093   9.394  17.283  14.743 -0.0337 -0.1998 -0.1755
 2890W        W21094   7.416   0.524  16.279  0.1130  0.2373 -0.0420
 2891W        W21095   9.788   9.803  14.364 -0.0540  0.0608 -0.1066
 2892W        W21096  16.010  10.404  12.523 -0.1230 -0.3770 -0.0171
 2893W        W21097  11.629  14.371   4.974  0.0513  0.0954 -0.0393
 2894W        W21098   9.399  14.346  16.357 -0.0882 -0.0929  0.0591
 2895W        W21099  12.912   8.427  16.740  0.0880 -0.0077  0.1135
 2896W        W21100   8.081   3.422  14.341 -0.0048  0.1004 -0.1259
 2897W        W21101   3.958   2.617   3.560 -0.1755 -0.0599  0.0512
 2898W        W21102  13.326  13.655   0.999 -0.0753  0.2075 -0.0640
 2899W        W21103   4.854  10.901   4.076 -0.1687  0.0428 -0.0808
 2900W        W21104   9.735   3.284  14.070  0.3741  0.1180  0.0299
 2901W        W21105  10.292   9.758  14.599 -0.0317  0.0199 -0.0004
 2902W        W21106   2.193  10.137   3.135 -0.1224  0.0463  0.0089
 2903W        W21107   7.567  12.589   1.914  0.0968  0.1805  0.2490
 2904W        W21108  13.806   0.492   1.461  0.4889  0.0405  0.3618
 2905W        W21109  14.410  14.157  15.123  0.0631 -0.0167  0.1571
 2906W        W21110   7.129   3.292   2.859  0.6295  0.1019  0.1891
 2907W        W21111   4.261   3.397   2.789 -0.0005  0.0756 -0.1281
 2908W        W21112  15.091   8.133   5.344 -0.0503  0.0742 -0.2267
 2909W        W21113   7.974  10.033   4.885 -0.0408  0.0953 -0.4343
 2910W        W21114   3.374   9.530   0.527 -0.0949 -0.0462  0.0634
 2911W        W21115   0.880  14.212  16.613 -0.2111  0.5202 -0.0530
 2912W        W21116   2.336   8.250  13.596 -0.2852  0.0590  0.0521
 2913W        W21117   5.731   5.808  13.059  0.0447 -0.0131 -0.2794
 2914W        W21118   4.205   8.209  12.182 -0.2612  0.0799  0.0867
 2915W        W21119  13.610   5.157   2.519 -0.1481 -0.1931  0.0374
 2916W        W21120  16.027  13.115  16.225  0.4044 -0.1106  0.1894
 2917W        W21121   6.869   0.371   4.128  0.1089 -0.0049 -0.0479
 2918W        W21122  12.559   5.414   5.731 -0.0176 -0.1633 -0.2884
 2919W        W21123  16.216   2.999   1.240 -0.0444 -0.4543  0.1702
 2920W        W21124   1.023   2.398  14.153  0.1820 -0.2721 -0.0755
 2921W        W21125   9.693  14.567  16.003  0.0438  0.0362  0.2908
 2922W        W21126   7.456  17.222  13.816 -0.0094 -0.0663 -0.0757
 2923W        W21127   7.986  17.167  15.087 -0.0484 -0.0573  0.0458
 2924W        W21128   2.166   7.990  14.065 -0.5035  0.0994  0.3026
 2925W        W21129  11.562   3.426   0.771 -0.0827  0.1092 -0.1308
 2926W        W21130   9.619  16.333  15.311 -0.3283 -0.1012  0.0545
 2927W        W21131  13.793   0.015   1.567 -0.0530  0.1442 -0.0352
 2928W        W21132  16.598   4.936   5.148 -0.0411  0.2030 -0.0728
 2929W        W21133   2.787   5.117   0.580 -0.0302 -0.1994 -0.2651
 2930W        W21134   6.850  14.099  15.677  0.0555 -0.0535  0.0986
 2931W        W21135   2.782  16.050  15.640  0.0140 -0.1755 -0.0603
 2932W        W21136   2.124   1.034  13.907 -0.1324 -0.0756  0.1773
 2933W        W21137  16.611   3.518   1.835  0.0450  0.0682 -0.1207
 2934W        W21138   1.918   4.603   0.396  0.0226 -0.1510 -0.0226
 2935W        W21139  13.658  15.457  13.560 -0.1298  0.3850  0.1822
 2936W        W21140   3.601   0.418   5.330 -0.0482 -0.1870  0.0471
 2937W        W21141  15.127   0.895  14.609  0.1733  0.1005 -0.0549
 2938W        W21142   8.110  11.129   3.692  0.0954 -0.0887 -0.0934
 2939W        W21143  16.220   5.352   4.940 -0.0512  0.1930 -0.0149
 2940W        W21144  15.990   7.653   0.803  0.2112  0.1408 -0.1300
 2941W        W21145  12.993  12.439  15.839  0.2546 -0.3401  0.0194
 2942W        W21146   9.599   9.997   2.320 -0.1746  0.2780 -0.2702
 2943W        W21147   4.429  10.455  12.819  0.0304 -0.1993  0.0523
 2944W        W21148   4.904  10.899   1.305  0.1558 -0.0292  0.1402
 2945W        W21149   3.407  15.187  12.884  0.1231 -0.0226  0.1203
 2946W        W21150   5.524  14.853  16.955 -0.1294  0.0243  0.2513
 2947W        W21151  11.238  14.093   4.507 -0.2984 -0.2479 -0.1277
 2948W        W21152  14.356  11.076   5.016 -0.2513  0.1280  0.2436
 2949W        W21153   6.576   6.292   0.989  0.0696 -0.0778 -0.0805
 2950W        W21154  15.610   9.418   2.096  0.2017 -0.0657 -0.1305
 2951W        W21155   9.403   3.152   5.654  0.0563 -0.1913  0.4760
 2952W        W21156   4.117  14.790  12.420 -0.4364  0.1055 -0.1360
 2953W        W21157   3.161  13.933  17.140  0.0331 -0.2528 -0.1252
 2954W        W21158   0.825   5.872  13.428  0.1693  0.1932  0.0483
 2955W        W21159  14.501  16.873  12.936 -0.0008  0.0622 -0.1137
 2956W        W21160   3.802   7.943  14.509  0.0856 -0.2654 -0.1629
 2957W        W21161   3.220   9.994  15.401 -0.2037 -0.0619  0.1324
 2958W        W21162  15.325   5.733  17.380  0.1506  0.0401 -0.0320
 2959W        W21163   7.212   8.780   3.647 -0.2112 -0.0235  0.0514
 2960W        W21164  12.264  12.071   3.957 -0.2385 -0.0701  0.1332
 2961W        W21165  14.327   1.765   4.440 -0.1463  0.1031 -0.1074
 2962W        W21166  15.049   0.703   3.280 -0.1610 -0.0751  0.0750
 2963W        W21167  14.357   7.712  16.219  0.3309 -0.3018 -0.0891
 2964W        W21168  10.723  10.065   4.894 -0.3160  0.1204  0.1409
 2965W        W21169  16.471   0.432   5.562  0.0216 -0.1858 -0.2122
 2966W        W21170   1.285   8.296  13.248  0.0423 -0.0189 -0.1987
 2967W        W21171  10.013   3.778  13.985 -0.0966 -0.0921 -0.1598
 2968W        W21172  16.183   1.742   0.366 -0.2818 -0.0716 -0.1476
 2969W        W21173   1.406  11.921   1.573 -0.0557 -0.0212  0.1078
 2970W        W21174   3.924  15.390   5.393 -0.2009 -0.0528  0.1790
 2971W        W21175   1.032   2.607   1.447 -0.1173  0.2225  0.0410
 2972W        W21176   7.399  14.222  15.029 -0.0941  0.1285  0.1288
 2973W        W21177   5.303   4.105  16.140 -0.2032 -0.3333  0.4950
 2974W        W21178   1.098   1.187   2.671  0.1253 -0.0239  0.2155
 2975W        W21179   2.563  12.364   0.611 -0.1928 -0.2841 -0.1103
 2976W        W21180   0.893   9.530   0.819  0.0251 -0.3250  0.0662
 2977W        W21181   4.177   0.939   1.211 -0.3919  0.0622  0.0180
 2978W        W21182   9.455   1.846  15.118  0.5307 -0.0532 -0.0253
 2979W        W21183   8.601   0.001  12.691  0.0014 -0.1846  0.4539
 2980W        W21184  13.121  11.054   5.509  0.1049  0.3196  0.1925
 2981W        W21185   6.574   2.417   1.215  0.2742  0.2055 -0.0701
 2982W        W21186   1.744  16.991  15.273 -0.1828 -0.0690 -0.2120
 2983W        W21187   4.247  16.333  14.387 -0.0666 -0.3269 -0.0115
 2984W        W21188   1.036  15.503  13.866 -0.0711  0.0194  0.0247
 2985W        W21189   8.658   0.752   4.444 -0.2755 -0.0464  0.2651
 2986W        W21190  14.244  14.794  14.238  0.0839  0.0138 -0.1523
 2987W        W21191   9.141   0.894  15.524  0.0377  0.0563  0.3288
 2988W        W21192   0.153   4.504  17.332 -0.0169 -0.1033 -0.3155
 2989W        W21193  13.613  10.329  14.425  0.1761 -0.1729  0.1631
 2990W        W21194  13.237   8.971   0.408 -0.0793  0.0875  0.2082
 2991W        W21195  11.866   5.139   0.269 -0.1585  0.0268 -0.0646
 2992W        W21196   0.285   1.213  12.821 -0.0894  0.1138 -0.3841
 2993W        W21197  13.023   0.641   2.527 -0.1702  0.0323 -0.0589
 2994W        W21198  14.085  11.652  13.858  0.1346  0.4964  0.0888
 2995W        W21199   6.470  15.835   2.280  0.1055  0.0077  0.1102
 2996W        W21200   7.497  12.622  17.340  0.0207 -0.0575  0.0646
 2997W        W21201   0.807   0.120   0.918 -0.2170 -0.3701 -0.0223
 2998W        W21202   8.957   2.782  14.226 -0.0584 -0.3897 -0.0254
 2999W        W21203   5.876   2.640  16.426  0.3467  0.2923 -0.2591
 3000W        W21204   5.232  15.433  13.936 -0.1536  0.1988  0.1351
 3001W        W21205   6.991   7.896   3.281 -0.3361  0.2574  0.2294
 3002W        W21206  10.685  12.694  11.746  0.3371  0.0091 -0.1952
 3003W        W21207  16.776  16.071  16.659 -0.1012 -0.1026  0.1293
 3004W        W21208  10.785  11.295   0.400  0.0480 -0.4235 -0.1768
 3005W        W21209   0.635  15.339   3.320  0.0934  0.2455  0.3049
 3006W        W21210  12.345  14.790  17.203 -0.0629  0.2147 -0.1451
 3007W        W21211   0.989  14.847  13.629 -0.3149  0.3295  0.1572
 3008W        W21212   7.492  11.510   2.728 -0.1048 -0.1683 -0.2134
 3009W        W21213   1.696  11.949   4.115  0.1294 -0.0179  0.1373
 3010W        W21214   6.407  10.351   5.087 -0.0336 -0.0394  0.2168
 3011W        W21215   8.003  16.067   0.559 -0.3170 -0.0771  0.0775
 3012W        W21216  11.895  14.258   2.655  0.1549  0.0058 -0.0372
 3013W        W21217  14.247   0.400   4.159 -0.2110 -0.3816  0.4468
 3014W        W21218   8.029  17.255   4.610  0.2982  0.2498  0.0267
 3015W        W21219   5.641  13.316   4.819 -0.0039  0.0439 -0.0646
 3016W        W21220   4.841  12.213   5.535 -0.0288  0.0504 -0.2090
 3017W        W21221   2.616   9.767   4.054  0.2059  0.0734  0.0496
 3018W        W21222   0.896   2.855  17.140  0.1108  0.1968 -0.0739
 3019W        W21223  14.762   9.647  15.007  0.1984  0.0200 -0.0912
 3020W        W21224   3.311  15.745   4.009 -0.2039 -0.1319  0.1216
 3021W        W21225  11.624   9.228  16.345  0.1062 -0.2973 -0.1566
 3022W        W21226   8.776   6.280  13.548 -0.0321  0.1443  0.1873
 3023W        W21227  14.351   0.491  13.120  0.0367 -0.0398  0.1312
 3024W        W21228   9.152  15.125   3.987 -0.1669  0.0253  0.2379
 3025W        W21229   5.338  10.099  13.995 -0.0537  0.1314 -0.3166
 3026W        W21230  12.747   0.637   5.270  0.1307  0.0446 -0.3509
 3027W        W21231   7.275   1.456  16.152 -0.0800  0.0554  0.1789
 3028W        W21232  13.731   7.699   4.863  0.0797  0.3274  0.0519
 3029W        W21233  11.477  15.357  16.433  0.0164 -0.0551  0.1931
 3030W        W21234   4.500   9.057  15.990 -0.0231  0.1904 -0.1405
 3031W        W21235  12.730   9.117  14.996  0.0376  0.0101  0.2279
 3032W        W21236  14.190  16.460  16.276 -0.0645  0.1100  0.2284
 3033W        W21237   9.245   6.456   2.179  0.1540  0.0868  0.0510
 3034W        W21238  11.792   0.322   4.034 -0.0211 -0.0019  0.0500
 3035W        W21239   5.642   2.799  16.854 -0.0139 -0.0873 -0.1675
 3036W        W21240   6.632  14.342   0.655 -0.1663 -0.1104  0.0492
 3037W        W21241  13.777  16.900   1.311 -0.0672 -0.2693 -0.1051
 3038W        W21242   8.428   5.013   2.431  0.2113  0.0564  0.0988
 3039W        W21243   9.130   3.103   1.285 -0.1790 -0.1957 -0.1037
 3040W        W21244   6.717  16.370  14.223 -0.1025 -0.2210 -0.1099
 3041W        W21245   3.239   4.985  15.137 -0.0223  0.2036 -0.1064
 3042W        W21246   7.300  10.219   0.655 -0.0979 -0.3170 -0.0669
 3043W        W21247   7.553   9.612  15.940  0.3040 -0.1829  0.0242
 3044W        W21248  16.555  17.060   3.330 -0.1896 -0.0453  0.1253
 3045W        W21249   2.846   6.133  12.919 -0.3155 -0.1202 -0.0600
 3046W        W21250   8.309   0.603  14.039  0.0222 -0.2419 -0.1159
 3047W        W21251  11.193   1.435  12.927 -0.0473  0.2639  0.4205
 3048W        W21252   8.783  10.489  16.252  0.1155  0.1614  0.0906
 3049W        W21253   7.453   3.775  15.990 -0.2025 -0.2577  0.1326
 3050W        W21254   0.887  15.597  13.323 -0.0911  0.0100 -0.1636
 3051W        W21255  15.885  15.414   0.703  0.1755  0.0845  0.2280
 3052W        W21256   8.492  10.169  14.185  0.1075 -0.1082  0.1507
 3053W        W21257   6.518  10.447  14.619  0.1196 -0.0422 -0.1849
 3054W        W21258  12.506  13.273   3.249 -0.1099  0.2175 -0.2536
 3055W        W21259  10.533  14.065   2.656 -0.2835  0.0826 -0.1473
 3056W        W21260  15.924   7.516  14.784  0.0058  0.1900  0.2694
 3057W        W21261  17.177   8.816  17.070 -0.0302 -0.5446  0.3673
 3058W        W21262   4.476  15.252  15.212 -0.2244  0.1166  0.0723
 3059W        W21263  11.250   2.575  11.959  0.0793 -0.1450 -0.4430
 3060W        W21264   6.957   5.847   4.109  0.1158 -0.1349  0.0421
 3061W        W21265   1.119   7.651  16.031 -0.0961  0.0349 -0.1777
 3062W        W21266   0.262  12.911  14.539 -0.0413  0.1980  0.1259
 3063W        W21267   7.304  11.238   4.647 -0.0215  0.0238 -0.2303
 3064W        W21268  11.523   9.074   0.341  0.2806 -0.1149 -0.1836
 3065W        W21269   4.247   2.830   2.708  0.2998 -0.1337 -0.0016
 3066W        W21270  13.606   4.382   1.979  0.1169  0.0623 -0.2324
 3067W        W21271  11.029  12.928  12.727 -0.1364 -0.1638  0.0990
 3068W        W21272   6.940   1.980   2.454  0.1483  0.0698 -0.1632
 3069W        W21273  15.468  14.734   1.940 -0.0089 -0.2072  0.0928
 3070W        W21274   0.470   8.428  13.440  0.2900 -0.1038 -0.0525
 3071W        W21275  13.744   2.560  13.538  0.0322  0.1884 -0.0718
 3072W        W21276   0.017   1.128   2.394  0.1871 -0.0015 -0.3928
 3073W        W21277   3.593   9.624   1.506  0.2160  0.0230  0.0880
 3074W        W21278   5.161  12.567  14.897 -0.2441  0.1188  0.1916
 3075W        W21279   4.862  15.168   2.348  0.0436  0.2001  0.2608
 3076W        W21280  12.132   2.989   1.672 -0.1266  0.1008 -0.2197
 3077W        W21281   9.489  14.952  12.256 -0.1923  0.0797  0.0530
 3078W        W21282   1.642   0.225   2.108 -0.0029 -0.1115 -0.0002
 3079W        W21283   0.845  16.685  12.540 -0.0202  0.0339  0.0930
 3080W        W21284  11.727   9.827  13.524 -0.1724 -0.3698 -0.3526
 3081W        W21285   6.087  16.638   0.607  0.0461  0.2913 -0.2229
 3082W        W21286   1.306   2.082   0.573 -0.0415  0.0442  0.0396
 3083W        W21287   0.282  12.359   0.726 -0.0191  0.1552 -0.1410
 3084W        W21288   8.514  13.002  14.316  0.0517 -0.1491  0.0253
 3085W        W21289   3.682  15.936  12.695  0.1559 -0.2578  0.0203
 3086W        W21290  14.623  13.666   1.641  0.1130  0.2012 -0.0800
 3087W        W21291   7.877   5.338  16.232 -0.1849  0.1678  0.0126
 3088W        W21292  14.447   9.224   0.400 -0.1072 -0.0099 -0.1021
 3089W        W21293  12.768   1.611   4.837  0.0832  0.3129  0.1952
 3090W        W21294   7.863   3.080   3.752  0.0178  0.3047  0.0736
 3091W        W21295   1.981   1.363   1.276  0.2838  0.0658  0.0117
 3092W        W21296   5.991   8.288  15.776 -0.1070  0.1985 -0.1780
 3093W        W21297   7.210  11.865  16.327 -0.0208 -0.0794 -0.1288
 3094W        W21298   6.278   3.742   1.069 -0.0827  0.2251  0.1263
 3095W        W21299   2.499  14.038   4.669  0.0882  0.0924  0.0304
 3096W        W21300  14.350  10.460  16.183  0.1883 -0.0489 -0.1946
 3097W        W21301   8.955   4.417  16.541 -0.0471 -0.0383  0.4062
 3098W        W21302  12.245   2.118  17.121 -0.0722 -0.0701  0.0052
 3099W        W21303   8.991   7.551   0.576 -0.2771 -0.0664  0.1948
 3100W        W21304  13.069   3.565   2.906  0.1715 -0.1054  0.3238
 3101W        W21305  14.501  10.506  14.787  0.1167  0.0688  0.0098
 3102W        W21306   6.829   6.843   1.842  0.1068 -0.1311 -0.0057
 3103W        W21307  10.450   4.538   0.770  0.0142 -0.0782 -0.0464
 3104W        W21308  14.710   1.884  15.793 -0.1132  0.1378  0.1736
 3105W        W21309   2.983   9.389  15.021 -0.2062  0.1762 -0.2780
 3106W        W21310   7.629   6.191   1.386 -0.0073 -0.0459 -0.3522
 3107W        W21311  16.538   8.779  11.360 -0.1085 -0.0264  0.0609
 3108W        W21312   6.792  11.804  14.533  0.1794  0.3240 -0.2347
 3109W        W21313   6.765   0.312   0.249 -0.1282  0.0652  0.0059
 3110W        W21314   3.692   7.295   4.707 -0.2576  0.1601  0.0220
 3111W        W21315   4.634   4.182  14.392  0.1297 -0.1495  0.3990
 3112W        W21316   1.392   0.168  17.254  0.0080 -0.2124  0.0087
 3113W        W21317  12.163   7.491  15.390  0.1358 -0.1448  0.1683
 3114W        W21318   9.003  14.761  12.738  0.0122  0.0028  0.2176
 3115W        W21319  14.851   5.131   4.469  0.1957 -0.0208  0.1789
 3116W        W21320  10.033  13.233   2.724  0.0620 -0.2041 -0.4729
 3117W        W21321  10.967   9.360   3.397  0.1736  0.2117  0.1797
 3118W        W21322  10.100   0.858  17.452 -0.1089 -0.1933  0.1713
 3119W        W21323   3.791  14.097  15.615 -0.0741 -0.1031  0.0067
 3120W        W21324  12.016   0.782   1.045  0.1170 -0.0846  0.3539
 3121W        W21325   4.976  15.419  15.896  0.2164  0.0925  0.1893
 3122W        W21326  14.364   9.985   1.400 -0.2307 -0.0010 -0.2720
 3123W        W21327  15.537   5.876  14.998 -0.0234  0.2157  0.2528
 3124W        W21328   8.962  12.964  12.422 -0.0431 -0.3388  0.0813
 3125W        W21329   2.291  10.620  12.534 -0.0947 -0.1839 -0.0300
 3126W        W21330  11.829   3.314  14.428 -0.0640 -0.1925  0.2605
 3127W        W21331  12.369   2.199  15.807  0.1680 -0.3963 -0.0923
 3128W        W21332   7.728   9.469  13.178 -0.3273  0.1380 -0.2156
 3129W        W21333   3.638  14.807   2.998 -0.1368 -0.0772  0.1195
 3130W        W21334   1.422   1.008  14.360  0.0245 -0.2388 -0.0970
 3131W        W21335  16.346  15.786  16.576  0.0334  0.0575  0.0799
 3132W        W21336   9.731   7.635   4.775 -0.0882 -0.0321 -0.2853
 3133W        W21337   4.029   0.960  12.335 -0.0370  0.0937  0.1110
 3134W        W21338   8.441   2.076  17.148 -0.3303 -0.2669 -0.0219
 3135W        W21339  15.832  12.484  17.271  0.0694 -0.1939 -0.1541
 3136W        W21340  16.850   6.506   5.136 -0.0221  0.0001  0.1118
 3137W        W21341  16.436   7.311   0.700 -0.0706 -0.1832 -0.2025
 3138W        W21342   1.388  10.743   0.169 -0.0161 -0.0404  0.5512
 3139W        W21343  14.424  13.958  13.946  0.2600 -0.2334 -0.0031
 3140W        W21344  14.445  10.551   4.896  0.0985 -0.1516  0.0223
 3141W        W21345   3.569   3.703  13.185 -0.1291  0.1897  0.0851
 3142W        W21346   9.195   6.626  17.432  0.1625  0.2484 -0.0926
 3143W        W21347  12.790  16.675  12.605  0.0195  0.2653  0.1912
 3144W        W21348  10.384   3.472   5.329 -0.0599  0.3591 -0.3221
 3145W        W21349  10.175   2.617   2.556 -0.2312 -0.0861 -0.0460
 3146W        W21350   0.402   4.297   0.189 -0.0052  0.2437  0.2508
 3147W        W21351   6.252   1.715  16.360  0.1942 -0.0868 -0.2218
 3148W        W21352  14.775   9.792  12.317  0.0265  0.1092 -0.2699
 3149W        W21353   1.572   2.025  14.646  0.0330  0.2251  0.2980
 3150W        W21354  10.583   2.141  16.612  0.1260  0.0253  0.2338
 3151W        W21355   5.326  12.736  14.440  0.0301 -0.0390  0.3031
 3152W        W21356   8.952  16.543   1.374 -0.0281  0.3738  0.0993
 3153W        W21357   7.180   2.826   0.531  0.0901  0.2255 -0.0798
 3154W        W21358   8.125   1.744  13.764 -0.1549  0.0893 -0.0179
 3155W        W21359   0.301   4.022   1.163 -0.2913  0.2539 -0.0724
 3156W        W21360   3.519  11.451   2.691  0.1283  0.1746 -0.0141
 3157W        W21361  15.889  13.558  12.605  0.2060 -0.1314  0.1695
 3158W        W21362  17.128   4.268  15.592 -0.0715 -0.3119 -0.1232
 3159W        W21363   3.996   1.558  17.449 -0.3430  0.0706 -0.1202
 3160W        W21364  10.105   2.410   5.622  0.0497  0.0127 -0.1125
 3161W        W21365  15.073  12.907   1.712  0.0106  0.5772 -0.0948
 3162W        W21366   9.992   7.921  15.686  0.1039 -0.1078 -0.0666
 3163W        W21367  11.664  10.330  13.288  0.2256  0.1898  0.0025
 3164W        W21368  10.921   0.590  14.956 -0.2277 -0.0528  0.0757
 3165W        W21369   1.232  10.098   5.444  0.1669  0.2579 -0.2206
 3166W        W21370   2.642   1.509   0.156 -0.1498 -0.4644 -0.2438
 3167W        W21371   8.022   7.625  16.479  0.1593  0.0757  0.0376
 3168W        W21372  10.214  16.278   2.537  0.2083  0.1196 -0.1628
 3169W        W21373  14.352  16.033  16.098 -0.3580  0.1676 -0.0150
 3170W        W21374   9.162   4.451   4.578  0.1531  0.3593  0.1231
 3171W        W21375  14.805   8.790   1.779 -0.0526 -0.0434 -0.3046
 3172W        W21376   9.355   2.318   0.668  0.1243  0.0765 -0.2940
 3173W        W21377   3.045  11.661   2.976 -0.2747 -0.1697 -0.0639
 3174W        W21378   1.495  10.315  16.737  0.2766 -0.1874 -0.0541
 3175W        W21379   8.956   9.115  13.538  0.1031 -0.0091 -0.3682
 3176W        W21380  13.650   6.125   2.031 -0.1441  0.1736 -0.0018
 3177W        W21381   8.231   6.272  15.926 -0.0776 -0.0808  0.0724
 3178W        W21382   0.173   0.514   2.982 -0.0189  0.0911  0.0080
 3179W        W21383  14.073   3.198  15.016 -0.3517  0.1021  0.0262
 3180W        W21384   5.350   6.973   1.834 -0.1598  0.0551 -0.5047
 3181W        W21385  15.081  13.468  15.523  0.2793 -0.1036  0.0582
 3182W        W21386  15.320   5.809   5.096  0.1099  0.2051  0.0666
 3183W        W21387  12.473  15.797  13.731 -0.2005 -0.1306  0.0670
 3184W        W21388  13.062   9.932   2.351 -0.1533  0.2408 -0.0325
 3185W        W21389   4.877   5.066  15.033 -0.0529 -0.0147  0.2477
 3186W        W21390  13.427   4.288  16.609  0.2811  0.0348  0.3490
 3187W        W21391  17.177   0.339   0.787  0.4465 -0.0290  0.2189
 3188W        W21392   9.635  14.881   3.722  0.0292  0.1295 -0.3320
 3189W        W21393   1.862  14.927   5.407 -0.2576  0.4365  0.1479
 3190W        W21394  15.006  12.660  13.476 -0.0031  0.1155 -0.1900
 3191W        W21395   7.960  10.741  11.089 -0.2072 -0.0681 -0.1100
 3192W        W21396   6.934   9.259   1.700  0.0822 -0.3065  0.1534
 3193W        W21397  16.094   3.685  15.327  0.1815 -0.1206 -0.1030
 3194W        W21398  17.008   8.786  13.674  0.0363  0.0480 -0.1606
 3195W        W21399  15.818   6.810  14.432 -0.0859 -0.0073 -0.2416
 3196W        W21400  12.835  16.902  14.373 -0.0907 -0.0282 -0.2965
 3197W        W21401  16.102   8.768   1.233 -0.1469 -0.1021 -0.0214
 3198W        W21402   2.466  13.798   1.322  0.0131 -0.0823  0.0718
 3199W        W21403   1.552   0.212   0.187  0.1278  0.1251 -0.3177
 3200W        W21404  15.898   5.562  15.748 -0.1865 -0.1339 -0.2056
 3201W        W21405  17.263  13.913  12.579 -0.2708 -0.0941  0.2715
 3202W        W21406   6.503   3.730  16.976 -0.0966 -0.1565 -0.0614
 3203W        W21407  14.851   1.599  16.333  0.1892 -0.2020  0.1712
 3204W        W21408   0.352   5.035  16.612 -0.2133 -0.0326 -0.0331
 3205W        W21409   1.853   5.199   3.135  0.1613 -0.0941  0.1746
 3206W        W21410  13.807  13.117   3.300 -0.2640  0.2259 -0.2971
 3207W        W21411   5.297   1.657  14.864  0.1571 -0.1545 -0.2796
 3208W        W21412   1.313   6.585   4.630 -0.1591  0.1374 -0.0312
 3209W        W21413  16.456   4.394   3.602 -0.0075 -0.0813 -0.0985
 3210W        W21414   5.788   2.754   0.984  0.0482 -0.0249  0.0225
 3211W        W21415   2.773   9.845   5.394 -0.0116  0.0007 -0.1542
 3212W        W21416   5.050   5.480  14.842 -0.0239 -0.2064  0.2156
 3213W        W21417   9.904  13.930   1.203  0.1313  0.1155 -0.2047
 3214W        W21418   2.836  11.144  15.927 -0.1379  0.2358 -0.2978
 3215W        W21419  11.566   2.856   4.813 -0.0809  0.1149 -0.0348
 3216W        W21420  10.349  10.392   5.623 -0.0098  0.0093 -0.2364
 3217W        W21421   8.570  12.985   3.576  0.0196 -0.0895 -0.2884
 3218W        W21422   9.054   5.287   1.433  0.0056  0.1092  0.1930
 3219W        W21423  15.963   6.691   5.097  0.0371  0.2738  0.1033
 3220W        W21424  13.006  17.270  11.527  0.0475  0.1534 -0.0290
 3221W        W21425  14.395  15.595  12.137 -0.0656  0.0566  0.3152
 3222W        W21426   5.274   7.655   4.841  0.0183 -0.1810 -0.1193
 3223W        W21427  17.172  14.166   1.650  0.0417  0.4604 -0.1539
 3224W        W21428   8.604  14.928  16.348 -0.0666 -0.1281  0.1057
 3225W        W21429  14.873   7.754   3.452  0.5756 -0.0528 -0.1237
 3226W        W21430   4.848   4.407   2.863 -0.1993 -0.0166 -0.0300
 3227W        W21431   1.958   6.928  14.936  0.1355  0.0904  0.1735
 3228W        W21432  14.944  14.921  13.336 -0.0720 -0.1125  0.1499
 3229W        W21433  15.526   1.122   3.834  0.0690  0.0577  0.2349
 3230W        W21434   0.249   5.541  17.293  0.1480 -0.1493  0.1909
 3231W        W21435  10.507   2.953  14.902  0.0239  0.0677  0.1366
 3232W        W21436  12.532   9.959  11.371  0.0608  0.1349 -0.0211
 3233W        W21437   5.654   3.230   2.154 -0.2394 -0.0354  0.0957
 3234W        W21438  16.623   2.096   1.994  0.0950 -0.0143  0.0228
 3235W        W21439   4.321   3.346  13.260 -0.2721 -0.0425  0.1751
 3236W        W21440  12.420   9.306   0.305  0.1060 -0.0575 -0.1386
 3237W        W21441  15.664   5.296  13.063  0.1759 -0.0764 -0.2288
 3238W        W21442  11.237  14.737   4.754 -0.0428  0.0367  0.0085
 3239W        W21443   7.770  13.239  12.504 -0.1942 -0.2763 -0.1310
 3240W        W21444   8.875  10.842  12.821  0.0481 -0.0889  0.0516
 3241W        W21445  11.771  10.991  17.207 -0.2392  0.1278 -0.3503
 3242W        W21446  14.562   1.660  11.473  0.1661  0.1437 -0.1468
 3243W        W21447   1.214   7.283  14.068 -0.2805 -0.0364  0.1014
 3244W        W21448  13.736  16.904  13.435 -0.2703  0.4106  0.2290
 3245W        W21449  13.696   8.857  15.193 -0.1596  0.0866 -0.1163
 3246W        W21450   7.353  15.235  15.730 -0.3364  0.3030  0.0834
 3247W        W21451  17.162  10.811   2.275  0.2756  0.0435 -0.0615
 3248W        W21452   9.242   9.740   2.628  0.0026 -0.0484 -0.1022
 3249W        W21453   7.752   0.647   2.628 -0.2516 -0.6271 -0.0568
 3250W        W21454  13.334   0.924   3.861 -0.2955  0.1361  0.2539
 3251W        W21455  13.909   0.654   0.414 -0.1574  0.0313  0.0436
 3252W        W21456  16.288  16.117  16.215 -0.0722 -0.1284 -0.2160
 3253W        W21457   6.663  12.309  12.895  0.2595 -0.1760 -0.2068
 3254W        W21458  15.477   9.576   5.574  0.0829 -0.0999  0.3448
 3255W        W21459   8.758   2.251   3.021  0.2108 -0.0772  0.1001
 3256W        W21460   9.223   1.618  12.355 -0.3214 -0.3360 -0.0259
 3257W        W21461   3.781   0.843   5.199  0.2680 -0.1770 -0.1234
 3258W        W21462   6.213   0.955  14.428  0.0135 -0.0156  0.1701
 3259W        W21463   9.306  17.171   3.235  0.0284  0.2882 -0.0728
 3260W        W21464  17.240  16.611   3.776  0.1303 -0.1001  0.1184
 3261W        W21465  11.033   2.355  13.813 -0.0255 -0.2349  0.1808
 3262W        W21466   7.619  16.813  15.176 -0.0288  0.1519  0.0734
 3263W        W21467  10.851   7.878   4.199 -0.1018  0.3086  0.1733
 3264W        W21468  11.560   5.469  15.208 -0.0484 -0.2196 -0.0500
 3265W        W21469  16.581   2.330   5.301  0.0441 -0.0839  0.3458
 3266W        W21470  14.973  15.011   1.269  0.1788 -0.0793 -0.0074
 3267W        W21471  17.302   9.863  15.454 -0.0342 -0.1918  0.1350
 3268W        W21472   5.973  17.172   5.460  0.0506  0.2060  0.0191
 3269W        W21473   4.783  16.627   0.762  0.1447 -0.1079  0.0247
 3270W        W21474  12.137  14.380  16.908  0.0817 -0.1004 -0.1818
 3271W        W21475  15.757   6.090  15.751  0.0166  0.1946  0.1034
 3272W        W21476   8.554   7.350   3.544  0.0001  0.1029 -0.2509
 3273W        W21477   1.373  11.944  14.670 -0.1951  0.2466 -0.1923
 3274W        W21478   6.506   0.242   1.124 -0.2581 -0.1498 -0.4402
 3275W        W21479   6.710  11.041   2.001  0.2949 -0.1025  0.0118
 3276W        W21480  13.968  16.123  14.205 -0.1268 -0.1783 -0.2019
 3277W        W21481  12.351  11.188   1.018 -0.0783  0.0196  0.1906
 3278W        W21482   3.292   4.624  15.749 -0.0024 -0.1036 -0.1750
 3279W        W21483  11.966  14.854   4.268 -0.0726 -0.4140  0.0050
 3280W        W21484   0.222   2.874   4.047 -0.2076  0.1599 -0.0404
 3281W        W21485  16.622  15.146  17.141  0.1973 -0.0160 -0.0426
 3282W        W21486   6.611  14.195   1.908  0.0846 -0.1712  0.0953
 3283W        W21487  10.048  15.281   4.965  0.0518 -0.0793 -0.0696
 3284W        W21488   1.670  11.812  14.287 -0.0145  0.1705  0.1582
 3285W        W21489  17.172  10.852  11.929 -0.1713  0.0034 -0.0487
 3286W        W21490   8.534  10.167  16.488 -0.2732  0.4512 -0.1639
 3287W        W21491   5.325  16.889  13.658 -0.1214 -0.0129  0.0770
 3288W        W21492  13.872  13.485   5.127 -0.3025 -0.0284  0.2291
 3289W        W21493  10.287   5.321   3.221  0.0242  0.1684 -0.0903
 3290W        W21494  17.030  12.861  13.611  0.0061 -0.2008  0.1471
 3291W        W21495  13.837   3.548   3.531  0.0040 -0.3355 -0.0265
 3292W        W21496   6.707  10.378  12.120  0.4662  0.1641  0.2670
 3293W        W21497   9.475   9.319   3.946  0.1222 -0.4576 -0.1467
 3294W        W21498  16.649   7.140   6.221  0.1410 -0.1037  0.2304
 3295W        W21499  16.181   6.278   0.415 -0.0703 -0.1264 -0.0323
 3296W        W21500   8.165   2.953  17.165 -0.1989 -0.1839 -0.0871
 3297W        W21501  17.076   9.847   4.286  0.0010  0.0549 -0.0150
 3298W        W21502   9.964  14.781  12.319  0.1699 -0.0151 -0.1825
 3299W        W21503   5.751   7.031  16.648 -0.1909 -0.1753  0.1737
 3300W        W21504   2.269  15.681   1.952 -0.0500 -0.0463 -0.0427
 3301W        W21505  10.423  14.347  12.931  0.1043 -0.3088  0.0409
 3302W        W21506   3.937  14.398  12.214  0.0048 -0.0790  0.3802
 3303W        W21507   9.915   4.401   2.771  0.1690 -0.1974 -0.0413
 3304W        W21508   7.459   5.207  13.973  0.1685  0.1842 -0.0593
 3305W        W21509   4.071  11.662  13.303 -0.0019  0.1636  0.1319
 3306W        W21510   4.846  14.238   2.264 -0.0065 -0.0290 -0.0849
 3307W        W21511  14.523   8.954  12.577  0.0598  0.1911  0.4038
 3308W        W21512   2.476  12.730   4.192  0.1230  0.0925 -0.0107
 3309W        W21513  16.261  15.782   0.967  0.1027  0.1003  0.3244
 3310W        W21514  15.369  14.980  14.506  0.0085  0.0681 -0.0916
 3311W        W21515   0.137   1.506   5.063  0.1278  0.0383  0.0893
 3312W        W21516   0.018   6.808  13.187 -0.0177 -0.0009  0.0372
 3313W        W21517   0.840  15.730  15.229  0.2542 -0.0450  0.1564
 3314W        W21518  15.486  11.231   1.394 -0.1638  0.1398  0.2179
 3315W        W21519  15.639   2.912   0.933 -0.0491 -0.3079  0.1079
 3316W        W21520   6.287   4.940  14.010 -0.1202  0.0012 -0.0784
 3317W        W21521  13.446   1.195  14.628 -0.1223 -0.1563  0.0566
 3318W        W21522   7.944   7.443  15.909  0.1162 -0.1344 -0.2944
 3319W        W21523  12.297   2.329  12.274  0.4135 -0.2686 -0.1707
 3320W        W21524   8.311  17.068  12.267  0.0496 -0.0913  0.1732
 3321W        W21525  15.802  11.374   2.598  0.0951 -0.1861 -0.1001
 3322W        W21526   8.569   8.452  16.837 -0.0725 -0.1859  0.1517
 3323W        W21527   9.565  15.655   0.360  0.0501  0.0320  0.0075
 3324W        W21528   7.470  10.440  16.017  0.1644 -0.1149 -0.3660
 3325W        W21529  14.342   9.921  14.686 -0.0036  0.1710  0.0418
 3326W        W21530  15.244   4.908  15.459 -0.1507  0.1999 -0.1824
 3327W        W21531  15.011  15.336  14.301 -0.1499  0.2266 -0.1760
 3328W        W21532  14.514  15.627  14.037 -0.2696 -0.0380 -0.0220
 3329W        W21533  12.730   9.392   1.198  0.0618  0.0174 -0.2091
 3330W        W21534   3.573   1.368  15.632 -0.2689 -0.1163  0.0061
 3331W        W21535  15.508   3.669   4.721  0.2677 -0.2195 -0.0530
 3332W        W21536   6.876   3.557   3.249 -0.2301 -0.3139 -0.0655
 3333W        W21537   7.715  15.366  14.861  0.2211 -0.1411 -0.2044
 3334W        W21538  13.105  10.895   3.534  0.2702 -0.0069 -0.3038
 3335W        W21539   9.592   8.541  12.390 -0.1054 -0.0689  0.0385
 3336W        W21540  10.304   1.652   1.247 -0.2435  0.4167 -0.3174
 3337W        W21541   9.445  11.876  12.976 -0.0312  0.2319 -0.3140
 3338W        W21542  16.865   8.782  12.640  0.0463 -0.1523 -0.1574
 3339W        W21543  11.661   4.698   3.635 -0.0665 -0.0276 -0.2006
 3340W        W21544  11.039  13.195   0.173 -0.1429 -0.0102  0.0730
 3341W        W21545   2.223   1.990   0.953 -0.0855 -0.1109 -0.0127
 3342W        W21546  16.895  16.430  15.341  0.0489  0.0534 -0.0056
 3343W        W21547   9.909  10.685  14.021  0.1828  0.2152  0.0829
 3344W        W21548   6.635   0.758   1.218  0.0875  0.0728 -0.0435
 3345W        W21549   1.931   4.740   2.851 -0.1236 -0.3011 -0.1084
 3346W        W21550   1.015   4.921  15.880  0.0811  0.1790 -0.2122
 3347W        W21551   2.803   3.093  12.360  0.0711 -0.0033 -0.1131
 3348W        W21552   5.336   4.618   3.059  0.1307 -0.1346  0.1390
 3349W        W21553   2.094  15.242   5.097  0.1256 -0.3267  0.1275
 3350W        W21554   0.208   4.246  16.903  0.2121 -0.1920 -0.0623
 3351W        W21555   4.251   4.708   4.454  0.0843 -0.0692  0.1141
 3352W        W21556   1.284   8.111   0.635  0.0139  0.3117 -0.1197
 3353W        W21557   0.964  12.585   4.691 -0.0265  0.1396  0.0001
 3354W        W21558   8.707   9.022   2.227 -0.0272 -0.0589 -0.0246
 3355W        W21559   3.323   7.173  11.660  0.3349 -0.3558  0.0267
 3356W        W21560   6.548  10.414  17.036 -0.0298  0.1539 -0.0531
 3357W        W21561   6.551   8.484   2.050 -0.0208 -0.3736  0.0204
 3358W        W21562  16.950  13.070   1.598  0.2039 -0.1908 -0.0476
 3359W        W21563   8.411  11.780  13.981  0.1150  0.1207 -0.2427
 3360W        W21564   4.345  12.868  13.148 -0.0837 -0.0455  0.1377
 3361W        W21565   1.912  13.290   3.750  0.0073 -0.0300 -0.3822
 3362W        W21566   9.462   2.432   2.450  0.1759  0.1501 -0.2787
 3363W        W21567  11.544   1.152   4.128 -0.0872 -0.1732 -0.1406
 3364W        W21568   0.118   6.633   4.029 -0.1086  0.1795  0.0412
 3365W        W21569   6.367   9.150  16.511 -0.2150 -0.0411 -0.1684
 3366W        W21570   8.919  11.714   4.205 -0.1755 -0.1462 -0.0577
 3367W        W21571   5.891   1.970   2.749 -0.1170 -0.2026  0.0410
 3368W        W21572   1.859   6.025   5.492  0.3337 -0.0178  0.1873
 3369W        W21573   3.273  16.411   4.815  0.4793  0.2414  0.1636
 3370W        W21574   1.259   2.201   3.048 -0.0048  0.1747 -0.0438
 3371W        W21575   7.070  16.104  16.859 -0.0610 -0.0322  0.0707
 3372W        W21576  13.508   2.167   5.601  0.0074 -0.0339  0.3863
 3373W        W21577  14.975  11.499  16.387  0.1469  0.0270 -0.1253
 3374W        W21578  16.588   8.317  11.513 -0.3311  0.0675  0.2381
 3375W        W21579  15.490   8.605  14.862 -0.1603 -0.0272 -0.2647
 3376W        W21580   4.863   6.985  11.962  0.1968 -0.1505 -0.0770
 3377W        W21581   8.013  11.069  16.525 -0.1095 -0.1562  0.1010
 3378W        W21582   9.944   1.649  12.393  0.0340  0.1793  0.0264
 3379W        W21583   7.122   5.705  13.218  0.0401  0.1953 -0.1064
 3380W        W21584   8.561   0.995   2.596 -0.0614 -0.0461  0.0781
 3381W        W21585   2.964   2.073   2.792  0.1360 -0.2274  0.0214
 3382W        W21586  12.104   8.143  16.512 -0.1628 -0.0266  0.1225
 3383W        W21587  16.721   6.772   0.032  0.2603 -0.0579 -0.1492
 3384W        W21588  17.101   2.237  17.456 -0.4162 -0.0022 -0.1125
 3385W        W21589  16.057   4.417  14.892  0.2998 -0.0792  0.1037
 3386W        W21590  17.008  16.788   0.196  0.0909 -0.1248 -0.3183
 3387W        W21591   6.291  16.235   1.062 -0.0046  0.2301  0.1583
 3388W        W21592   6.004   7.104   3.878  0.0347 -0.1148  0.1854
 3389W        W21593  12.722  13.410   1.701  0.0337  0.0133  0.2572
 3390W        W21594   8.428   6.848   0.007  0.0207  0.1292  0.0086
 3391W        W21595  14.187  10.332  12.608 -0.1211 -0.0986  0.2420
 3392W        W21596  15.369  11.059   3.473 -0.0198 -0.1219 -0.0728
 3393W        W21597  11.024   8.814  12.822 -0.2011 -0.1188  0.2397
 3394W        W21598   5.769   6.889   0.110 -0.1335 -0.1373  0.0903
 3395W        W21599  17.186  15.471  14.618 -0.0294  0.0940  0.2106
 3396W        W21600   5.999  13.613   3.837  0.0390  0.0528 -0.0280
 3397W        W21601   8.338   2.698   3.983  0.0997 -0.1058 -0.0234
 3398W        W21602   8.706   6.581  12.572  0.0394 -0.0534  0.0814
 3399W        W21603  11.146  10.737  17.310  0.1252  0.1210  0.1138
 3400W        W21604  10.948  15.089   5.786  0.0673 -0.0340 -0.2078
 3401W        W21605  12.720  10.688   4.445 -0.1328  0.1976 -0.1124
 3402W        W21606  11.994  11.344   4.649 -0.3305  0.1780 -0.1521
 3403W        W21607  16.812   4.469  14.579 -0.2218  0.0258 -0.0856
 3404W        W21608   9.558   2.775  12.598  0.0364  0.1904 -0.1414
 3405W        W21609   3.619   8.762   4.366  0.1038 -0.3407 -0.1948
 3406W        W21610   4.913   6.424  12.094  0.1754  0.1332 -0.1665
 3407W        W21611   0.101   4.476  16.059 -0.3781 -0.0537  0.0271
 3408W        W21612  15.009  15.938  16.570  0.0459  0.1661  0.0055
 3409W        W21613  12.135  16.741   4.971 -0.1139  0.3512  0.0667
 3410W        W21614   3.218   1.282   4.534 -0.0606 -0.0593  0.1469
 3411W        W21615  12.713   8.776  12.732 -0.0298 -0.2746 -0.1584
 3412W        W21616   0.349  13.941   3.812 -0.0757  0.3047  0.1769
 3413W        W21617   7.268   7.248   0.770 -0.1105  0.2937  0.1478
 3414W        W21618  10.436   7.861  11.339 -0.0743  0.0159  0.1467
 3415W        W21619   4.514  10.970   3.037  0.0743 -0.1412 -0.1159
 3416W        W21620   1.982  11.411  13.632 -0.3315  0.0334  0.2154
 3417W        W21621   7.388  14.575   1.570 -0.1588 -0.1295 -0.1640
 3418W        W21622   1.154   8.132  17.192  0.0017  0.0143  0.0626
 3419W        W21623  16.101  13.934   0.470  0.0331 -0.1790 -0.0272
 3420W        W21624   6.087   4.920  14.538  0.3737  0.2324 -0.0788
 3421W        W21625   9.562   0.258  15.167 -0.3400 -0.0002  0.1312
 3422W        W21626   9.441   4.561  13.548  0.0823  0.1413  0.2532
 3423W        W21627   8.749   0.063   2.717 -0.1423  0.1666  0.0991
 3424W        W21628   2.914  14.747  17.066 -0.0136 -0.2350 -0.0391
 3425W        W21629   2.476  16.377   1.122 -0.1086  0.2735  0.0457
 3426W        W21630   0.091  13.283   1.491 -0.0342  0.1014 -0.0226
 3427W        W21631   8.903   8.963  15.887 -0.1215 -0.0886  0.0125
 3428W        W21632  11.773   6.594   0.536 -0.1021 -0.1339 -0.3150
 3429W        W21633   7.724   2.476  14.334 -0.0144  0.0014 -0.0471
 3430W        W21634   5.558   2.487  15.183  0.0792 -0.0514 -0.0057
 3431W        W21635  13.722  15.694   2.988  0.0568  0.0216 -0.0974
 3432W        W21636  13.139  10.925   4.455 -0.0271 -0.1620  0.1695
 3433W        W21637   0.323   5.601   4.663  0.0242 -0.0265 -0.1775
 3434W        W21638   7.249  15.779  14.965  0.0904  0.0346 -0.0224
 3435W        W21639  15.184   0.473  14.886 -0.0141 -0.1317 -0.3068
 3436W        W21640  14.502  10.140  15.665  0.0631  0.1617  0.3715
 3437W        W21641   9.244   3.413   5.029 -0.2068 -0.1234 -0.2062
 3438W        W21642  15.395   6.347  16.774  0.0439 -0.0453 -0.1389
 3439W        W21643   5.078   6.403  17.389  0.1012 -0.2519 -0.1292
 3440W        W21644   1.865   7.252  15.583  0.0041  0.1213 -0.0364
 3441W        W21645   8.542  10.894   4.338 -0.1455 -0.0559 -0.0529
 3442W        W21646   1.776   7.003   0.736 -0.1120  0.1655 -0.4270
 3443W        W21647  14.304   3.158  13.186  0.1222 -0.0265  0.0053
 3444W        W21648  10.815  14.192   0.388  0.1785  0.0669  0.1711
 3445W        W21649  16.468   3.437  16.168 -0.0395 -0.1173  0.1314
 3446W        W21650  15.295  10.053  15.283 -0.0759  0.4969  0.1993
 3447W        W21651   7.854   7.715   4.344  0.0490 -0.1837 -0.0981
 3448W        W21652   8.642   4.111   1.042  0.0288  0.0697 -0.0401
 3449W        W21653   0.693   8.639  15.180 -0.1739 -0.0554 -0.1842
 3450W        W21654   1.347   3.835   2.530 -0.0084 -0.0225  0.0295
 3451W        W21655  14.055   1.164   0.123  0.1671  0.1371  0.1757
 3452W        W21656  15.012  12.399   0.266  0.2862 -0.0460 -0.0748
 3453W        W21657  14.690   1.724   2.383 -0.2535 -0.3969  0.0540
 3454W        W21658   4.880   3.531   1.631 -0.0215 -0.0383 -0.4846
 3455W        W21659  11.414  12.054  14.645 -0.2097  0.0661 -0.0315
 3456W        W21660  14.933  16.832   0.841 -0.0637 -0.0163  0.1945
 3457W        W21661   1.767  11.331  14.578  0.0371  0.0146  0.5523
 3458W        W21662  15.891  11.943  16.204 -0.1285 -0.0784  0.0649
 3459W        W21663   4.512  10.405  15.152  0.1905  0.1586  0.1377
 3460W        W21664  10.012   7.692  16.098 -0.1549  0.0427  0.0140
 3461W        W21665   7.006   4.794  14.013  0.1212  0.0634  0.4962
 3462W        W21666   5.695   8.077   0.717 -0.3727 -0.0074  0.1499
 3463W        W21667   6.770  10.298   2.219 -0.1003 -0.2756  0.2945
 3464W        W21668  10.740   1.607   4.739 -0.1341 -0.0430  0.0157
 3465W        W21669  10.336   1.624   3.949 -0.1087 -0.2725  0.1341
 3466W        W21670   5.531  17.232  17.446  0.0366  0.1340  0.0786
 3467W        W21671  13.290  15.523  15.283  0.2474 -0.1629 -0.1998
 3468W        W21672   0.627   2.736   3.181 -0.2731  0.0012 -0.2745
 3469W        W21673   4.354   6.624   2.045 -0.2496  0.1832 -0.0405
 3470W        W21674   9.619   0.088  17.246  0.0571  0.2635  0.0104
 3471W        W21675  10.164  11.503   3.684 -0.1919 -0.2737  0.1570
 3472W        W21676  15.839   2.386   2.029  0.4447 -0.0130  0.1999
 3473W        W21677  10.004   9.739  16.072 -0.0417  0.0206  0.0466
 3474W        W21678   0.826  15.451   2.247  0.0489  0.1340  0.0599
 3475W        W21679   9.884   6.193   3.556 -0.1353  0.0406  0.0586
 3476W        W21680  16.962  17.269   4.547  0.0049 -0.1508 -0.2184
 3477W        W21681   9.338  12.207  17.396  0.0789 -0.0141 -0.0552
 3478W        W21682  15.883   5.013  12.492  0.3429  0.0144  0.0445
 3479W        W21683   5.471   3.440  12.740  0.0732 -0.1387 -0.0009
 3480W        W21684   7.875   7.983  17.264 -0.0036 -0.0430  0.0849
 3481W        W21685   0.173  15.290  13.477  0.0065 -0.1734 -0.0732
 3482W        W21686  12.261  13.928  13.621  0.1000  0.3417  0.0321
 3483W        W21687   7.301   8.765  12.839 -0.0260 -0.0789  0.3884
 3484W        W21688  10.584   5.155  12.927  0.1357 -0.0500 -0.1940
 3485W        W21689  10.514   7.704   1.643  0.2816 -0.0107 -0.1775
 3486W        W21690  14.757  16.819   3.252  0.0749  0.1830 -0.0451
 3487W        W21691   3.175   5.673   3.211 -0.1764  0.2527  0.1298
 3488W        W21692   2.579   7.819  13.763  0.0377  0.1174 -0.2261
 3489W        W21693  13.376  16.178  15.943 -0.0277 -0.0459  0.0379
 3490W        W21694  11.479   1.331   0.518 -0.0594  0.1243  0.0302
 3491W        W21695  10.823  13.184   2.959 -0.1087 -0.0138  0.1081
 3492W        W21696  13.304   2.589  14.870 -0.0583 -0.0456 -0.3127
 3493W        W21697   4.686  10.767  15.517 -0.0589 -0.1962  0.2740
 3494W        W21698   1.860   0.537  13.095  0.0035 -0.3008 -0.2407
 3495W        W21699  15.662   1.643   3.853  0.2301 -0.0565 -0.1512
 3496W        W21700   2.529   6.607   5.070  0.0322 -0.3036  0.1946
 3497W        W21701  13.761  13.655  16.777 -0.1005  0.2055  0.2023
 3498W        W21702   9.640  14.941  15.016 -0.0416 -0.1695 -0.0602
 3499W        W21703  15.982   1.317   3.751  0.1485  0.1716 -0.0884
 3500W        W21704   9.939   6.323   4.061  0.2307  0.4010 -0.1093
 3501W        W21705   9.274   6.426  13.573  0.0977 -0.0769 -0.2313
 3502W        W21706  11.462   4.745   0.327  0.0047  0.0191  0.3026
 3503W        W21707   7.661  16.403  12.574  0.0849  0.0946  0.0337
 3504W        W21708   9.539   3.016  16.841  0.1509 -0.1210  0.1905
 3505W        W21709   4.522   4.792  13.907  0.0884  0.0299  0.1428
 3506W        W21710  13.979   0.443  11.389 -0.1789 -0.2613  0.2293
 3507W        W21711   5.164   7.491   1.416 -0.0989 -0.0433  0.0335
 3508W        W21712  17.033   4.014  14.453 -0.2830 -0.1821  0.2710
 3509W        W21713  11.982  11.428   1.288 -0.0322 -0.2232 -0.0582
 3510W        W21714   1.132  12.750   3.105  0.1882 -0.0039  0.1605
 3511W        W21715   1.523   0.557  16.909 -0.0780  0.1978 -0.3562
 3512W        W21716   1.509  15.794  13.895 -0.1208 -0.0219 -0.1864
 3513W        W21717  11.201  15.227  12.134  0.2536 -0.0988 -0.2711
 3514W        W21718   5.780  14.699   4.932 -0.1652  0.2669 -0.0436
 3515W        W21719  15.815   5.309  16.158  0.3476  0.1716 -0.0621
 3516W        W21720  11.280   3.672  11.781 -0.1556 -0.1626  0.2471
 3517W        W21721  15.484   2.410   4.324 -0.0412 -0.1818  0.4543
 3518W        W21722  15.612   8.038  14.792 -0.0075 -0.2409 -0.2701
 3519W        W21723   8.597  10.842   1.142  0.1723  0.1814 -0.2133
 3520W        W21724  16.985   9.247  12.415  0.3593 -0.2038 -0.2517
 3521W        W21725   1.449   4.741  15.122  0.1377 -0.0385 -0.1102
 3522W        W21726  16.711   8.098  13.191 -0.1250 -0.2752  0.1548
 3523W        W21727   6.762  13.776  14.455 -0.1012 -0.0478 -0.0828
 3524W        W21728  10.727   4.046   0.071 -0.2114  0.0473 -0.0292
 3525W        W21729  14.645  14.729   0.333 -0.0504 -0.1497  0.0969
 3526W        W21730  15.133  12.398  16.168 -0.0800 -0.0271 -0.0649
 3527W        W21731  17.080  14.842  14.610  0.2043 -0.0645 -0.2148
 3528W        W21732  14.728  16.333  15.370 -0.0747  0.0272  0.0050
 3529W        W21733  16.423  10.195  15.965  0.0006  0.1037 -0.1477
 3530W        W21734   7.307   1.234   0.043 -0.2390 -0.1706 -0.0668
 3531W        W21735  11.837  14.568  15.947  0.0048 -0.1257 -0.1098
 3532W        W21736  16.770  15.193  14.814 -0.2030 -0.1926 -0.0257
 3533W        W21737   0.944   3.083  14.458  0.0401 -0.2993  0.4591
 3534W        W21738  13.568  15.380   4.495  0.1082 -0.2271  0.0984
 3535W        W21739   9.547  16.695  13.225  0.1089  0.1912 -0.0651
 3536W        W21740  12.218  16.055   0.206  0.2310 -0.1807 -0.0240
 3537W        W21741   8.858  11.555  14.500 -0.2293 -0.0715 -0.1706
 3538W        W21742  15.425  10.622  17.410  0.0390 -0.1072  0.0991
 3539W        W21743   5.114   5.911   0.013  0.1929 -0.1826  0.0806
 3540W        W21744   1.333   5.150  13.056 -0.1246  0.1707 -0.2690
 3541W        W21745  11.985   0.354  14.594 -0.1280  0.0502  0.1051
 3542W        W21746   4.550  12.154  12.469  0.0057 -0.0941  0.2419
 3543W        W21747   5.203  11.911  16.344  0.1370  0.2306  0.0303
 3544W        W21748  15.108   2.275   4.684 -0.1462 -0.0223  0.2453
 3545W        W21749   1.136   8.669  14.075 -0.1570 -0.0294 -0.5126
 3546W        W21750  12.206   9.426   1.755 -0.0224 -0.0811 -0.0673
 3547W        W21751   7.760  14.014  14.625  0.2136 -0.2871 -0.3377
 3548W        W21752   3.694  11.821  12.779  0.2655  0.1743  0.2144
 3549W        W21753   3.309   9.738  14.581 -0.3719  0.0757 -0.1732
 3550W        W21754  14.189   4.613   2.995  0.2308 -0.0663 -0.4489
 3551W        W21755   5.231  12.386   1.998 -0.3805 -0.1574 -0.4100
 3552W        W21756   1.371   2.662   1.807 -0.1216  0.1434  0.1680
 3553W        W21757   0.622  15.249  16.189 -0.3180 -0.1312 -0.2797
 3554W        W21758  14.344   6.794   4.672 -0.1983 -0.0416 -0.2340
 3555W        W21759  10.301   8.611  14.568  0.1235 -0.0268 -0.2920
 3556W        W21760   6.529   3.471   5.258  0.1311  0.1518  0.1655
 3557W        W21761   1.220   7.980   4.225 -0.2570  0.0093 -0.0768
 3558W        W21762  15.775   3.266  14.061 -0.2815 -0.1417 -0.0000
 3559W        W21763  14.584  12.251   4.531  0.1270  0.1496  0.1929
 3560W        W21764   5.901   3.679   4.614  0.1310 -0.0206 -0.0753
 3561W        W21765   7.948  14.608  14.361  0.0419  0.2655  0.2192
 3562W        W21766  10.252   0.450  13.323 -0.1939 -0.0773 -0.1320
 3563W        W21767   6.649   2.344  12.990  0.1849 -0.2556  0.0602
 3564W        W21768   5.704   7.434   2.016 -0.1116 -0.2043  0.1943
 3565W        W21769  11.502  10.340   0.774 -0.2371  0.0457  0.1670
 3566W        W21770  10.381   2.858   4.675  0.1234 -0.0261  0.0800
 3567W        W21771   8.015   6.962   2.525  0.0993 -0.3653  0.2081
 3568W        W21772   6.723  10.862  15.556 -0.0597  0.1144  0.2784
 3569W        W21773  10.719  14.707  16.296 -0.0646 -0.0286  0.0317
 3570W        W21774   7.400  11.379   1.464  0.2483 -0.3262 -0.1061
 3571W        W21775  14.897  11.615  14.057 -0.2226 -0.0868  0.1667
 3572W        W21776   0.627   7.849  16.011  0.1118  0.0178 -0.3770
 3573W        W21777   4.262   3.837   3.081  0.0124 -0.0087  0.2373
 3574W        W21778   5.352   1.190  16.876 -0.1017 -0.1874 -0.2577
 3575W        W21779   6.703  12.852   0.535  0.1500  0.0060  0.2876
 3576W        W21780   8.354   3.762  12.480  0.0584  0.0107 -0.0228
 3577W        W21781  14.770  12.186  17.362  0.2060  0.0995  0.0996
 3578W        W21782  13.228   5.534   4.430  0.1846 -0.0631  0.1382
 3579W        W21783  16.625  10.468   1.160  0.0278 -0.0922 -0.2043
 3580W        W21784   6.216   6.241  13.584 -0.0712 -0.0141  0.0426
 3581W        W21785  12.963   1.866  16.520 -0.1394 -0.2119 -0.0531
 3582W        W21786   0.002   4.690   4.364 -0.0130  0.1783 -0.0224
 3583W        W21787  16.439   5.158   4.113 -0.1136 -0.2299 -0.0616
 3584W        W21788  12.327   0.126  16.325 -0.1903  0.0284 -0.0374
 3585W        W21789   8.102   4.219   0.127 -0.2732  0.1313 -0.0002
 3586W        W21790   8.244  11.005   2.830  0.1969 -0.3187  0.0761
 3587W        W21791   0.765   5.259  12.642 -0.1606  0.1040 -0.1069
 3588W        W21792  11.633   7.993   1.007  0.1410 -0.0628  0.2025
 3589W        W21793   2.388   8.851  13.922 -0.0520  0.0325 -0.3266
 3590W        W21794   3.654  10.571  16.807  0.0498  0.0066 -0.1127
 3591W        W21795  14.696  15.969   4.092 -0.1956 -0.0184 -0.0453
 3592W        W21796  15.090   5.547   2.572 -0.2088  0.2572 -0.0273
 3593W        W21797   5.503   3.883  15.673  0.1974 -0.2537 -0.2514
 3594W        W21798   5.103   7.914  13.234  0.1670  0.1036 -0.1782
 3595W        W21799  15.627  10.404  13.706  0.0542  0.0247  0.0098
 3596W        W21800  12.644  10.758   3.407  0.1650 -0.0542 -0.0176
 3597W        W21801   7.952  16.782  17.349 -0.0387  0.3611  0.0113
 3598W        W21802  10.009  17.109   2.081  0.0745 -0.0514  0.1163
 3599W        W21803   8.410   7.370  15.174 -0.0095 -0.0229  0.0084
 3600W        W21804   8.339   8.001   0.493 -0.2764  0.1170 -0.0653
 3601W        W21805   6.553   0.541   1.700  0.2067  0.0638 -0.0886
 3602W        W21806  11.277  10.452   2.119  0.2737  0.1761 -0.1824
 3603W        W21807   4.300   0.251  12.249 -0.0002  0.0239 -0.0392
 3604W        W21808  12.771  10.024   5.738  0.0877 -0.1917  0.3575
 3605W        W21809  16.157   0.475  13.750 -0.1098 -0.2468  0.0118
 3606W        W21810  11.256  15.410   0.375  0.1536 -0.1049 -0.0990
 3607W        W21811  12.806  10.677  16.359 -0.1674 -0.0323  0.1369
 3608W        W21812  15.830  10.319  14.143  0.0681  0.0644 -0.0645
 3609W        W21813   4.416   3.776  15.744 -0.2029  0.0646  0.1609
 3610W        W21814   4.508   7.742   3.078 -0.1350  0.1194 -0.0855
 3611W        W21815   7.353  11.857   2.362 -0.1491  0.1330 -0.2384
 3612W        W21816   0.968  15.881  16.540  0.1669 -0.1322 -0.0402
 3613W        W21817   2.120   5.166  11.591  0.1337 -0.1386 -0.1718
 3614W        W21818   3.483   8.210  13.495  0.0532  0.0146  0.0452
 3615W        W21819  14.001  15.296   4.288  0.2223  0.1004  0.0859
 3616W        W21820   1.968   1.031   5.069 -0.0797  0.2665  0.1274
 3617W        W21821   1.088  14.440  12.634  0.0978  0.0205  0.0589
 3618W        W21822   7.169  13.537  14.291 -0.1081  0.1658  0.3974
 3619W        W21823   8.784   4.152  15.696  0.1091  0.2704 -0.1764
 3620W        W21824   6.114  14.158  13.723 -0.3274 -0.0452  0.0501
 3621W        W21825  10.790   8.101   5.402 -0.4260 -0.1280  0.0193
 3622W        W21826  10.595   4.944   2.463 -0.0017 -0.2417 -0.0088
 3623W        W21827   9.299   1.054  14.190 -0.2332  0.0643  0.1169
 3624W        W21828   7.627   9.153  12.848  0.2617  0.4762 -0.1589
 3625W        W21829  13.046   4.039   2.652  0.0441 -0.2902  0.1157
 3626W        W21830  10.049  12.141  15.018  0.1380 -0.0298  0.1845
 3627W        W21831  11.190   7.020  15.942 -0.0931  0.0860  0.0554
 3628W        W21832   0.893  16.315  14.474  0.0549  0.1472 -0.0664
 3629W        W21833   8.726   7.628  15.626 -0.0118 -0.0929  0.0110
 3630W        W21834  15.075   5.353  13.117 -0.1756  0.0423  0.1526
 3631W        W21835   9.787  12.782  12.098 -0.1636  0.1163 -0.3306
 3632W        W21836  12.235  15.555   3.531  0.3843 -0.2930 -0.0728
 3633W        W21837  10.367  14.423  13.667 -0.0516 -0.0061  0.2635
 3634W        W21838   8.136   6.510   4.773  0.3230  0.0418 -0.2604
 3635W        W21839   2.189  14.896  15.160  0.2663  0.4613 -0.0275
 3636W        W21840   8.489  12.684   3.235  0.2288 -0.1391 -0.0980
 3637W        W21841   2.496  15.601   2.488  0.1406  0.0071 -0.3615
 3638W        W21842   1.287  13.155   1.774 -0.0170 -0.1967  0.0080
 3639W        W21843  15.770  13.908  13.999 -0.0651 -0.2376 -0.2166
 3640W        W21844  12.597  12.105  14.935 -0.1310 -0.0243 -0.1385
 3641W        W21845   9.365   1.567   3.879  0.0480  0.2887 -0.0616
 3642W        W21846   5.015   2.503   2.061  0.1030  0.0051  0.1333
 3643W        W21847  17.279   2.557  15.165 -0.4440 -0.0016  0.0885
 3644W        W21848  10.794   1.532  15.334  0.1118  0.1162  0.1568
 3645W        W21849   5.796   8.740   2.288 -0.2544 -0.0114  0.1591
 3646W        W21850  10.778   3.641  13.663  0.4472 -0.0012  0.0089
 3647W        W21851   0.179  11.006   1.451  0.0789 -0.0094  0.2023
 3648W        W21852  10.700  13.534  13.697  0.4770  0.0109 -0.0880
 3649W        W21853  10.344   2.736  16.947 -0.1952 -0.0850 -0.1803
 3650W        W21854   3.006   9.943  16.647  0.3213  0.1071 -0.1197
 3651W        W21855  12.732  16.462  17.507 -0.2622 -0.3548 -0.1905
 3652W        W21856   6.283  12.634   2.697  0.2544 -0.3169 -0.1002
 3653W        W21857  10.776   3.188  11.817  0.0813 -0.1666 -0.2483
 3654W        W21858  15.250   5.100   1.574 -0.2370 -0.0672  0.0341
 3655W        W21859   6.383   5.590   2.360 -0.0398 -0.2840 -0.1038
 3656W        W21860   0.277   0.525   0.602  0.0637  0.1805  0.1301
 3657W        W21861   6.410   6.011  17.073 -0.2188 -0.1776  0.1330
 3658W        W21862  10.890   7.507   3.471 -0.2647  0.2561 -0.2942
 3659W        W21863  11.289   5.386   3.986 -0.3409 -0.0200 -0.0285
 3660W        W21864   8.274  12.225   4.552  0.2685 -0.0625 -0.0794
 3661W        W21865  14.100  16.241  12.911  0.2275 -0.0692  0.1918
 3662W        W21866   3.496  16.827   2.180  0.2064  0.2405  0.0826
 3663W        W21867   3.269   8.030  17.009  0.2757 -0.4087  0.1852
 3664W        W21868   7.233   0.716  15.132 -0.0119 -0.2127 -0.2084
 3665W        W21869   4.384   4.632   2.095  0.2682 -0.1167  0.4062
 3666W        W21870   1.184  12.712   0.503  0.0314  0.0311  0.0334
 3667W        W21871  10.757   5.403  11.907 -0.2864 -0.1452  0.3909
 3668W        W21872   7.924  12.258  13.825  0.0490  0.1540  0.1027
 3669W        W21873  16.044   5.733   1.426 -0.1193 -0.1271  0.3508
 3670W        W21874  13.153   9.396   4.784 -0.3212  0.2049  0.0686
 3671W        W21875   8.446   1.921  13.420 -0.2228  0.2757  0.0445
 3672W        W21876  10.575   1.077   2.345  0.2115  0.0956  0.0325
 3673W        W21877   6.258   3.947   0.575  0.2540 -0.0790 -0.2308
 3674W        W21878   5.402  15.456   0.168  0.2067 -0.2939  0.1430
 3675W        W21879  13.824   3.640  15.453  0.1071 -0.1735 -0.0913
 3676W        W21880   9.433  10.515   1.104 -0.0402 -0.0577 -0.0040
 3677W        W21881   2.715   1.214   2.994  0.1077 -0.2849  0.1137
 3678W        W21882   3.572  12.289  12.874 -0.0967  0.1228  0.3112
 3679W        W21883   0.655   6.961  16.865  0.1471  0.3650  0.1803
 3680W        W21884   4.064  15.125  14.975  0.2677 -0.1281 -0.0865
 3681W        W21885   4.102  13.283   3.543 -0.2850  0.2568  0.0571
 3682W        W21886  12.098  14.084   1.905 -0.3218 -0.0736 -0.3638
 3683W        W21887  16.727   9.291  12.870 -0.0371  0.0904 -0.0592
 3684W        W21888  16.395  14.535  13.471  0.0645 -0.0398  0.4710
 3685W        W21889   5.617  16.208   4.281  0.2381 -0.0289 -0.0223
 3686W        W21890   4.099   2.598  14.387  0.2341 -0.0455 -0.2530
 3687W        W21891   9.979   4.159   4.240 -0.0430 -0.0306  0.2696
 3688W        W21892  11.539  16.946  16.589 -0.2826 -0.0208 -0.0728
 3689W        W21893   0.414   5.007   3.564 -0.1557 -0.1751  0.0417
 3690W        W21894   5.107   1.405  13.437  0.1168 -0.0318  0.1163
 3691W        W21895  14.914   4.437   3.070  0.3216 -0.2346 -0.1257
 3692W        W21896  15.616  10.889  17.020 -0.1492  0.0788 -0.0626
 3693W        W21897  14.634  11.460  14.994 -0.0388  0.0153  0.1188
 3694W        W21898  15.506  10.681   2.452 -0.0586 -0.1827  0.0139
 3695W        W21899   8.259  13.049   2.131  0.1193 -0.0048  0.0249
 3696W        W21900   5.769  16.867   4.463 -0.1828  0.1297  0.1569
 3697W        W21901   2.913   1.565  15.524  0.0528 -0.0755 -0.2628
 3698W        W21902  12.569   2.633  16.410 -0.0938  0.2820  0.2957
 3699W        W21903  16.463  16.638  16.154  0.1214  0.0730 -0.3781
 3700W        W21904   1.140   8.504   3.153 -0.1216  0.2436 -0.0110
 3701W        W21905  14.169   8.677   2.934 -0.0622 -0.1653  0.4620
 3702W        W21906  11.656  11.791   1.463  0.1324  0.0332 -0.2461
 3703W        W21907  17.189  16.082   2.931 -0.0601  0.1375  0.0972
 3704W        W21908   1.675  16.070  14.587  0.1454  0.2627 -0.0714
 3705W        W21909  12.444   7.034  12.947 -0.0945 -0.0381 -0.0517
 3706W        W21910  10.315  14.496   4.431 -0.1755 -0.0351 -0.4447
 3707W        W21911  11.656   0.470   0.223 -0.3315  0.0065  0.0584
 3708W        W21912   0.396   4.384  15.364 -0.0519 -0.1558  0.1549
 3709W        W21913  11.248  15.925   0.346  0.2666 -0.2688  0.2439
 3710W        W21914   9.016  13.526   0.874  0.2053  0.0335  0.0267
 3711W        W21915  10.929   5.976   0.587  0.0139  0.1983  0.1910
 3712W        W21916   9.781   6.823   4.200 -0.3856 -0.0250  0.3093
 3713W        W21917  11.096  13.810   0.226 -0.1735  0.0354 -0.4424
 3714W        W21918  13.981   2.562   4.014 -0.0279 -0.1042  0.0169
 3715W        W21919   5.010   5.446   4.187 -0.0549 -0.3785  0.0057
 3716W        W21920  16.496   4.559   4.337  0.2197  0.1453 -0.0784
 3717W        W21921   9.985   3.844   4.777  0.0987  0.2005 -0.2871
 3718W        W21922   8.437  15.337   5.021  0.0570  0.1343 -0.3308
 3719W        W21923   0.677   7.940  12.718 -0.0143 -0.1988  0.1273
 3720W        W21924  10.442   9.518   1.480  0.2522 -0.1045  0.0743
 3721W        W21925   2.410  12.707  13.639  0.2115 -0.0222  0.2806
 3722W        W21926   7.124  10.614  14.261  0.1964  0.0124  0.1635
 3723W        W21927   7.965  14.762   0.544 -0.1141 -0.1417 -0.1356
 3724W        W21928   0.612  11.182   0.110  0.1304 -0.2945  0.1184
 3725W        W21929   2.068   7.664  13.728  0.2213 -0.1213 -0.1145
 3726W        W21930  12.112   4.085   0.537 -0.1134  0.3583 -0.0198
 3727W        W21931   3.739  15.537   2.876 -0.0454  0.2894  0.1335
 3728W        W21932  12.155   7.880   0.426  0.0672  0.2718 -0.0954
 3729W        W21933  16.609  15.015  16.188  0.1404  0.0840 -0.1848
 3730W        W21934   7.629   1.794  13.426 -0.2046  0.0270 -0.1478
 3731W        W21935  12.818  14.516   4.644  0.0294 -0.2008  0.2339
 3732W        W21936   2.786   2.485  15.105  0.1711  0.2143  0.1357
 3733W        W21937   7.335   5.741   5.028  0.2308 -0.1004 -0.0274
 3734W        W21938   2.727  11.449   1.103 -0.0474  0.3146 -0.0299
 3735W        W21939  13.390  13.107   0.877 -0.2637 -0.2721 -0.1614
 3736W        W21940   8.118   4.406  16.049 -0.1364 -0.0989 -0.1023
 3737W        W21941   8.432   9.148   5.115  0.0862 -0.4062 -0.2254
 3738W        W21942   2.683   5.004  14.852 -0.1301 -0.0423 -0.1601
 3739W        W21943  15.654   1.532   2.264  0.1227  0.0263 -0.0619
 3740W        W21944   8.869   6.788  15.618  0.1668  0.1649  0.2224
 3741W        W21945   2.397   7.105   0.110  0.3376 -0.1027  0.1611
 3742W        W21946   3.514   3.784  15.679 -0.0704 -0.2023 -0.0006
 3743W        W21947   8.252  16.630   0.620 -0.1566 -0.2400 -0.0145
 3744W        W21948   1.410   3.600  15.071  0.0276  0.0612  0.0094
 3745W        W21949   5.217   7.036   5.055  0.1830  0.1859 -0.0559
 3746W        W21950  16.137   9.346  17.310 -0.1257 -0.0855  0.1268
 3747W        W21951   2.028  10.833   2.456 -0.1087  0.1039 -0.1334
 3748W        W21952   9.847  14.675  13.617 -0.0259 -0.1656  0.1258
 3749W        W21953   4.018   8.396   0.829 -0.0814  0.0069 -0.0059
 3750W        W21954   5.777   1.608   3.558  0.3545 -0.1415 -0.3106
 3751W        W21955  16.680   2.195  14.380  0.0066  0.2161 -0.0929
 3752W        W21956   4.027  10.595   0.037 -0.0262  0.2067  0.1299
 3753W        W21957   5.259   6.870  16.550  0.0106 -0.1206 -0.1338
 3754W        W21958   8.252  11.166   2.307  0.3022 -0.2103  0.0698
 3755W        W21959  16.806  17.293   0.677  0.2607  0.2736 -0.0598
 3756W        W21960   0.723  15.856   4.003  0.0256 -0.0054 -0.2960
 3757W        W21961  16.096  16.506  14.939 -0.0401 -0.0073 -0.0801
 3758W        W21962   0.731   5.263   0.502  0.0583  0.0607  0.0049
 3759W        W21963  10.852   3.793   4.436  0.1064  0.1355  0.1196
 3760W        W21964   1.191  10.387   5.025  0.1117 -0.1278  0.1622
 3761W        W21965   3.193   0.691   5.282 -0.2936 -0.0546  0.1245
 3762W        W21966  15.835  16.396   2.378  0.1760  0.1666  0.0346
 3763W        W21967  17.108   1.319   0.365  0.1934 -0.1554  0.0346
 3764W        W21968  16.323  11.338   3.381 -0.1686 -0.0546 -0.2967
 3765W        W21969   4.892   6.865  17.362  0.0730 -0.1496  0.2378
 3766W        W21970  11.540  12.927   4.685 -0.1207 -0.2616 -0.4916
 3767W        W21971   1.299   8.071  13.682  0.2239 -0.2005 -0.1395
 3768W        W21972   1.136  10.195   1.135  0.0005  0.1459  0.1057
 3769W        W21973  13.887   7.926  12.187  0.1453  0.2590  0.0234
 3770W        W21974  14.895   4.151   0.472  0.2040 -0.1267  0.5237
 3771W        W21975  11.259   0.738   0.965  0.2402 -0.0263  0.2009
 3772W        W21976   3.856   0.597  17.148  0.2574 -0.0211  0.2866
 3773W        W21977  10.381   6.891  12.889 -0.1635  0.0110 -0.0504
 3774W        W21978   0.575   8.949   4.597 -0.0317  0.3077 -0.1891
 3775W        W21979  17.236  15.658  12.303 -0.0067 -0.1141  0.2282
 3776W        W21980  15.172  13.880   2.001  0.0437  0.1570  0.2646
 3777W        W21981   6.146  10.804   0.678 -0.3380 -0.2328  0.1076
 3778W        W21982   8.482  13.997   3.352  0.0029 -0.0818 -0.0392
 3779W        W21983   0.930   7.818  11.817  0.2564  0.1499 -0.1806
 3780W        W21984   5.848  11.302   1.601  0.1734 -0.0605  0.3501
 3781W        W21985   4.395  10.436  13.802 -0.0303  0.2033 -0.0279
 3782W        W21986   4.906   7.516  12.683 -0.3877  0.0928  0.2958
 3783W        W21987   1.867   3.723  16.329 -0.0669 -0.1797 -0.0393
 3784W        W21988   5.305   2.894   0.995  0.3079  0.4752 -0.3218
 3785W        W21989   3.235   2.518  16.483 -0.1724 -0.1718 -0.0083
 3786W        W21990   4.784  11.494   3.932  0.1767 -0.1846 -0.1351
 3787W        W21991  13.144   9.958   4.298  0.0833  0.0265  0.1594
 3788W        W21992  14.799  12.926  12.826 -0.1492 -0.2170 -0.3422
 3789W        W21993   0.021   6.288  16.465  0.1822  0.1988  0.3196
 3790W        W21994   7.206  16.295  12.253 -0.0524  0.1084  0.1826
 3791W        W21995  11.691   9.058  14.201 -0.0932 -0.3301 -0.0207
 3792W        W21996   4.872  16.165  14.025  0.0427 -0.1154 -0.1565
 3793W        W21997   0.395   0.746   1.412  0.2343  0.2409 -0.1788
 3794W        W21998   6.890  13.208   1.994 -0.0814  0.1291  0.1991
 3795W        W21999  11.873   9.247   0.633  0.2984 -0.2182 -0.2088
 3796W        W22000  12.015  13.987   3.679 -0.0254  0.0459 -0.0909
 3797W        W22001  15.512   3.763  12.223  0.1237 -0.1189 -0.0220
 3798W        W22002   0.713  12.303  13.348 -0.1783 -0.0051  0.3061
 3799W        W22003   4.979   8.600  12.589 -0.0762  0.3843  0.0910
 3800W        W22004   2.323  15.253  15.646  0.0844 -0.0248  0.3752
 3801W        W22005   2.225  11.273   2.021  0.0472 -0.0824 -0.0966
 3802W        W22006  11.595  10.383  16.359  0.2340  0.4256  0.0581
 3803W        W22007  10.363   8.026  14.546 -0.0036 -0.1384  0.0030
 3804W        W22008  16.525  11.418   1.267  0.1083 -0.1381  0.1751
 3805W        W22009  15.090   1.479  15.932 -0.0996  0.1230  0.1635
 3806W        W22010   5.584   6.398   5.899  0.1029 -0.0640 -0.0462
 3807W        W22011  10.183   4.342   3.729 -0.3926 -0.2706 -0.4274
 3808W        W22012   9.635   2.362   1.115  0.2733 -0.1738 -0.2940
 3809W        W22013   9.515  16.977  14.003  0.0292  0.1293  0.0436
 3810W        W22014   0.717   4.577  13.139 -0.1862  0.1906 -0.4018
 3811W        W22015  14.984  12.868   4.178  0.2988 -0.0735  0.0973
 3812W        W22016   7.350  12.148  15.312  0.2415  0.0650 -0.1989
 3813W        W22017  12.428   3.925  13.333  0.2135  0.0395  0.1790
 3814W        W22018   8.647   0.492  13.060 -0.1348 -0.0789 -0.2026
 3815W        W22019   8.459   6.488  14.911 -0.0007 -0.1446 -0.3045
 3816W        W22020   8.643   7.491   0.970  0.2458  0.1860  0.0993
 3817W        W22021   1.104   9.899   0.554  0.0478  0.2837  0.2291
 3818W        W22022   9.165   2.924   1.750 -0.3123  0.0474  0.3578
 3819W        W22023  11.167   6.704   2.295  0.4047 -0.0563  0.0414
 3820W        W22024   4.263  13.418  13.064  0.0326 -0.0738 -0.0854
 3821W        W22025   3.555   0.699   4.019  0.1149  0.2836  0.0982
 3822W        W22026   8.768   7.568  12.562 -0.1188 -0.1741 -0.1514
 3823W        W22027   7.512   7.098  14.616 -0.1350 -0.0578 -0.3010
 3824W        W22028  14.089   3.982  17.153 -0.0271 -0.1622 -0.2227
 3825W        W22029   9.949   9.423   1.291  0.1787 -0.0666  0.1385
 3826W        W22030   2.890  14.157   4.950  0.0581 -0.1536  0.1166
 3827W        W22031  10.802  12.434  16.949 -0.2000  0.2805  0.0463
 3828W        W22032   3.341   7.351  14.071  0.3286 -0.1221 -0.2365
 3829W        W22033   1.997  16.800  14.913 -0.2159 -0.1358  0.0244
 3830W        W22034   1.815   1.946  12.418 -0.0697  0.2577  0.1650
 3831W        W22035  16.550   6.320   0.851 -0.2695 -0.0180 -0.1091
 3832W        W22036  16.958   0.503  17.385  0.2539  0.0150  0.2495
 3833W        W22037  11.068  16.884   3.555 -0.1221 -0.2517 -0.0598
 3834W        W22038   1.217   4.386   3.235 -0.0261  0.3324  0.1318
 3835W        W22039   3.345  12.529   5.863 -0.1042  0.1046 -0.0514
 3836W        W22040  12.426  14.462   1.685 -0.1434 -0.0068  0.0402
 3837W        W22041   7.550   1.764  13.893 -0.0119  0.2357  0.4169
 3838W        W22042  10.845   7.518  12.235  0.0144  0.0159  0.1421
 3839W        W22043  15.259   5.854  12.379 -0.0771 -0.1089  0.2486
 3840W        W22044   8.253  16.556  16.013  0.5676 -0.0775 -0.0323
 3841W        W22045   5.870  10.643  12.275  0.0542 -0.3510  0.2356
 3842W        W22046   1.850   7.128   4.203  0.2680 -0.1299 -0.1640
 3843W        W22047  12.052   7.433   1.554 -0.1310  0.0796  0.1193
 3844W        W22048  15.846   5.481  14.288 -0.0158 -0.2874 -0.1261
 3845W        W22049  12.899   8.527   5.344  0.0674 -0.1179  0.3564
 3846W        W22050  16.192   5.077  14.274  0.1527 -0.2092  0.0250
 3847W        W22051   5.056  13.539   0.343  0.1764  0.1190 -0.3928
 3848W        W22052   5.878  12.928  13.744 -0.1486  0.1995 -0.0417
 3849W        W22053   2.830   1.662   3.261  0.1390  0.1155 -0.2481
 3850W        W22054  12.463   6.369  13.322 -0.2612  0.1750 -0.0263
 3851W        W22055   9.565   5.861   3.802 -0.3691 -0.3790 -0.0519
 3852W        W22056  11.492  15.357   1.267  0.2651  0.1474  0.1220
 3853W        W22057   8.178  10.300   1.949 -0.0327 -0.0429 -0.0010
 3854W        W22058  13.161   7.130  16.642  0.1957  0.1661  0.1683
 3855W        W22059   7.105   9.228   3.943  0.0762  0.0492 -0.4804
 3856W        W22060  10.926   0.286  17.176  0.1578  0.0146 -0.0727
 3857W        W22061   2.576   5.008  12.516 -0.1792  0.2016 -0.1378
 3858W        W22062  10.490  12.505   0.131  0.0004  0.3975 -0.0106
 3859W        W22063   8.199   5.464   2.411  0.3011 -0.1024 -0.1629
 3860W        W22064   4.555  11.374   2.207  0.0614 -0.1658 -0.0327
 3861W        W22065  11.445   4.187   2.372 -0.3193  0.1972 -0.1481
 3862W        W22066   7.082   7.109  12.167  0.0290 -0.0880  0.2456
 3863W        W22067  13.047   5.800  11.785  0.3020  0.1976 -0.0585
 3864W        W22068   6.852   3.667  17.407 -0.1873 -0.0111 -0.0382
 3865W        W22069   4.816   7.732   5.593 -0.0493  0.2408 -0.2277
 3866W        W22070   1.617   0.170   0.795  0.1021  0.0465 -0.0785
 3867W        W22071  16.552   1.054  13.635  0.1484  0.3096 -0.0711
 3868W        W22072  14.902  17.099   2.331 -0.1878  0.4848  0.2519
 3869W        W22073   4.756  10.118   0.731  0.0052 -0.0346 -0.1723
 3870W        W22074   4.627  16.443   1.303  0.0417 -0.2612 -0.2555
 3871W        W22075   5.608  15.227   5.144 -0.1568 -0.1178 -0.0559
 3872W        W22076  16.931   1.023  17.007 -0.1577  0.1254 -0.0338
 3873W        W22077   6.661   4.491   0.977 -0.3762 -0.0765  0.0343
 3874W        W22078  10.982  15.841   1.577  0.1247  0.1280  0.2298
 3875W        W22079  16.336   8.869  17.152  0.0401 -0.0945 -0.1172
 3876W        W22080   7.544  15.917  16.156 -0.1157 -0.2946  0.2313
 3877W        W22081  15.346   6.859  12.286 -0.0014  0.2808 -0.0817
 3878W        W22082  10.495  14.912  12.458 -0.0723  0.2339 -0.0865
 3879W        W22083   2.722  12.998  17.359 -0.0641  0.1663  0.0666
 3880W        W22084   0.270  16.128  17.227 -0.2343 -0.1103  0.1957
 3881W        W22085  10.635  14.567  14.079  0.2109 -0.3462  0.2665
 3882W        W22086  15.725  13.160  14.483 -0.2895 -0.0844 -0.2699
 3883W        W22087  17.122  13.937   0.943  0.1017  0.0456  0.0063
 3884W        W22088   8.783  16.164  13.908 -0.3561  0.0755  0.0286
 3885W        W22089  13.343  14.152   5.271  0.0540  0.1647 -0.0386
 3886W        W22090   4.249   0.432   0.443 -0.1703  0.2021  0.1336
 3887W        W22091   9.567   0.454   4.428 -0.0471 -0.3239 -0.1288
 3888W        W22092   2.849  14.486  14.773  0.2137  0.0378  0.0219
 3889W        W22093  16.860  11.407  13.114  0.0572  0.2255 -0.2321
 3890W        W22094   3.218  12.561  15.060  0.2565 -0.0208 -0.1220
 3891W        W22095   0.717  10.110   4.948 -0.2632  0.0194 -0.1109
 3892W        W22096  12.558  11.367   5.543  0.2422 -0.1205  0.0260
 3893W        W22097   5.378  10.596  14.039 -0.0212 -0.1414  0.1169
 3894W        W22098  13.609   9.076   4.528  0.0161  0.0459 -0.0034
 3895W        W22099  16.984   6.352   1.846  0.1956  0.0425 -0.1503
 3896W        W22100  12.650   2.744   3.532  0.0233 -0.2910 -0.1329
 3897W        W22101   2.159   2.126   2.058  0.0295  0.1854 -0.0967
 3898W        W22102   9.784   3.465  17.083  0.1016 -0.0055  0.0089
 3899W        W22103   8.498   1.925  16.160 -0.0596  0.0848 -0.2382
 3900W        W22104  13.134  13.263  17.341 -0.0693  0.1013 -0.0291
 3901W        W22105   6.035  17.294   3.014 -0.2425  0.0174 -0.0642
 3902W        W22106   7.569   9.803   0.979 -0.1286 -0.0859 -0.0976
 3903W        W22107   3.557   9.303  14.651  0.2434  0.2845 -0.1282
 3904W        W22108   1.255   1.288  12.078 -0.0168 -0.0275  0.1141
 3905W        W22109  12.424   4.708   3.147  0.3295 -0.1401  0.3083
 3906W        W22110   8.766   6.966   2.597 -0.1116 -0.1692  0.4303
 3907W        W22111  11.832   9.568   4.272 -0.0051  0.0568 -0.0943
 3908W        W22112  11.241   2.495  14.307 -0.4044 -0.0877  0.1244
 3909W        W22113   3.113  13.494   3.139  0.3227 -0.1008 -0.2646
 3910W        W22114  12.209  12.236  12.445 -0.0396 -0.2091 -0.0733
 3911W        W22115   3.234  14.730  15.653 -0.0319 -0.2099 -0.0923
 3912W        W22116  14.779  14.160  14.711  0.0797  0.0328  0.0490
 3913W        W22117   3.639  13.240   0.588 -0.0059 -0.2294  0.1118
 3914W        W22118   0.741   1.053   3.494 -0.1221  0.0430 -0.2426
 3915W        W22119   5.531   6.846   1.398  0.2480  0.0745 -0.0228
 3916W        W22120   6.400   9.565  12.918  0.1239 -0.1113  0.1648
 3917W        W22121  11.856  13.750  15.492 -0.1289 -0.0517  0.3584
 3918W        W22122  15.650  17.281   0.604 -0.1766 -0.1374  0.0377
 3919W        W22123   4.461   3.452  12.644 -0.0182  0.0129 -0.1301
 3920W        W22124  10.305   7.840   3.046 -0.0622 -0.0292 -0.0434
 3921W        W22125  13.234  11.436  12.622 -0.2599  0.0134 -0.1056
 3922W        W22126  12.092  12.511  16.137  0.3811  0.2895  0.0747
 3923W        W22127  13.181   5.080  13.881 -0.1737  0.2271 -0.3687
 3924W        W22128   7.740  17.101   2.557  0.2967  0.0552 -0.2146
 3925W        W22129   1.098   6.538   4.127 -0.2026  0.0444 -0.0301
 3926W        W22130   4.230  10.888   5.061 -0.1182 -0.2458  0.4296
 3927W        W22131   9.266  12.465  16.565  0.0533 -0.1336 -0.1168
 3928W        W22132   1.338  14.644  14.288 -0.0464  0.3784  0.2337
 3929W        W22133   9.566  16.435   4.066 -0.0647  0.0620 -0.2396
 3930W        W22134  16.505   2.393   2.439 -0.1065  0.2294  0.1725
 3931W        W22135   0.552  16.072   4.421 -0.0926  0.0688  0.0770
 3932W        W22136  13.039   5.374  15.320  0.0748  0.0511  0.0372
 3933W        W22137  17.100   6.250  13.738  0.2185  0.0424  0.2511
 3934W        W22138   4.806  14.452   1.441  0.1267 -0.1260 -0.0856
 3935W        W22139  12.793  12.780   4.361 -0.2455  0.0981 -0.0365
 3936W        W22140  15.329  13.907  13.803  0.4067 -0.1957 -0.0988
 3937W        W22141   0.753   7.020   2.635 -0.2689  0.1552 -0.1300
 3938W        W22142   7.524   2.172  15.010 -0.4791 -0.0905  0.0507
 3939W        W22143  14.465   8.200  17.325 -0.0876 -0.1073 -0.4382
 3940W        W22144  12.884   8.128  13.979 -0.0054 -0.1113  0.1110
 3941W        W22145   1.955  13.767   3.553  0.0188  0.0207  0.1026
 3942W        W22146  10.724   1.364   3.680 -0.0597 -0.0105 -0.1293
 3943W        W22147   3.718   9.126   1.903 -0.2968  0.0773 -0.0090
 3944W        W22148   9.405   4.666  15.691 -0.1385 -0.0968  0.0298
 3945W        W22149   2.440  11.292  12.575  0.1027  0.2091  0.0243
 3946W        W22150   5.925  10.039   1.543 -0.1109 -0.4102  0.1454
 3947W        W22151   3.483  17.214  12.685  0.2733  0.2399  0.1723
 3948W        W22152  14.363   4.632  14.654  0.0760  0.2750  0.2430
 3949W        W22153  15.619   7.761   2.982  0.0096  0.0131  0.4513
 3950W        W22154  11.984  15.407   5.852 -0.3125  0.1727  0.0053
 3951W        W22155  10.862   2.688  14.650  0.2960  0.0228  0.0897
 3952W        W22156  15.223  16.564  13.431 -0.2116  0.0765 -0.0021
 3953W        W22157  11.141   5.703  14.458  0.0966 -0.0111 -0.0318
 3954W        W22158   8.860   8.003  12.794  0.2427  0.1007 -0.2007
 3955W        W22159  10.843  10.156   2.004  0.0539  0.1503 -0.0129
 3956W        W22160   7.362  10.413   1.137 -0.1535 -0.1141 -0.4054
 3957W        W22161   8.136   5.338  12.359  0.0895  0.0874  0.0750
 3958W        W22162  14.892   9.958  11.417  0.1770  0.0538  0.2323
 3959W        W22163  11.253   6.384   0.635  0.0167 -0.0539 -0.1270
 3960W        W22164   2.994   1.779  13.000 -0.1835 -0.3612  0.2803
 3961W        W22165  15.024  16.165  15.756  0.0165 -0.0689  0.2809
 3962W        W22166   2.374   6.793  17.209  0.0866 -0.1140 -0.1888
 3963W        W22167   5.583   0.135   5.197  0.0032  0.1356 -0.0065
 3964W        W22168  16.585  16.710  12.779  0.1220 -0.2144 -0.1183
 3965W        W22169  15.593   7.772  15.200 -0.0108  0.0454 -0.0841
 3966W        W22170  16.575  15.863  13.984  0.2040  0.2958  0.0988
 3967W        W22171  16.220  16.134   4.763 -0.0908  0.1728 -0.0369
 3968W        W22172  16.993   9.268   1.621  0.1164  0.1192  0.0663
 3969W        W22173   1.513   9.855   3.383 -0.2108 -0.1792  0.1819
 3970W        W22174   7.328   6.937  16.653 -0.3017 -0.2364 -0.0845
 3971W        W22175   4.941   8.358  12.068  0.1733  0.0837 -0.0119
 3972W        W22176   7.363   2.494   1.758 -0.0030 -0.0527 -0.0323
 3973W        W22177   4.715  10.113   4.199 -0.2045  0.0656 -0.0976
 3974W        W22178   4.270   8.123   2.783 -0.2255  0.0594  0.2391
 3975W        W22179  10.857   0.990  12.300 -0.0818  0.1755  0.1763
 3976W        W22180  10.738  14.624   5.943 -0.0523  0.1839 -0.0950
 3977W        W22181   9.802  13.358   1.330  0.2503  0.1457  0.1456
 3978W        W22182  13.440   1.282   1.419  0.3956 -0.1753  0.1980
 3979W        W22183   6.921   3.310  12.841 -0.0975 -0.0315  0.0323
 3980W        W22184  10.078  15.733  17.507  0.1849 -0.0215  0.3054
 3981W        W22185   2.130   5.657  13.159 -0.1307  0.1352  0.1855
 3982W        W22186   1.731   2.365   0.460  0.0909 -0.1125  0.1354
 3983W        W22187   0.239   5.902  16.201  0.0237  0.0380 -0.1002
 3984W        W22188  13.367   8.074  17.269 -0.4119  0.0345 -0.3181
 3985W        W22189   6.043   5.640   5.226 -0.0431 -0.1001 -0.1623
 3986W        W22190   5.262  15.016  16.547 -0.0739 -0.1616  0.4020
 3987W        W22191  15.104   3.294  17.074 -0.0637  0.2135  0.1777
 3988W        W22192   9.636  14.076  17.377 -0.0383 -0.0977  0.1502
 3989W        W22193  12.632   9.851   2.636 -0.2323  0.1414 -0.2545
 3990W        W22194   3.709  12.065  17.190  0.1119 -0.0706 -0.0084
 3991W        W22195  15.948   9.499   5.527 -0.1455 -0.0015 -0.1990
 3992W        W22196  16.807  14.871   4.281  0.1134  0.2564  0.2356
 3993W        W22197   1.387  12.455   4.928  0.3244 -0.0593 -0.0564
 3994W        W22198   4.643   5.571  11.908 -0.0299  0.2249 -0.0993
 3995W        W22199   5.689  12.761  16.268  0.0178 -0.0283  0.1210
 3996W        W22200   8.358  14.971  15.459 -0.1467  0.1813  0.0231
 3997W        W22201   2.841   6.256  11.464 -0.1257 -0.0333 -0.1451
 3998W        W22202   4.313   1.698  16.820  0.2333  0.2164  0.0111
 3999W        W22203  13.560  10.033  15.340 -0.0706 -0.0736  0.1785
 4000W        W22204   2.842  11.279   3.725 -0.3129 -0.1081  0.1791
 4001W        W22205  13.896  12.484   1.904  0.1231 -0.1260 -0.0086
 4002W        W22206  14.814  10.821  15.026  0.1933 -0.2327  0.0260
 4003W        W22207  10.733  15.459  15.693  0.1436  0.0029  0.0248
 4004W        W22208  13.961   4.125  12.952  0.1121  0.0777 -0.0881
 4005W        W22209   9.454   4.971   0.081 -0.0064 -0.0697 -0.1144
 4006W        W22210   8.351   9.897  12.562 -0.1580 -0.0141 -0.1155
 4007W        W22211  11.473  13.294  16.593 -0.2221 -0.1359  0.0658
 4008W        W22212  10.754   7.671  13.609  0.1009 -0.0495 -0.1507
 4009W        W22213   6.343   9.980   0.457 -0.1335 -0.0820  0.3732
 4010W        W22214  10.826   2.385  15.621 -0.4219 -0.0575  0.0837
 4011W        W22215   3.034   6.604  15.065 -0.2197 -0.0113 -0.1246
 4012W        W22216  17.221   3.171  12.945  0.1433 -0.2759  0.0355
 4013W        W22217  15.924  12.699  15.935 -0.1263 -0.2101 -0.3019
 4014W        W22218  16.938   8.962   0.437 -0.1839 -0.2393  0.2974
 4015W        W22219   4.632   0.347   4.004 -0.3012  0.1250  0.1491
 4016W        W22220  10.901   8.637   0.711 -0.2643 -0.0011 -0.2952
 4017W        W22221   8.679   7.433   2.518  0.0544  0.1124 -0.1082
 4018W        W22222   3.088   4.952   3.324 -0.0535  0.0039 -0.3185
 4019W        W22223   5.143   6.127  16.026 -0.0189  0.2586 -0.1379
 4020W        W22224   5.957   7.694   3.088 -0.0863  0.0303 -0.0364
 4021W        W22225  16.448  13.856  15.843  0.0530 -0.0966  0.0590
 4022W        W22226   8.040   6.066   4.020 -0.0808 -0.0681  0.0660
 4023W        W22227   3.237  10.313  17.473 -0.0082  0.0124 -0.0010
 4024W        W22228   0.615   0.507   5.354  0.2128  0.4644  0.2902
 4025W        W22229   7.744   0.885   3.830 -0.0656 -0.0566 -0.0893
 4026W        W22230   8.028   9.717  16.726  0.0175 -0.3063 -0.1028
 4027W        W22231   0.607   0.899  13.981 -0.1544 -0.2763 -0.1452
 4028W        W22232  11.181   8.984   2.628 -0.0117  0.0907 -0.0438
 4029W        W22233   3.364  13.627   0.490 -0.0609 -0.0585  0.1734
 4030W        W22234  10.590  17.132   4.314  0.0606  0.1753  0.1125
 4031W        W22235  11.472   9.450   1.547 -0.0287  0.1984 -0.0003
 4032W        W22236   9.698  15.530   3.363  0.3091  0.2888 -0.5766
 4033W        W22237   1.393  13.737  13.101  0.4347 -0.1238 -0.0602
 4034W        W22238  15.076  13.718   1.403  0.1008 -0.0259 -0.2267
 4035W        W22239  14.106  10.663   2.359  0.0853  0.0862 -0.0728
 4036W        W22240   9.951   9.721  12.960 -0.1890 -0.0596  0.1149
 4037W        W22241  15.539   8.630   2.381 -0.3720 -0.0824  0.0650
 4038W        W22242   3.462   9.884   2.384 -0.1074  0.3987  0.0211
 4039W        W22243  12.505  12.650  14.067 -0.2122 -0.2119 -0.1486
 4040W        W22244  16.260  14.961   4.294  0.0390 -0.0484 -0.0798
 4041W        W22245  13.151   3.146   0.236 -0.0853 -0.1985 -0.0791
 4042W        W22246  11.367  17.140   4.898 -0.3623 -0.2633 -0.2993
 4043W        W22247   8.922   4.234   3.753  0.0986 -0.0959 -0.0440
 4044W        W22248   0.801   2.391  13.036  0.2076 -0.0660  0.2542
 4045W        W22249   0.204   6.456   3.492  0.1033 -0.0273 -0.3055
 4046W        W22250   2.017   2.139  14.535  0.1841  0.1384  0.4025
 4047W        W22251   1.385   2.507   3.848  0.0192  0.4681  0.0049
 4048W        W22252   5.149   4.669   4.902 -0.1255  0.2318 -0.1123
 4049W        W22253   9.769  12.550  14.739  0.1438  0.1980  0.0935
 4050W        W22254   4.231   9.404  13.928 -0.2259 -0.0107  0.3624
 4051W        W22255  12.622  10.339  15.510  0.1057  0.0628  0.1626
 4052W        W22256   3.021  11.791   3.443 -0.1262  0.0087  0.0779
 4053W        W22257   7.875   1.782   2.536  0.0825 -0.5025  0.4519
 4054W        W22258  13.513   4.042  16.177 -0.1794  0.0710  0.0291
 4055W        W22259  13.883  15.306  16.885  0.0041 -0.0920 -0.2798
 4056W        W22260  16.212  14.634   3.492 -0.2422  0.2323  0.1152
 4057W        W22261  14.962   8.003  11.272 -0.0102 -0.1978 -0.4006
 4058W        W22262  12.152   1.299  12.865 -0.0002  0.0006  0.2428
 4059W        W22263   2.142  14.754   3.449 -0.0304 -0.0302 -0.2015
 4060W        W22264   9.420   1.394   2.900 -0.0232 -0.1662  0.2718
 4061W        W22265   2.938   1.414  16.392  0.2703  0.2714  0.1183
 4062W        W22266   1.117   8.381   2.036 -0.1493  0.0137  0.1882
 4063W        W22267   0.534   2.585   0.249 -0.1401 -0.1160  0.2555
 4064W        W22268  17.085   7.143   4.623 -0.0736 -0.1344  0.1457
 4065W        W22269   9.927   4.984   4.460 -0.1544 -0.0346  0.3117
 4066W        W22270   1.112   4.010  15.128 -0.0830 -0.0192  0.0230
 4067W        W22271   1.435   5.886   3.293 -0.0440  0.2896 -0.1171
 4068W        W22272  13.325   2.810  15.341  0.2828  0.0201 -0.3132
 4069W        W22273   4.903   2.875   3.782  0.1024 -0.1927 -0.1089
 4070W        W22274  16.516  15.237   1.621  0.2558  0.1293 -0.6110
 4071W        W22275  11.673   3.226  15.872  0.3082  0.2298  0.2995
 4072W        W22276   4.553   4.814   1.481 -0.1183  0.3964  0.1359
 4073W        W22277   6.363  10.909  12.649  0.0728 -0.0993  0.0988
 4074W        W22278  15.664   1.683  14.487  0.0165 -0.2391 -0.3332
 4075W        W22279  15.201  10.090  16.555  0.2491  0.0446  0.0836
 4076W        W22280   2.434  14.954  13.492 -0.0437 -0.0569  0.4584
 4077W        W22281  12.756   5.720  13.767  0.1348 -0.2102 -0.0203
 4078W        W22282   8.821  10.039   0.773 -0.2768  0.1416  0.0630
 4079W        W22283  14.457  12.176  13.136  0.0504  0.0463 -0.0005
 4080W        W22284   2.104   3.241  13.438  0.0290 -0.2991 -0.1256
 4081W        W22285   6.827  10.925  13.936  0.3254  0.1328 -0.3454
 4082W        W22286   3.645  12.464   1.113  0.1497  0.4155  0.0746
 4083W        W22287   2.050   6.158  14.633 -0.0092 -0.2388  0.2269
 4084W        W22288   9.420   8.067  14.797 -0.1403  0.1067 -0.2074
 4085W        W22289   3.257   2.578  14.916 -0.1538  0.3062  0.0572
 4086W        W22290   6.788  12.556   1.438  0.0716  0.1650 -0.1281
 4087W        W22291   1.067   9.120  14.474 -0.3628 -0.2982  0.0131
 4088W        W22292  12.993  15.093  12.318  0.0084  0.1005 -0.0626
 4089W        W22293   0.199  10.420  16.233  0.0225 -0.1003 -0.1738
 4090W        W22294   3.754  15.542   4.871  0.0035 -0.2710 -0.0829
 4091W        W22295  12.055   2.350   0.019  0.1102  0.0211  0.4013
 4092W        W22296   0.321   3.805   1.742  0.0803  0.2390 -0.3099
 4093W        W22297  14.778  10.057  13.445 -0.1912  0.0599 -0.1433
 4094W        W22298  11.168   1.088  17.183 -0.0863  0.2171 -0.0251
 4095W        W22299  11.871  12.076  13.943 -0.5947 -0.0904 -0.0927
 4096W        W22300   0.338  11.745   1.459 -0.0297  0.1766 -0.1621
 4097W        W22301  16.902  14.207  15.832  0.0868  0.0043 -0.0773
 4098W        W22302   2.773   6.464  14.144  0.2697 -0.1189  0.2620
 4099W        W22303   2.335   3.864   2.839  0.0691 -0.2465 -0.0674
 4100W        W22304  11.192  16.113  12.962  0.0984  0.1273  0.0346
 4101W        W22305   6.454  11.525   1.208  0.1446 -0.1888 -0.1714
 4102W        W22306   1.468  14.083   5.394 -0.0043 -0.3341 -0.1040
 4103W        W22307  16.362   4.107   5.089 -0.2154  0.1838  0.2908
 4104W        W22308  10.331  14.430   5.367 -0.0553  0.0246  0.0298
 4105W        W22309   3.076  16.043  16.602  0.0796 -0.2077  0.3713
 4106W        W22310   5.850   8.677   1.223  0.2258  0.1703 -0.3554
 4107W        W22311   9.511   6.827  12.347  0.1601  0.2304  0.1080
 4108W        W22312   5.069  12.347  17.119 -0.3510 -0.3227  0.3375
 4109W        W22313   5.331   2.061   5.171 -0.1966 -0.0894 -0.0000
 4110W        W22314   0.184  15.145   0.080 -0.0810  0.0184  0.0634
 4111W        W22315   4.662   0.953   3.886 -0.0953  0.2633 -0.2587
 4112W        W22316   8.843  10.615  14.207 -0.0714  0.5020 -0.1046
 4113W        W22317   4.457   9.943  12.406  0.0604 -0.3060  0.0855
 4114W        W22318  11.688   4.690   4.877 -0.0342  0.2069 -0.1483
 4115W        W22319   0.800  11.004  13.991  0.0757  0.0761  0.0500
 4116W        W22320  13.692   3.356   2.487  0.4626 -0.0100 -0.0622
 4117W        W22321  11.872  13.345  13.027 -0.0534 -0.3833 -0.1009
 4118W        W22322   6.213  14.685   0.490  0.3417 -0.0423  0.0437
 4119W        W22323  12.188   7.255   5.162  0.2566 -0.0647  0.2942
 4120W        W22324  11.877   5.204  14.357  0.2788 -0.1671  0.2756
 4121W        W22325  11.632   0.795   0.609  0.1894 -0.1783  0.2466
 4122W        W22326   1.424   5.986  15.950 -0.2931  0.0153 -0.1869
 4123W        W22327   0.695   1.833  12.411  0.0562  0.1815 -0.0566
 4124W        W22328  14.168   5.396  17.264 -0.1129  0.0070 -0.0040
 4125W        W22329  12.824  15.823  13.199 -0.1489  0.0965  0.1256
 4126W        W22330  16.573  15.476   3.023 -0.1743  0.0761 -0.1459
 4127W        W22331  14.841   3.074   4.346 -0.2159 -0.0549 -0.0669
 4128W        W22332   2.479   3.126  11.414 -0.2906  0.1314  0.2432
 4129W        W22333   6.634   4.104  14.408  0.3058 -0.1710 -0.0024
 4130W        W22334   4.131   7.797   3.782  0.2490 -0.0992  0.1917
 4131W        W22335   2.234  17.246   0.920 -0.0897  0.1531  0.3759
 4132W        W22336   1.684  16.712  14.054  0.2560 -0.0659  0.2300
 4133W        W22337   4.463  11.409   1.168  0.0451 -0.0286  0.0524
 4134W        W22338  15.173   9.649   4.805 -0.0900  0.1492 -0.4812
 4135W        W22339   7.454  14.818   2.741 -0.0155  0.2104 -0.3075
 4136W        W22340   1.406   0.949  12.439  0.0014 -0.1301 -0.0975
 4137W        W22341   7.626  12.725  16.518 -0.0623 -0.0773  0.1395
 4138W        W22342   6.583  11.106   2.449 -0.0287 -0.2949 -0.1916
 4139W        W22343  15.823  10.948   1.038  0.1884 -0.4015  0.0138
 4140W        W22344   3.003  14.156   3.531  0.2071  0.0872 -0.0496
 4141W        W22345   7.018  12.401  14.819  0.1820  0.0202  0.1407
 4142W        W22346   9.495   2.020   2.966  0.0502  0.1872  0.0361
 4143W        W22347  13.136  11.178   2.524  0.3355  0.0036  0.2324
 4144W        W22348   6.027  14.078   1.628 -0.0246  0.1880  0.0129
 4145W        W22349   1.014  10.730   1.047  0.0065 -0.2506  0.0311
 4146W        W22350  14.188   0.805  12.173 -0.3425  0.2202 -0.1261
 4147W        W22351   7.292  12.902   2.310 -0.1621 -0.1750 -0.2274
 4148W        W22352   8.601  13.838   4.599 -0.1184 -0.2137 -0.0697
 4149W        W22353   7.391  12.732   5.500  0.0704  0.2406  0.0652
 4150W        W22354  10.632   4.647  11.942 -0.1137  0.2559  0.2521
 4151W        W22355  13.011  16.006  15.681 -0.0168 -0.0710 -0.0797
 4152W        W22356  10.362   9.356  16.181  0.0891 -0.0762 -0.1176
 4153W        W22357   1.298  15.212   4.670  0.2120 -0.1495 -0.1460
 4154W        W22358   1.361   7.350  15.721  0.1289  0.1798  0.0392
 4155W        W22359   5.208   2.216   2.939 -0.3767  0.3169 -0.1553
 4156W        W22360   0.526   3.028   3.661  0.3120  0.1596 -0.3329
 4157W        W22361   1.986   9.105  16.335 -0.0560 -0.1103  0.0126
 4158W        W22362   7.366   7.688   4.285  0.0184 -0.1217 -0.1986
 4159W        W22363  14.229  13.692   4.738  0.3146  0.2185  0.0967
 4160W        W22364   9.830   7.213   0.019 -0.2834 -0.2245  0.0983
 4161W        W22365   4.344   0.643  17.475 -0.0845  0.0105  0.0356
 4162W        W22366  11.223   7.138   0.220 -0.1117 -0.0632 -0.0287
 4163W        W22367   0.813  15.631   1.381 -0.2109  0.0229 -0.1939
 4164W        W22368  15.462   1.421   2.877  0.3935  0.1900 -0.0309
 4165W        W22369  12.234   4.397  14.408 -0.0981 -0.1090  0.0699
 4166W        W22370   8.402   2.596  13.385  0.1450  0.0024 -0.0924
 4167W        W22371  15.726   4.485  17.466  0.0417 -0.1378 -0.2869
 4168W        W22372   0.649   6.521  13.840  0.2403 -0.1464  0.2989
 4169W        W22373   8.132  13.723   5.924  0.0552  0.2741  0.2153
 4170W        W22374   8.062  10.020  16.366  0.5026  0.0573 -0.1611
 4171W        W22375   8.778  13.019   2.226 -0.3163  0.0497  0.2105
 4172W        W22376   8.255  13.667  13.219 -0.0570 -0.0909 -0.2881
 4173W        W22377   2.707  14.004  17.042  0.1180  0.1343 -0.1055
 4174W        W22378   6.095   8.625  14.649 -0.1711  0.0879  0.0933
 4175W        W22379   6.124   9.343   4.294  0.0277 -0.2447 -0.1007
 4176W        W22380   9.240   8.865   3.780  0.3479  0.1801  0.2493
 4177W        W22381   4.814  13.153  16.776  0.1452 -0.2191 -0.2105
 4178W        W22382   2.320   1.172  14.404 -0.3915 -0.2938  0.0948
 4179W        W22383  13.600  13.387  13.237  0.2696 -0.1993  0.2626
 4180W        W22384   6.600   7.608  16.854  0.0080 -0.1616  0.0730
 4181W        W22385   2.860  14.309   4.454  0.0302  0.1953  0.0989
 4182W        W22386  10.425   1.030  16.110 -0.1856  0.1268 -0.0215
 4183W        W22387   6.155  15.272  17.370 -0.1836 -0.2658 -0.1488
 4184W        W22388   6.116  15.698   3.781 -0.2643  0.2827  0.1213
 4185W        W22389   7.912  11.278   0.173  0.1081  0.0163 -0.1268
 4186W        W22390   8.633   0.164  15.652  0.0804  0.3027  0.0130
 4187W        W22391   4.120  11.725   1.542 -0.0448  0.2310 -0.1359
 4188W        W22392   0.893   4.562   1.622 -0.1429 -0.0550 -0.0497
 4189W        W22393   2.229   3.737  12.188 -0.1696  0.1375 -0.1600
 4190W        W22394   0.763  15.094   1.083  0.2141  0.1874 -0.2477
 4191W        W22395   9.187   3.866   2.662  0.2589  0.3165 -0.1479
 4192W        W22396   9.103   0.138  17.398 -0.0423  0.1270  0.2888
 4193W        W22397   0.627  13.633   4.048  0.1005 -0.0551 -0.2042
 4194W        W22398   1.951  16.411  15.923 -0.0518 -0.0432 -0.0074
 4195W        W22399   2.399  14.238   5.194  0.2674  0.1427 -0.1640
 4196W        W22400   6.613  15.463   0.720  0.0305 -0.4338 -0.3083
 4197W        W22401   8.544   5.160   4.763 -0.2036  0.2001 -0.3479
 4198W        W22402   6.396  15.441  12.821  0.3311  0.1609 -0.4241
 4199W        W22403  10.868  12.337   3.944 -0.3483 -0.1755 -0.0761
 4200W        W22404   1.299  14.163   1.752 -0.1154 -0.1422 -0.1027
 4201W        W22405  15.291  16.399  14.485 -0.4399 -0.1868 -0.3511
 4202W        W22406  13.143   4.084  14.868  0.0034  0.0451  0.0423
 4203W        W22407  14.155   2.624  15.671 -0.0800  0.1568 -0.1982
 4204W        W22408  14.539   2.898  15.147 -0.0648  0.2332 -0.1554
 4205W        W22409   7.812  16.908  12.361  0.0436  0.0599 -0.0919
 4206W        W22410  15.029   6.504  12.440  0.1507  0.1697  0.0879
 4207W        W22411   3.296   9.745   0.059 -0.0006 -0.0621  0.0874
 4208W        W22412   3.663   5.453   2.056  0.0666  0.1735 -0.5077
 4209W        W22413   6.524   9.200   4.629 -0.2366  0.3056 -0.1422
 4210W        W22414   7.815  11.470   4.010  0.3600  0.0393  0.1017
 4211W        W22415  10.068  12.303  12.444  0.2927 -0.3221 -0.1360
 4212W        W22416   3.663   3.323  12.122  0.1312  0.0071  0.1488
 4213W        W22417   2.970  13.537  13.231  0.2730 -0.0759  0.1729
 4214W        W22418   4.363   6.189   2.432  0.0118  0.0876 -0.0150
 4215W        W22419  15.687  11.072  14.015  0.4543  0.1694 -0.0558
 4216W        W22420  15.031  16.350   4.269  0.1166 -0.1215  0.2209
 4217W        W22421   8.167   6.418  16.733 -0.1943 -0.1084 -0.1965
 4218W        W22422  12.672  11.161   3.729 -0.0612 -0.0193 -0.0686
 4219W        W22423  14.509   2.244   5.265  0.0751  0.2117 -0.1367
 4220W        W22424  16.468  10.071   2.386  0.0151 -0.1547 -0.0068
 4221W        W22425   3.339   8.921   3.943  0.2578  0.1188  0.1590
 4222W        W22426  10.536  10.470   0.235  0.2845 -0.0977 -0.0674
 4223W        W22427   7.805   6.530   3.543  0.2364 -0.0312  0.1785
 4224W        W22428   2.706   0.775   4.205 -0.0488  0.1348 -0.1713
 4225W        W22429   4.610   7.263   1.287 -0.2911 -0.1678  0.1478
 4226W        W22430  12.446   0.088   2.299 -0.0903  0.2344 -0.1475
 4227W        W22431  10.961  16.326  15.357 -0.0554 -0.2923  0.1358
 4228W        W22432  12.356   4.557  11.993  0.0512 -0.2635 -0.1573
 4229W        W22433   9.026  11.106   4.071  0.3675 -0.1337 -0.0691
 4230W        W22434  12.718   0.572  15.189  0.2450 -0.3481  0.1792
 4231W        W22435  10.320  13.574   0.582  0.1568 -0.3450  0.0372
 4232W        W22436   1.844  13.324   0.642  0.0699  0.1127  0.2705
 4233W        W22437  12.262  16.574  17.213 -0.1482 -0.1717 -0.0689
 4234W        W22438   7.937   4.250   3.618 -0.0885  0.0088  0.0734
 4235W        W22439  14.546  12.014   3.183  0.0544 -0.1941  0.2325
 4236W        W22440  11.628   1.296  15.039 -0.0124  0.3201  0.3287
 4237W        W22441  11.542   9.228   4.413  0.1292 -0.1558  0.2746
 4238W        W22442   1.579   6.898  15.958  0.1132 -0.0950  0.1655
 4239W        W22443  12.140   9.879   3.278 -0.1438  0.1165  0.0600
 4240W        W22444  17.045  15.020   3.772  0.0114 -0.0802  0.0331
 4241W        W22445  16.928   4.466   2.979  0.0399  0.2710 -0.2018
 4242W        W22446   2.102  15.597   4.603  0.0364  0.0982  0.1841
 4243W        W22447   0.972   2.214   2.652  0.0086  0.0499  0.1483
 4244W        W22448  14.830  15.292   5.734  0.1720 -0.0056 -0.1567
 4245W        W22449  12.964   1.789  14.914 -0.3190 -0.2605 -0.0336
 4246W        W22450  10.759   4.184  14.558 -0.1407  0.3083 -0.1738
 4247W        W22451   9.211  16.688   5.265  0.0662  0.3711 -0.0178
 4248W        W22452   2.519   2.430  17.290 -0.0199 -0.5506  0.2994
 4249W        W22453  10.446  15.476   4.622 -0.1980  0.0231 -0.1149
 4250W        W22454   7.320   6.310  17.214 -0.0815  0.1029  0.1683
 4251W        W22455  17.014   1.640   4.777  0.0665  0.0594 -0.1764
 4252W        W22456   9.650   1.261  16.224  0.0887 -0.2778  0.2455
 4253W        W22457  17.220   1.926   0.702  0.2847 -0.0175  0.0866
 4254W        W22458  10.045  13.024  15.027  0.3980 -0.0946  0.1831
 4255W        W22459   2.963   0.626   0.695  0.2617  0.0193  0.0700
 4256W        W22460  14.468  11.905  14.218 -0.1309  0.1149  0.0985
 4257W        W22461  15.173  10.316  14.593  0.0612 -0.1349 -0.4187
 4258W        W22462  14.061   8.099   4.791  0.0150 -0.0095 -0.1753
 4259W        W22463   6.507   9.981  14.855 -0.1081 -0.1718  0.0406
 4260W        W22464   6.297  15.732  15.256 -0.0944  0.1336 -0.0202
 4261W        W22465   7.685  11.110   2.316  0.1081 -0.3206  0.0989
 4262W        W22466   2.530   0.265   4.967  0.2062  0.0992  0.0318
 4263W        W22467  13.260  14.538   3.059  0.2604 -0.0933 -0.1963
 4264W        W22468   0.376  11.937   2.391 -0.0136 -0.1172  0.3299
 4265W        W22469   2.108   9.958  14.865 -0.1456 -0.0294  0.0805
 4266W        W22470   0.081   5.704   2.442  0.4101 -0.0513  0.1276
 4267W        W22471  14.640  16.140   2.724 -0.0416  0.0133  0.2141
 4268W        W22472   5.054   4.783  16.879  0.0788 -0.1001 -0.0234
 4269W        W22473   5.774   1.062  12.461 -0.0629 -0.0190  0.2116
 4270W        W22474   7.861  10.230   0.973  0.2762 -0.0958 -0.0632
 4271W        W22475  16.366  11.371   5.613 -0.1840 -0.1049 -0.1186
 4272W        W22476  17.193  15.496  17.369 -0.3131 -0.0700 -0.1191
 4273W        W22477  14.036  15.530   4.711  0.0358 -0.4315  0.0409
 4274W        W22478  10.173   3.640  16.677 -0.0043 -0.1412 -0.0836
 4275W        W22479  10.460  11.309   4.490 -0.0435 -0.0895  0.0363
 4276W        W22480  13.976  12.070   0.010 -0.0193  0.0523 -0.1974
 4277W        W22481   2.583   1.670  12.726 -0.0080 -0.0370  0.0192
 4278W        W22482   3.960  10.630   2.413  0.1138  0.0483  0.0134
 4279W        W22483   9.287   8.878   5.273 -0.3521 -0.1199  0.2356
 4280W        W22484   8.111   5.159   5.098  0.0366  0.2068 -0.2499
 4281W        W22485   9.144  10.135  13.199  0.0952 -0.1213 -0.1176
 4282W        W22486   3.591   8.593   0.699 -0.2075  0.1561 -0.0573
 4283W        W22487  12.058   9.594  17.272 -0.0286 -0.2159 -0.0729
 4284W        W22488  15.457   0.481  14.423  0.0784 -0.0894  0.1729
 4285W        W22489   2.277   7.120   2.754  0.0964  0.0142 -0.2362
 4286W        W22490  17.248   1.521  16.429  0.0739 -0.0580 -0.1054
 4287W        W22491   5.570   3.729   2.362  0.0726 -0.1015 -0.0339
 4288W        W22492  15.252   0.411  16.777 -0.1141  0.1240 -0.3201
 4289W        W22493   0.299   6.651  14.175  0.0130 -0.0677 -0.1113
 4290W        W22494  14.013   1.359  15.815  0.3217 -0.1897 -0.1289
 4291W        W22495  12.358   6.799   4.268  0.1067 -0.1661  0.1707
 4292W        W22496   6.021   9.629  14.181  0.0274  0.0920  0.0573
 4293W        W22497   9.223   7.835   1.812  0.2836 -0.0321 -0.2961
 4294W        W22498  15.481  15.072  17.419 -0.0612 -0.2588  0.1326
 4295W        W22499  16.581  13.759  16.343  0.1244 -0.1987 -0.2334
 4296W        W22500   2.930  15.599  13.976 -0.1206  0.1301  0.2581
 4297W        W22501   6.045  11.446  15.100  0.0508  0.0486 -0.0361
 4298W        W22502   4.897  16.771   2.227  0.2617 -0.0786 -0.2346
 4299W        W22503  14.593   7.363  14.283  0.1265  0.0308  0.0556
 4300W        W22504   8.336  10.380  13.297 -0.1710 -0.0948  0.1260
 4301W        W22505   1.211  17.096  12.561  0.0186 -0.2009  0.1025
 4302W        W22506  16.389   1.612   3.782  0.1557 -0.1584  0.1679
 4303W        W22507   1.219   0.670  17.343  0.1987 -0.1058 -0.0308
 4304W        W22508   0.548  14.925  17.219  0.0957  0.2615  0.0509
 4305W        W22509  16.442  15.896   2.761  0.1057  0.0874  0.0580
 4306W        W22510   1.248  10.287   6.123 -0.0711  0.2082 -0.0978
 4307W        W22511   8.315   4.758  14.512  0.3325 -0.0394 -0.2606
 4308W        W22512   7.043   4.400  15.381  0.4409  0.3267 -0.2511
 4309W        W22513   6.656   0.695  13.681 -0.2380  0.3085 -0.2829
 4310W        W22514  14.218   0.278   2.928 -0.2533  0.0376 -0.1962
 4311W        W22515   5.881   5.779   3.885 -0.3323  0.0170  0.0391
 4312W        W22516   0.486  11.873  13.190 -0.0597  0.0309 -0.1937
 4313W        W22517  11.475  16.442  15.385  0.0009 -0.1633 -0.2578
 4314W        W22518  15.170   5.430   1.997  0.1385 -0.0094  0.0489
 4315W        W22519   4.779  14.899   5.579 -0.0467  0.2110 -0.4532
 4316W        W22520   3.729   0.740  15.695 -0.1535 -0.0453 -0.1799
 4317W        W22521   3.908  16.878   1.354  0.1371 -0.0727  0.0032
 4318W        W22522  17.121   9.933  14.976  0.1440 -0.3936 -0.1377
 4319W        W22523   4.893   7.735  16.102 -0.1522  0.2308  0.1302
 4320W        W22524  11.246   1.089  16.697  0.2768 -0.0776 -0.0435
 4321W        W22525   9.748   1.272   4.976 -0.2143 -0.1724  0.0783
 4322W        W22526  13.213  10.843  17.048 -0.0046  0.2467  0.1127
 4323W        W22527   8.368  16.646  11.079  0.0739  0.0740  0.0971
 4324W        W22528  16.360   0.089   1.515  0.0785 -0.0165 -0.2748
 4325W        W22529   7.658   2.767   0.371  0.1145 -0.1140 -0.2354
 4326W        W22530   9.932  14.591  15.171 -0.1443  0.0550 -0.1190
 4327W        W22531   8.702  15.378  15.369 -0.0527  0.0663 -0.4639
 4328W        W22532   4.512  13.562   5.272 -0.2020 -0.2425 -0.0178
 4329W        W22533  14.165   1.219   3.592 -0.1738  0.3071 -0.1740
 4330W        W22534  14.377  11.826   2.796  0.3857  0.1873 -0.0896
 4331W        W22535  14.493  12.531   4.133  0.2424 -0.1773  0.1771
 4332W        W22536   2.516   2.649  13.199  0.2060 -0.1664 -0.2164
 4333W        W22537  10.197  10.978  15.042  0.1580  0.2718  0.2193
 4334W        W22538  10.349   5.721  17.145 -0.0070  0.0071 -0.0355
 4335W        W22539   9.029  14.227   4.568 -0.0795  0.0360 -0.1848
 4336W        W22540   3.944   3.277  13.849  0.1340  0.2309  0.0236
 4337W        W22541   6.961   4.698  13.324 -0.1224  0.2023 -0.0613
 4338W        W22542   0.520  15.076   4.274  0.0105  0.1377  0.2397
 4339W        W22543   9.881  11.834   0.557 -0.0451 -0.1427 -0.1262
 4340W        W22544   3.312   0.066   2.609  0.3197 -0.0035  0.0376
 4341W        W22545   6.643   8.723   4.769  0.4298  0.2062 -0.1418
 4342W        W22546   2.114   7.925  13.291  0.0467  0.0416  0.1809
 4343W        W22547  15.481   5.962   4.608 -0.4900 -0.1644 -0.1895
 4344W        W22548   5.491   6.380  13.761 -0.2252 -0.0035  0.1294
 4345W        W22549   1.775   1.743  13.688 -0.0078 -0.1948  0.1034
 4346W        W22550   3.242  14.013  14.941 -0.3794  0.1839  0.0059
 4347W        W22551   5.290  14.681   4.425 -0.0171 -0.1193  0.1534
 4348W        W22552   4.117   4.376   1.625  0.1749 -0.2665 -0.0530
 4349W        W22553   3.565  12.549  13.412  0.0496  0.5033 -0.0057
 4350W        W22554   3.742  16.870   3.204 -0.2183 -0.0806  0.1192
 4351W        W22555  15.679  15.525  13.010  0.1028 -0.0210 -0.0282
 4352W        W22556  16.013  17.174   0.195  0.1030  0.0903  0.0318
 4353W        W22557   6.892   4.190  13.362 -0.1769  0.1619  0.0817
 4354W        W22558  10.073  14.619   3.525  0.2774  0.0706 -0.1456
 4355W        W22559  12.737   6.844   5.277 -0.0981  0.2571  0.0076
 4356W        W22560  12.210   8.589   0.972 -0.1247 -0.2043 -0.4517
 4357W        W22561  10.674  16.540  13.716  0.0228  0.0500 -0.1044
 4358W        W22562  11.029   3.384   0.826  0.1421 -0.0256 -0.2355
 4359W        W22563  16.318   2.442  16.026 -0.2143  0.0489  0.0818
 4360W        W22564   9.490  15.413  16.412  0.0489 -0.1673  0.1517
 4361W        W22565  11.963  13.228   0.498  0.0194 -0.4138 -0.3271
 4362W        W22566   7.748   6.085   5.005 -0.1557  0.0052  0.0850
 4363W        W22567   9.595  11.556  14.468  0.1868  0.0032  0.2928
 4364W        W22568  17.295  15.161  12.422 -0.2044 -0.0030 -0.2054
 4365W        W22569  16.821   4.593  12.175 -0.2633  0.3740  0.1126
 4366W        W22570   2.872   8.416  17.037 -0.1758 -0.1613  0.0797
 4367W        W22571   3.112   0.173   3.241  0.0527  0.2324  0.1049
 4368W        W22572   5.467   7.024  17.148 -0.0367 -0.1951 -0.2684
 4369W        W22573   9.839   2.376   1.604 -0.3749 -0.1861 -0.2851
 4370W        W22574  11.310  16.765   4.520  0.0374  0.2034  0.0067
 4371W        W22575  13.576   4.229   0.378  0.0038  0.2782  0.0305
 4372W        W22576   9.072   4.265  13.324 -0.0683 -0.0070  0.4201
 4373W        W22577  11.797  15.557  15.479  0.2794  0.1871  0.0236
 4374W        W22578  16.455  14.276  16.238 -0.4761  0.4613 -0.0411
 4375W        W22579   7.303  13.345  15.345 -0.0284  0.0964 -0.0227
 4376W        W22580   4.022   3.721   3.739  0.0252  0.1486  0.0065
 4377W        W22581   9.216   5.677  15.169 -0.2779 -0.1927 -0.1525
 4378W        W22582   5.603  12.300  15.555 -0.1861  0.0358  0.1932
 4379W        W22583   1.147   6.049   1.173  0.0041 -0.1657 -0.1495
 4380W        W22584   3.629  14.919   2.411 -0.0897  0.0847 -0.0842
 4381W        W22585   9.762   8.498  14.920 -0.1008  0.0565 -0.2046
 4382W        W22586   4.566   2.809  16.085 -0.1294 -0.1190  0.1701
 4383W        W22587   2.276  15.739   0.268 -0.1450  0.2942 -0.0904
 4384W        W22588  16.418   9.155  16.393  0.0426 -0.1668  0.0171
 4385W        W22589  15.023  11.365  13.280 -0.0740  0.2306  0.4733
 4386W        W22590  10.747   1.729  13.061 -0.1489  0.1252  0.1069
 4387W        W22591   9.604   3.226   1.413  0.1843  0.1121  0.1765
 4388W        W22592  13.470   7.243  13.871  0.0677 -0.0851  0.0319
 4389W        W22593  16.701   0.132   3.020  0.1064  0.1289 -0.0815
 4390W        W22594   0.047  13.775   2.556  0.1423 -0.0279  0.0475
 4391W        W22595  11.280  14.292  16.750  0.0125 -0.1430  0.1490
 4392W        W22596  11.052   2.985  13.587  0.0390 -0.0596 -0.0171
 4393W        W22597  13.196   5.191   4.784  0.0411  0.0950  0.0790
 4394W        W22598  13.473   7.317   0.840 -0.0535  0.1641 -0.1889
 4395W        W22599   1.198  15.987   1.718  0.0820 -0.1901  0.1037
 4396W        W22600  12.256   8.646  16.645  0.0104 -0.1750  0.0035
 4397W        W22601  13.087  16.673   5.235 -0.2274  0.1915 -0.1206
 4398W        W22602   7.179   9.962  14.086  0.3336  0.0139 -0.3544
 4399W        W22603   1.396   2.989   3.664  0.0505 -0.1284  0.1319
 4400W        W22604   6.295   2.122  13.746 -0.4125  0.0945 -0.2816
 4401W        W22605  13.051   9.666   1.445 -0.1339 -0.0582  0.3199
 4402W        W22606  15.204  15.657  15.494 -0.2283 -0.2231  0.0489
 4403W        W22607  10.859  13.408  15.936 -0.2031  0.0584  0.1405
 4404W        W22608   9.303   0.755  12.321  0.0255  0.0318 -0.1802
 4405W        W22609   2.893  16.790  14.508  0.0669 -0.2852 -0.0304
 4406W        W22610   1.029  15.314   3.655  0.1553 -0.2959  0.1018
 4407W        W22611   9.660  15.426  15.571  0.0184  0.0699 -0.1780
 4408W        W22612  15.542  15.940   3.068 -0.0037  0.0268 -0.1614
 4409W        W22613   6.710  12.494   0.935 -0.1366 -0.0187  0.1440
 4410W        W22614   0.332   1.412  13.318  0.1346 -0.1491 -0.1596
 4411W        W22615   0.250   6.552  15.471 -0.0879  0.0443 -0.2169
 4412W        W22616   3.778  11.375  13.640 -0.3254 -0.1324  0.1796
 4413W        W22617  13.062   1.300  13.148  0.0610 -0.3981  0.0501
 4414W        W22618   8.268  10.556   4.676  0.2556  0.0312 -0.3047
 4415W        W22619   8.608   9.801  15.822  0.0803 -0.1826  0.4043
 4416W        W22620  12.740   9.856  15.587  0.2712 -0.0411  0.1116
 4417W        W22621  12.702   5.207   5.005 -0.5128  0.1348 -0.1066
 4418W        W22622   2.297   3.942  13.875  0.3187 -0.0827  0.0480
 4419W        W22623   9.327  13.240   3.956  0.0017  0.1870 -0.0330
 4420W        W22624   7.899  15.519  12.338  0.1293  0.1034  0.0142
 4421W        W22625   8.496   0.215   3.637  0.0034  0.0720  0.0893
 4422W        W22626   5.978   5.108  12.654  0.3553  0.2666 -0.0934
 4423W        W22627  14.361   9.258  13.552 -0.0051 -0.0707  0.0629
 4424W        W22628   0.626  14.087  15.783  0.2555  0.0378 -0.3998
 4425W        W22629   9.290   6.031   1.704 -0.0760  0.0472  0.2595
 4426W        W22630   3.144   6.793   1.831 -0.0025  0.2284  0.3224
 4427W        W22631   2.361  13.229   0.641 -0.0217  0.1623  0.1853
 4428W        W22632  15.168  14.300  13.494 -0.1317 -0.0059 -0.2068
 4429W        W22633  14.220  15.974   3.285  0.3191  0.2853  0.0069
 4430W        W22634  12.095   5.446   4.309  0.0217  0.3627  0.3403
 4431W        W22635  16.812   9.728  12.689  0.1341  0.1739  0.0190
 4432W        W22636  13.436  11.461  14.497  0.3441 -0.3366  0.0285
 4433W        W22637   2.308  10.612   0.922  0.1458 -0.2688  0.0187
 4434W        W22638   2.105   1.989  15.181 -0.0998  0.2005 -0.2778
 4435W        W22639   2.175  14.272  16.056  0.1831 -0.2887 -0.1454
 4436W        W22640  15.161   8.285  16.787  0.3030  0.0222 -0.1969
 4437W        W22641  10.623   6.671   2.362  0.1541  0.1027 -0.1326
 4438W        W22642   8.462   8.875   0.578 -0.1278 -0.0170  0.1255
 4439W        W22643   1.001  11.496   2.879 -0.0038 -0.1983  0.1983
 4440W        W22644  15.812   2.143  16.089 -0.1389 -0.0025 -0.0107
 4441W        W22645  15.175  11.330  13.742 -0.1379 -0.0148 -0.3810
 4442W        W22646  11.999  11.360  14.140  0.1509 -0.0802  0.3048
 4443W        W22647  13.304   6.600  12.418  0.0634 -0.2423 -0.0632
 4444W        W22648  11.809  12.663  17.480  0.1856 -0.3953  0.1925
 4445W        W22649  14.400   1.231   4.816  0.1132 -0.1120 -0.2040
 4446W        W22650   7.422  11.768  17.229  0.1889 -0.2841 -0.0549
 4447W        W22651   7.039  12.984   2.731  0.0151  0.0934  0.1286
 4448W        W22652  10.036   3.711   2.423  0.2024  0.0674 -0.0963
 4449W        W22653   4.954   4.188  12.854 -0.0277 -0.0630 -0.1379
 4450W        W22654  10.941   8.736   4.708  0.3359 -0.3586  0.0387
 4451W        W22655   8.109   8.158  14.351  0.0990 -0.0919  0.2566
 4452W        W22656  13.545   1.272  16.039 -0.2126 -0.2271 -0.4205
 4453W        W22657   2.521   7.351   5.467 -0.1446 -0.1522 -0.2004
 4454W        W22658  13.160   7.563  14.035 -0.0247 -0.0780  0.3184
 4455W        W22659  11.257   9.743  16.863  0.0610 -0.1788  0.2484
 4456W        W22660  16.678   6.690   3.213  0.2044 -0.1772  0.0248
 4457W        W22661   8.373   0.394  13.576  0.1098  0.1185  0.0031
 4458W        W22662   4.128   4.237   3.940  0.1681 -0.0724 -0.2524
 4459W        W22663   3.549   4.603  17.063  0.0914 -0.0747  0.0551
 4460W        W22664  13.468  12.760  12.996  0.0411 -0.2151 -0.0770
 4461W        W22665  14.380   9.689   4.237 -0.0401 -0.2403 -0.0887
 4462W        W22666   3.343   7.585   0.386  0.1115  0.1187 -0.2055
 4463W        W22667   5.137   7.142  13.893 -0.2841  0.0275  0.1866
 4464W        W22668  12.437  14.998  14.763  0.1148  0.1328 -0.1333
 4465W        W22669   0.696   9.152   3.502  0.1756 -0.1690 -0.1665
 4466W        W22670  11.483  12.515  14.885 -0.3193 -0.0116 -0.0805
 4467W        W22671   1.603   3.460  12.762  0.1681 -0.3506  0.2448
 4468W        W22672  16.713   8.517   4.386  0.1128 -0.0415 -0.1024
 4469W        W22673   3.239  10.938   2.497 -0.3558  0.0630  0.0706
 4470W        W22674   4.520   4.346  12.571 -0.0251  0.2168 -0.0687
 4471W        W22675   1.709   9.757   4.935 -0.0691  0.1418  0.1366
 4472W        W22676  10.054  16.777   0.627  0.0532 -0.2891  0.2560
 4473W        W22677  14.802   5.043   1.794  0.0487 -0.2832 -0.1726
 4474W        W22678   7.138  12.993  14.624  0.0926 -0.0742  0.0147
 4475W        W22679   9.408  13.839   4.640 -0.1119 -0.3192 -0.0309
 4476W        W22680  13.153   0.828  12.968 -0.0985  0.2392 -0.2943
 4477W        W22681   7.067  14.665  14.888  0.1839  0.0981  0.1070
 4478W        W22682   5.407   4.825  13.939 -0.2784  0.3763  0.2443
 4479W        W22683  16.803   4.055   1.880  0.1309 -0.0849 -0.1109
 4480W        W22684   5.826  10.379   5.065  0.0713  0.3880 -0.0263
 4481W        W22685  10.894   3.910  15.541  0.0744  0.0988 -0.0239
 4482W        W22686   6.653   7.472  15.132 -0.3608  0.1592  0.2419
 4483W        W22687   6.211   0.840  16.892 -0.3111 -0.0452  0.1494
 4484W        W22688   5.057   9.715  12.571  0.1907  0.0329  0.1492
 4485W        W22689  14.892  15.321   3.333 -0.1231 -0.2162 -0.1079
 4486W        W22690  14.064  12.583   4.690 -0.0734  0.1134 -0.3510
 4487W        W22691   9.170  11.311   1.364  0.2770 -0.1466  0.1355
 4488W        W22692   0.993  15.150  14.607  0.0607  0.2321  0.2158
 4489W        W22693   0.429   2.071   1.874 -0.3156 -0.0532 -0.2030
 4490W        W22694  12.122   3.598   1.257 -0.0725 -0.2082  0.1387
 4491W        W22695  16.315   1.149   4.538 -0.3148  0.0625  0.1159
 4492W        W22696  12.697  11.973  14.296 -0.0520 -0.0329  0.0873
 4493W        W22697   1.954   9.648   0.325 -0.5096  0.2050  0.1744
 4494W        W22698  16.209   2.420  14.332  0.2910  0.0883 -0.3843
 4495W        W22699   6.367   6.028   1.382  0.0139  0.0901  0.0003
 4496W        W22700  10.793   9.647  15.347  0.1640  0.0737 -0.1024
 4497W        W22701   0.519  16.841  15.181 -0.0786  0.0097 -0.1972
 4498W        W22702   2.810  12.297  14.970  0.4637  0.3717  0.2149
 4499W        W22703  11.660  15.016   4.663 -0.0311 -0.0874 -0.0597
 4500W        W22704   1.903   9.868   1.916  0.0672 -0.0838 -0.0417
 4501W        W22705   2.186   4.514   3.402  0.0934  0.0796 -0.0896
 4502W        W22706   4.554   9.825   0.379 -0.3409  0.1338  0.1266
 4503W        W22707  14.679   9.619  13.778  0.0237 -0.1554 -0.1723
 4504W        W22708   7.672   2.287   4.627  0.2632 -0.4698  0.0699
 4505W        W22709  14.098   8.831  15.531  0.0268 -0.1624  0.1927
 4506W        W22710   9.924  16.665   3.272 -0.0703 -0.0222  0.1118
 4507W        W22711  10.695   8.399  14.706 -0.2329  0.2003  0.1431
 4508W        W22712   5.423   2.185  16.530 -0.0442 -0.0933 -0.2383
 4509W        W22713   2.436   8.727  16.100 -0.0784  0.1245  0.0848
 4510W        W22714  11.828  15.082   5.527 -0.1881  0.0626 -0.3895
 4511W        W22715   1.284  10.052  17.181 -0.2256  0.0003  0.1160
 4512W        W22716   1.429  17.005  11.552  0.1188 -0.0074  0.3364
 4513W        W22717   0.235  12.710   2.126 -0.2721  0.3582 -0.1156
 4514W        W22718  15.152   2.781  11.463 -0.0143 -0.0823 -0.1138
 4515W        W22719   5.667   3.167   4.379  0.1996 -0.1328 -0.0397
 4516W        W22720  16.165   1.488   5.262  0.1230 -0.0422 -0.0903
 4517W        W22721   4.553   0.321   2.248 -0.0694 -0.2262  0.0769
 4518W        W22722   9.857  13.640   4.515  0.1513  0.1912  0.0927
 4519W        W22723   5.385   0.555   2.377  0.0461  0.1143 -0.3435
 4520W        W22724  11.939   8.505  12.500 -0.5561 -0.0377  0.2509
 4521W        W22725   6.659   9.502   3.164 -0.0673 -0.1832 -0.4142
 4522W        W22726   9.139  12.026  16.307 -0.3655 -0.2127 -0.3522
 4523W        W22727   1.352  11.515  17.147 -0.5279  0.0552 -0.0070
 4524W        W22728  11.667   6.467  16.305  0.2714  0.4047 -0.2035
 4525W        W22729   0.141   2.446  14.318 -0.2241 -0.0522  0.2335
 4526W        W22730   4.214  12.122   0.074 -0.0930  0.4404 -0.1307
 4527W        W22731   8.441  15.506   1.866  0.2668  0.0104  0.0885
 4528W        W22732  10.055  11.640   1.923 -0.0204  0.0890  0.0565
 4529W        W22733   1.265   3.117   0.426 -0.1022  0.0787 -0.0472
 4530W        W22734   5.820   6.930  12.543  0.0056  0.0865  0.1024
 4531W        W22735   1.211  12.204   4.426 -0.1365  0.1876  0.2321
 4532W        W22736  13.712   2.736  14.476 -0.1946  0.1624  0.0529
 4533W        W22737  10.146  15.801  16.481 -0.2210 -0.2802 -0.1495
 4534W        W22738  16.953  10.466  13.679 -0.1196 -0.2345  0.2956
 4535W        W22739   3.461  14.746  13.944  0.0581  0.0466 -0.2399
 4536W        W22740   7.406   2.080   4.285  0.1048 -0.0093  0.1552
 4537W        W22741  13.007   0.005   0.505  0.0559  0.0751  0.0328
 4538W        W22742  16.770  12.908  15.283 -0.0274  0.1810 -0.0189
 4539W        W22743  16.840  12.225  14.755 -0.4969  0.2545 -0.2294
 4540W        W22744   0.189  10.694  12.344  0.0121  0.0969 -0.1600
 4541W        W22745   1.292  11.756   4.453  0.2200  0.1894 -0.2114
 4542W        W22746  11.395  12.941  17.471  0.1910 -0.2662  0.0138
 4543W        W22747   0.871  12.150   4.001  0.2715  0.0090 -0.3224
 4544W        W22748  15.444  15.395   3.358  0.3958  0.0057 -0.2930
 4545W        W22749  15.043   9.119   3.449 -0.1392  0.0479  0.1686
 4546W        W22750   6.887  15.679   1.117  0.1756  0.1687 -0.3655
 4547W        W22751   6.885   2.770  11.596 -0.0620  0.0607  0.0243
 4548W        W22752  10.322  16.870  15.637  0.1113  0.0119  0.0057
 4549W        W22753   1.193   9.756   4.955 -0.0943  0.2098  0.1494
 4550W        W22754  11.689   9.169  14.712  0.1516 -0.1369 -0.1078
 4551W        W22755  14.555   9.272   1.912 -0.0813  0.1074  0.0277
 4552W        W22756  15.568  13.753   1.718  0.4009  0.1226 -0.0727
 4553W        W22757  14.107  16.123   1.013  0.1392  0.1455  0.0754
 4554W        W22758   8.925   7.868   1.408 -0.1814 -0.1259 -0.0756
 4555W        W22759   7.587   2.615  12.756 -0.1465  0.0657  0.2273
 4556W        W22760   6.071   4.145   0.151 -0.0233  0.1869 -0.1635
 4557W        W22761  13.518  16.505  14.342  0.0236  0.0415  0.0411
 4558W        W22762  11.472  17.261   5.389 -0.4437 -0.0893 -0.1181
 4559W        W22763   7.928   9.705  12.822  0.1432  0.1200 -0.1377
 4560W        W22764  15.619   3.014  15.847  0.2649  0.0327  0.2208
 4561W        W22765   6.798   6.363  17.150  0.3948  0.2312  0.0755
 4562W        W22766  15.301  16.324  12.266 -0.0435 -0.0825  0.0060
 4563W        W22767   8.743   8.985   3.751  0.0737 -0.3711  0.0046
 4564W        W22768  11.460  11.272  13.311  0.0161  0.2465  0.0751
 4565W        W22769  15.453  10.063   1.150 -0.2556  0.0195 -0.0042
 4566W        W22770  10.950  10.517  15.686 -0.1446  0.1169 -0.1232
 4567W        W22771  13.243   8.776  12.876  0.0838  0.2220 -0.2090
 4568W        W22772   3.670  11.323  13.127  0.1520  0.1049  0.0403
 4569W        W22773   4.549  13.045   5.463  0.1166 -0.4450  0.3472
 4570W        W22774   1.253  13.243  15.890 -0.3737 -0.3874 -0.0617
 4571W        W22775   5.067   4.923  16.356  0.1815 -0.1728 -0.0645
 4572W        W22776   5.700  11.475   5.459  0.1667 -0.0756 -0.0784
 4573W        W22777  17.154   4.846   0.096  0.1834 -0.1572 -0.5092
 4574W        W22778  15.414  16.354   0.723  0.0056 -0.0193 -0.1210
 4575W        W22779   2.789  14.003  14.708  0.1759  0.1713  0.2197
 4576W        W22780  16.521  13.108  12.920  0.0438 -0.4062  0.1898
 4577W        W22781   4.210   9.801   5.112  0.2071  0.0984  0.1175
 4578W        W22782   2.616   5.965   2.658 -0.1509 -0.2466  0.0568
 4579W        W22783   0.630   0.321  12.494  0.3442 -0.3308 -0.0239
 4580W        W22784   3.068  10.104   0.959 -0.0667 -0.3891 -0.2231
 4581W        W22785   5.219  13.671   1.757  0.0748 -0.0638 -0.0800
 4582W        W22786   7.679  14.521   3.576 -0.1255  0.0119 -0.1452
 4583W        W22787  15.069   4.563   1.690  0.0568  0.2859 -0.2623
 4584W        W22788  12.997  16.983   1.877 -0.1856 -0.3096 -0.0658
 4585W        W22789  13.105   4.494   1.988 -0.1857 -0.0168  0.1915
 4586W        W22790   8.864   5.406  16.158  0.0675 -0.0016 -0.3042
 4587W        W22791   0.274  12.795   1.627  0.0976  0.0168  0.0224
 4588W        W22792   1.779   1.924   0.692 -0.1742  0.1517 -0.0485
 4589W        W22793  13.112  12.847   3.559  0.1298  0.1337 -0.0244
 4590W        W22794   9.669   7.520  15.589  0.0680  0.1334 -0.1160
 4591W        W22795  10.267   6.994  16.144 -0.0111  0.1251 -0.0027
 4592W        W22796  11.944  15.408  16.704  0.2426  0.2391  0.0486
 4593W        W22797   7.845  13.631  16.321 -0.0402  0.1399 -0.2650
 4594W        W22798  16.384  11.866   1.518 -0.0181  0.0249 -0.2603
 4595W        W22799  10.478  10.073   6.412 -0.2604  0.1833  0.0600
 4596W        W22800  12.824   5.593   4.733  0.2685 -0.1258  0.0940
 4597W        W22801   4.322   5.234  16.684 -0.0606  0.0853 -0.1925
 4598W        W22802  11.605  11.805   3.048 -0.0225 -0.0549  0.1521
 4599W        W22803   7.883   1.839  15.192 -0.1759  0.0993 -0.0595
 4600W        W22804  12.237   5.406  13.667 -0.2211 -0.1583  0.1614
 4601W        W22805  15.400   4.529   3.313 -0.3380  0.1883 -0.3183
 4602W        W22806  15.632  15.887   2.581  0.1487  0.0158 -0.0899
 4603W        W22807   3.877  12.739   0.776  0.0637  0.0488 -0.0337
 4604W        W22808  15.508   9.891   5.139  0.4703  0.1406  0.0075
 4605W        W22809  12.638  14.861   0.570  0.1242 -0.3175 -0.1507
 4606W        W22810   2.371  10.095   5.488 -0.0242  0.0603  0.0519
 4607W        W22811  16.580   6.278  13.594 -0.1614  0.0081  0.0129
 4608W        W22812  15.598  12.813  17.001 -0.0435  0.1999  0.1602
 4609W        W22813   9.824   0.249   1.751 -0.2690  0.2004 -0.1237
 4610W        W22814   2.138  11.816   2.680  0.2364 -0.0220 -0.0753
 4611W        W22815   9.934   0.939   0.395  0.0108 -0.1072  0.1416
 4612W        W22816  12.919  13.195   5.052 -0.1986 -0.1511 -0.0414
 4613W        W22817  13.052   8.864   4.459  0.2538 -0.1451  0.1425
 4614W        W22818   0.888   9.457   2.335  0.0824 -0.1697  0.1325
 4615W        W22819   4.306  12.113   3.470  0.1304  0.0761  0.1445
 4616W        W22820  11.855  16.970  15.547  0.4505 -0.0317 -0.0116
 4617W        W22821   4.213  12.344   3.941 -0.2212 -0.1162 -0.2070
 4618W        W22822   1.915  13.585  14.801 -0.2172 -0.0326 -0.2439
 4619W        W22823   6.093  14.710  14.408 -0.2730  0.0071 -0.0567
 4620W        W22824  16.134  15.093   3.748  0.3938  0.2849  0.1190
 4621W        W22825   7.322  12.143   4.444  0.0004 -0.1452  0.0887
 4622W        W22826   3.748   7.665  11.856  0.4381 -0.3489  0.1555
 4623W        W22827   2.156   4.787  13.268 -0.1944 -0.1719  0.1035
 4624W        W22828  16.258   4.374   0.545  0.0747 -0.0050 -0.0150
 4625W        W22829   6.996   1.412  14.478 -0.1078 -0.2275 -0.0197
 4626W        W22830   4.462   2.450  11.715 -0.1971  0.2711  0.0056
 4627W        W22831  13.679   4.260  14.008  0.0693 -0.1995  0.0659
 4628W        W22832  15.675  11.534  16.355 -0.1380 -0.0837  0.1598
 4629W        W22833  13.724   3.206  14.595 -0.0028 -0.2878  0.1822
 4630W        W22834   0.609  15.726   5.322  0.1265  0.2624  0.0708
 4631W        W22835  12.986   3.439  14.425  0.3054  0.0634 -0.1598
 4632W        W22836   5.929  10.648  12.765  0.2066 -0.0851 -0.0467
 4633W        W22837   9.143   5.304  13.325  0.1104  0.0182 -0.0491
 4634W        W22838   6.308  14.471  17.146 -0.0462 -0.2058 -0.2882
 4635W        W22839   2.095  17.063   4.334  0.0495  0.1627  0.2026
 4636W        W22840  12.713   2.589  12.360  0.1240 -0.0958 -0.0512
 4637W        W22841   4.474  14.187  17.334 -0.3331 -0.1081 -0.1859
 4638W        W22842   0.659   7.423   4.498  0.0132  0.2749 -0.0910
 4639W        W22843   0.314  17.258  15.853  0.2333  0.1811 -0.2222
 4640W        W22844   9.999   9.471   2.828  0.3993 -0.3703 -0.1378
 4641W        W22845   3.651  10.495   3.946  0.0550 -0.0375 -0.1835
 4642W        W22846  13.354   2.183   2.666 -0.2287 -0.1243 -0.4409
 4643W        W22847   9.288  11.422   4.480 -0.0726 -0.0766 -0.1587
 4644W        W22848  17.023  10.600  14.205  0.1250  0.1441 -0.1276
 4645W        W22849  10.383   4.632  15.668 -0.0265 -0.0021 -0.0294
 4646W        W22850  10.838   4.232   0.658  0.4520  0.2787 -0.0880
 4647W        W22851  11.966  15.772  17.392  0.1613  0.0550  0.0572
 4648W        W22852  11.636   1.859  12.335  0.1089 -0.2051  0.0033
 4649W        W22853   1.789  11.968  16.439 -0.1398 -0.0369 -0.1417
 4650W        W22854   0.416   6.069  13.671 -0.0629  0.2540 -0.1164
 4651W        W22855  14.046   4.750  14.249 -0.2288 -0.3191 -0.1078
 4652W        W22856  10.112   0.567   3.835 -0.1717  0.2860 -0.0708
 4653W        W22857   2.093   7.120  16.770 -0.0445  0.1164  0.0714
 4654W        W22858  13.247  16.040  15.244  0.0783 -0.1461 -0.1768
 4655W        W22859   0.045   5.713   4.167 -0.0772  0.0582 -0.0463
 4656W        W22860  12.321   8.185  12.243  0.0873 -0.2890  0.1647
 4657W        W22861  15.315   3.271   0.066  0.0674 -0.3890  0.0700
 4658W        W22862  11.867   1.847   0.370 -0.2242  0.0606 -0.1116
 4659W        W22863   1.529   8.861  16.247 -0.0124  0.0356 -0.0271
 4660W        W22864  16.173   2.195   1.634 -0.0091 -0.1746 -0.0670
 4661W        W22865   1.755   8.899   1.651 -0.1431  0.0177 -0.1009
 4662W        W22866   3.603  10.580   1.612  0.0807 -0.2464  0.0077
 4663W        W22867   2.311   9.014   2.834  0.0378  0.4210  0.0417
 4664W        W22868   4.117   1.683  12.216 -0.1533  0.3123  0.0715
 4665W        W22869  10.511   0.621  13.744 -0.1164 -0.0762  0.0449
 4666W        W22870   5.823   4.243  15.453 -0.0079  0.0968  0.0313
 4667W        W22871  10.082  16.877   0.106 -0.1764 -0.1994  0.2239
 4668W        W22872   3.253   1.432   3.246  0.0554 -0.2596  0.2333
 4669W        W22873  16.838   5.873   2.077  0.1166  0.2998  0.1099
 4670W        W22874  13.287   7.238  13.125  0.2046  0.0031  0.1133
 4671W        W22875   7.651  15.269   4.842 -0.1419  0.1215  0.2972
 4672W        W22876  16.416   3.252   4.973  0.3401 -0.1782  0.1326
 4673W        W22877   3.974   1.571  15.404  0.1039 -0.2809 -0.0948
 4674W        W22878   1.661   3.162   1.212 -0.2322  0.0952  0.0253
 4675W        W22879   4.650   3.240  14.510  0.0621  0.0464  0.1164
 4676W        W22880  14.521  16.640  14.853  0.0594  0.2216 -0.1169
 4677W        W22881   5.263   7.265  12.134  0.0342  0.0160 -0.0112
 4678W        W22882  16.779   9.939   3.394  0.0285  0.0620 -0.1379
 4679W        W22883   3.668   8.884   0.299  0.0252 -0.0068 -0.0159
 4680W        W22884   6.615   9.626   0.671 -0.0508  0.2804 -0.0322
 4681W        W22885   5.255   8.925  12.175  0.1333 -0.1231  0.0186
 4682W        W22886   5.288   4.666   1.788 -0.3948  0.1677  0.3396
 4683W        W22887  16.910   3.873  15.842  0.1836  0.1986 -0.0121
 4684W        W22888   6.590   8.692  14.626  0.3223  0.3240  0.0191
 4685W        W22889   7.046  13.286  13.023 -0.0756  0.0695  0.1487
 4686W        W22890   1.932  16.444   1.326  0.4065  0.1930 -0.0508
 4687W        W22891  14.681   8.100  15.207  0.0133 -0.1833  0.1693
 4688W        W22892  15.009   8.249  15.522  0.1228  0.2096  0.2553
 4689W        W22893   2.202  15.814  13.270 -0.0633 -0.2580  0.0618
 4690W        W22894   1.350   9.398  12.564  0.3360 -0.0645 -0.3259
 4691W        W22895  13.621   0.331   5.020 -0.3808  0.0401 -0.3114
 4692W        W22896  13.730  11.392  13.237  0.1541  0.0452  0.0114
 4693W        W22897   7.855   4.975   3.163 -0.0337  0.3633 -0.1848
 4694W        W22898  10.677   0.702  14.244  0.3665  0.1929 -0.0675
 4695W        W22899  10.544   6.950   4.053  0.1662 -0.1288 -0.0944
 4696W        W22900   9.020   1.649   1.252  0.1109  0.0975 -0.2997
 4697W        W22901   1.251  12.836  17.466 -0.2407  0.3293 -0.3856
 4698W        W22902  15.114  11.917   2.913 -0.2712  0.0465  0.2333
 4699W        W22903   1.510   4.804  15.611  0.3333 -0.1455 -0.2232
 4700W        W22904  13.781   7.543  14.768  0.0224  0.4087 -0.1217
 4701W        W22905   1.674   2.843   4.076 -0.3258 -0.3306  0.0173
 4702W        W22906  15.195   2.228   1.236 -0.1058 -0.1087  0.3031
 4703W        W22907   5.441  10.885  12.348  0.0355  0.0185  0.1428
 4704W        W22908   4.728   6.936  16.318 -0.0895  0.1629  0.0893
 4705W        W22909   4.787  15.165  13.806 -0.2145 -0.1341  0.0380
 4706W        W22910  11.001  13.686  16.379 -0.3532 -0.3405 -0.1463
 4707W        W22911   7.358   2.906   1.001  0.0183  0.1433  0.0348
 4708W        W22912   9.993   8.942   4.324 -0.0321 -0.2776 -0.1249
 4709W        W22913   9.035   5.921   2.114 -0.0680  0.0202 -0.2930
 4710W        W22914   4.649  15.769   3.469 -0.1965 -0.1882 -0.0571
 4711W        W22915  10.736  15.655   3.950  0.3154  0.2018 -0.1941
 4712W        W22916  16.097   1.168   2.113 -0.3100 -0.0122  0.0034
 4713W        W22917   0.546   2.058  12.816  0.2204 -0.1822 -0.0231
 4714W        W22918  14.805  10.425   3.474  0.0442  0.1254  0.4684
 4715W        W22919  16.740   7.961   1.318 -0.2095  0.0227 -0.3814
 4716W        W22920   4.985   5.421   0.536  0.2670 -0.0480  0.1943
 4717W        W22921  13.687   2.311   2.153 -0.0884  0.1269 -0.0249
 4718W        W22922   7.749   2.695   4.206 -0.1239 -0.0690 -0.0957
 4719W        W22923   7.302   4.268  13.588 -0.0838  0.0597 -0.1291
 4720W        W22924  14.905   6.435  14.227  0.0142  0.0043 -0.1615
 4721W        W22925   0.638   5.168   5.039  0.2890  0.3398  0.0431
 4722W        W22926   3.855   8.942  14.540 -0.3319  0.0341  0.2071
 4723W        W22927   9.685   2.294   0.245  0.0646 -0.0556 -0.1629
 4724W        W22928   5.930   4.643   1.253  0.3817 -0.3222  0.4233
 4725W        W22929   3.525  16.755   4.622 -0.1193 -0.2624 -0.0200
 4726W        W22930  16.711   9.334  17.137 -0.2222 -0.1288  0.0103
 4727W        W22931   8.119   0.499   3.439  0.0945 -0.0790 -0.1370
 4728W        W22932   4.522   2.122   4.039 -0.1594  0.0778 -0.0148
 4729W        W22933   3.779   4.895   2.524 -0.1884  0.0509 -0.0415
 4730W        W22934  10.013  15.934   0.477  0.0596  0.1235  0.1597
 4731W        W22935  13.846  14.148   1.340  0.2003  0.2413  0.1175
 4732W        W22936  11.123  16.201  16.991 -0.2229 -0.0256  0.2069
 4733W        W22937   8.744   8.106   2.552 -0.2940  0.1453  0.2603
 4734W        W22938   3.131   1.346  16.829 -0.2789 -0.3250  0.2972
 4735W        W22939   3.284  16.621   2.866 -0.2030 -0.0277 -0.0836
 4736W        W22940  15.355   6.896   0.571  0.0492  0.0393 -0.2190
 4737W        W22941  14.777  10.379   4.525 -0.3151 -0.0782  0.1286
 4738W        W22942   0.410  14.654  13.581 -0.1721  0.1819 -0.3950
 4739W        W22943  10.951   6.721   0.415  0.1951 -0.1839 -0.0598
 4740W        W22944   7.903  11.006   0.626 -0.1510 -0.0412 -0.0877
 4741W        W22945  12.217   9.341  14.036  0.1753 -0.1122 -0.0762
 4742W        W22946   4.443  15.985  13.817  0.0077 -0.0671  0.3402
 4743W        W22947  16.641   3.176  12.526 -0.0265  0.0520  0.4287
 4744W        W22948  16.660   4.100   4.022  0.0120 -0.2161 -0.3816
 4745W        W22949   5.905  11.251   3.585 -0.0760 -0.0080  0.1520
 4746W        W22950  14.065  10.921  16.258  0.0266 -0.0756  0.1258
 4747W        W22951   0.772   6.621  12.894 -0.0627 -0.0887  0.2482
 4748W        W22952   7.021  15.005   0.004  0.0975 -0.0935  0.0279
 4749W        W22953  14.557   4.478   4.966 -0.1086 -0.1260  0.0042
 4750W        W22954  12.160   5.953  17.451 -0.1787  0.1502  0.0812
 4751W        W22955   7.651   8.426  15.439 -0.2455  0.0006  0.1607
 4752W        W22956   6.434  16.060  17.419 -0.3799 -0.0047 -0.2782
 4753W        W22957  13.892   1.082   0.723 -0.1220  0.0757 -0.1404
 4754W        W22958   8.640   3.281   4.212  0.1848  0.0313 -0.0848
 4755W        W22959   6.650   6.492   1.476  0.2687  0.1210 -0.3248
 4756W        W22960  11.657  12.256   1.591  0.3035 -0.1887 -0.1088
 4757W        W22961  14.641  14.780  11.664 -0.2353 -0.1941  0.0509
 4758W        W22962   0.533   4.137  16.289  0.0461  0.2579  0.1686
 4759W        W22963  10.954  15.332  15.218 -0.1465 -0.2085  0.3210
 4760W        W22964   0.037   2.842  16.428  0.1935  0.1255  0.2445
 4761W        W22965   1.240   6.497   3.529 -0.2668 -0.1946 -0.1019
 4762W        W22966   4.607  13.389   3.386  0.1392  0.1281  0.0284
 4763W        W22967   3.452   8.788  12.493 -0.0238 -0.0764  0.2081
 4764W        W22968   3.998   8.971  15.780  0.1656  0.1279 -0.0710
 4765W        W22969   7.112  10.738   2.169  0.0816  0.0445  0.1942
 4766W        W22970  15.259   8.669  13.104 -0.1901  0.1121  0.4067
 4767W        W22971   8.734  11.366   1.012 -0.2540 -0.1040  0.2766
 4768W        W22972  11.623  13.262  15.626 -0.1180  0.0668  0.2921
 4769W        W22973   4.288   7.154   3.201  0.2535  0.0791 -0.0554
 4770W        W22974  16.652  11.429   5.025  0.2100 -0.0030 -0.3898
 4771W        W22975   2.658  10.224  15.542 -0.2211  0.1198  0.0173
 4772W        W22976   0.437   8.451   0.871  0.0107  0.0214  0.1754
 4773W        W22977   4.237  17.076   5.237 -0.2741  0.0892  0.0687
 4774W        W22978   4.352   3.484  14.786 -0.2388  0.1815  0.3560
 4775W        W22979   4.242  11.191  14.513 -0.1087  0.1406 -0.0968
 4776W        W22980   7.517  11.567  12.922 -0.0631 -0.3186 -0.1065
 4777W        W22981  16.793  11.873  15.959 -0.5986  0.0772 -0.0846
 4778W        W22982   2.674   1.266   4.293 -0.2636  0.0289  0.0651
 4779W        W22983   4.447  10.547  14.613  0.0520  0.2702 -0.1317
 4780W        W22984  11.526   4.524   1.679 -0.0811  0.0007 -0.2509
 4781W        W22985  16.528   7.306   3.865  0.1203  0.4530  0.1074
 4782W        W22986  12.049   2.512  14.643 -0.0038 -0.1298 -0.3507
 4783W        W22987  15.724  16.276  14.167  0.1973  0.0090  0.3141
 4784W        W22988   1.241   0.349   1.082  0.1564  0.1455 -0.1350
 4785W        W22989   3.325  11.909   4.856  0.0557 -0.0460  0.3481
 4786W        W22990  13.532  11.550   2.557 -0.3053 -0.1348  0.0522
 4787W        W22991   3.273  17.287  15.361 -0.3174 -0.0497  0.3044
 4788W        W22992   9.025  16.307   3.218 -0.0760 -0.1084  0.0803
 4789W        W22993  13.223   3.007  14.588 -0.4662  0.1790  0.0760
 4790W        W22994  13.444   8.541   5.374  0.0558 -0.2844  0.0137
 4791W        W22995   3.865  16.367   0.824 -0.1652  0.0442 -0.0345
 4792W        W22996   0.356  12.762   5.357 -0.0098 -0.4311 -0.1753
 4793W        W22997  13.197   0.598  16.627  0.0673  0.0145  0.0368
 4794W        W22998  10.391  16.142  15.392  0.0554 -0.3742  0.0726
 4795W        W22999  14.539   0.771   5.006 -0.2029 -0.0830  0.1915
 4796W        W23000  13.411   3.803   4.083  0.1153 -0.3314 -0.0830
 4797W        W23001   3.953   3.778  12.106 -0.2284  0.0013 -0.1281
 4798W        W23002   4.773  13.733   2.063 -0.0211  0.2344  0.2755
 4799W        W23003   7.172  15.147   2.463  0.0311  0.0353 -0.0575
 4800W        W23004   8.333   3.032  13.144  0.0945  0.3990  0.2451
 4801W        W23005   8.286   7.358   4.369 -0.3953 -0.0118 -0.2072
 4802W        W23006  14.670   0.504   3.799  0.1378 -0.0010  0.1731
 4803W        W23007   9.918  15.296   2.076  0.2353 -0.0431 -0.1765
 4804W        W23008  13.882   8.151   1.131 -0.1977  0.1133  0.1743
 4805W        W23009   0.193   3.908  12.499  0.3791 -0.4329  0.1503
 4806W        W23010   5.505  10.003  12.727 -0.1234  0.1112  0.1769
 4807W        W23011   2.466   0.288   2.437  0.0310  0.0431  0.0112
 4808W        W23012   7.219  16.589   0.119  0.4161 -0.2561  0.0434
 4809W        W23013  14.990   2.991  11.935 -0.1218 -0.0414 -0.0789
 4810W        W23014  11.719   1.946  15.306 -0.1148 -0.0978 -0.1494
 4811W        W23015   1.362  13.401   4.006 -0.0712  0.2465  0.0715
 4812W        W23016   7.387  11.066   0.389 -0.0407 -0.2784 -0.1522
 4813W        W23017  12.581   6.053  17.141 -0.1164 -0.0406  0.2998
 4814W        W23018  11.070  10.809   5.328 -0.0138  0.0078 -0.1670
 4815W        W23019   7.042   8.320   3.456  0.0636  0.1509 -0.0633
 4816W        W23020   5.445   5.302   0.649  0.1949 -0.2645  0.1481
 4817W        W23021   2.924  14.464  12.354  0.1629 -0.4624 -0.1329
 4818W        W23022   0.741   0.533   0.427 -0.0087 -0.3838 -0.1266
 4819W        W23023   3.962  13.804   4.874 -0.0877  0.0509  0.0838
 4820W        W23024  11.036   0.503  12.463 -0.1210  0.0921  0.0115
 4821W        W23025  10.053   2.043   4.176 -0.1270  0.1740 -0.0284
 4822W        W23026  13.738   7.276   4.098  0.3307  0.0312  0.3494
 4823W        W23027   9.148   9.432  12.768 -0.2394  0.2613  0.0215
 4824W        W23028  14.606   6.387   1.873 -0.1287 -0.0353  0.2812
 4825W        W23029   6.202  10.349  13.712 -0.2199  0.0253  0.0512
 4826W        W23030   4.052  12.714   1.231 -0.1756 -0.0724  0.1177
 4827W        W23031   6.551   3.295   3.905 -0.1242 -0.0500 -0.1282
 4828W        W23032   6.843   3.383  13.378  0.0736 -0.1527 -0.2745
 4829W        W23033  10.311   5.125  15.449 -0.2333 -0.1556  0.1677
 4830W        W23034   4.000   2.384  16.645 -0.1740  0.0872  0.1559
 4831W        W23035  15.631  15.532   5.173 -0.3456  0.0449 -0.2720
 4832W        W23036  10.704   3.182  14.444  0.1199 -0.3057 -0.2553
 4833W        W23037   2.083  10.724   3.135  0.1593  0.0028  0.0991
 4834W        W23038  16.274  15.560  13.676 -0.2419 -0.2117 -0.3427
 4835W        W23039  17.279   7.991   3.897 -0.0494  0.0517  0.1178
 4836W        W23040   4.713  10.169  14.748 -0.1756  0.1055  0.3169
 4837W        W23041   4.894  11.804   1.153 -0.2908 -0.1753  0.0716
 4838W        W23042  15.112   2.252  15.546  0.0280  0.0172  0.0066
 4839W        W23043  13.986  10.242   2.008  0.0806  0.0674 -0.1188
 4840W        W23044  12.598  10.922  12.409  0.2466 -0.1428 -0.1713
 4841W        W23045  11.512   0.610  12.720 -0.0774 -0.3844  0.1404
 4842W        W23046   6.403  12.304   3.942  0.0804  0.0593  0.1895
 4843W        W23047  13.382   5.897   1.602  0.1717  0.1488 -0.0238
 4844W        W23048  10.835  11.642  12.847 -0.0606 -0.1287  0.3190
 4845W        W23049   8.490   8.428   3.835  0.0128 -0.0316  0.0787
 4846W        W23050  10.912  17.050  16.407  0.1199  0.1368  0.0077
 4847W        W23051  10.753   5.643  16.869  0.1105 -0.1532  0.0921
 4848W        W23052   5.435  15.430  16.774 -0.1233 -0.0267  0.0728
 4849W        W23053  14.143   2.252  16.319  0.3163  0.4052  0.2144
 4850W        W23054   8.046  15.348  12.971 -0.1066  0.0564 -0.1662
 4851W        W23055   0.084   2.405   2.038 -0.0971 -0.0502 -0.0050
 4852W        W23056   5.040   9.578   1.773  0.2052 -0.2265 -0.1582
 4853W        W23057   6.598  14.017  13.868  0.3296 -0.2424 -0.0442
 4854W        W23058   1.750   8.123   0.553 -0.1546 -0.4073  0.0442
 4855W        W23059  11.255  11.483  16.085  0.1829  0.0574 -0.3074
 4856W        W23060   0.828  16.492  13.507  0.0964 -0.0754  0.1410
 4857W        W23061   2.825   6.294   0.055 -0.0429 -0.2075  0.1870
 4858W        W23062  15.988   8.226  14.139 -0.2162  0.2620  0.0984
 4859W        W23063   7.580   7.087   0.284  0.2211 -0.0749  0.0070
 4860W        W23064  14.485  11.108   0.475 -0.1402  0.0155  0.0631
 4861W        W23065  15.303  16.812  12.668  0.1048 -0.0173 -0.0258
 4862W        W23066   4.364   2.426   1.220  0.0982  0.1143  0.1399
 4863W        W23067   1.795  11.891   2.286  0.0080  0.1101 -0.1286
 4864W        W23068  10.577  11.607   4.118 -0.2673  0.1769  0.0048
 4865W        W23069   2.203   3.356   2.818 -0.2985  0.0900 -0.2434
 4866W        W23070   4.843   6.004   1.310  0.1397  0.2645 -0.1602
 4867W        W23071   5.828   8.461  12.099 -0.0333 -0.2725  0.1386
 4868W        W23072  10.958   5.689  13.924  0.1012 -0.2081  0.0084
 4869W        W23073  12.294   7.749  12.593 -0.2676 -0.0509 -0.1292
 4870W        W23074   5.376   2.190   3.437 -0.0610 -0.2160  0.0076
 4871W        W23075   6.694   5.570  14.148  0.0545  0.2922 -0.1899
 4872W        W23076   6.251  12.644   2.192  0.2729  0.1069 -0.2236
 4873W        W23077   2.600   7.964  17.236  0.1002 -0.1557 -0.1306
 4874W        W23078  14.505   7.630   0.378 -0.1390  0.0037 -0.2007
 4875W        W23079   2.253   7.494   4.978 -0.2443  0.0956 -0.3505
 4876W        W23080   5.890  13.952  15.057  0.0278  0.1759  0.0343
 4877W        W23081   7.627   1.409  16.554 -0.0678 -0.0275 -0.0196
 4878W        W23082  13.241  16.996   4.482 -0.3907 -0.2407 -0.2079
 4879W        W23083   5.738   0.858  14.495 -0.0047 -0.0901 -0.3317
 4880W        W23084   8.779   4.581  14.791 -0.1038  0.1535  0.1419
 4881W        W23085  14.775  16.909  15.679  0.2101 -0.2176  0.2167
 4882W        W23086   5.294   3.064   4.738 -0.1132 -0.2500 -0.1564
 4883W        W23087   1.530  16.160   3.630 -0.1815 -0.0469  0.1545
 4884W        W23088   3.231  12.226  13.343  0.0691  0.0707  0.1283
 4885W        W23089   1.197   2.186  16.268 -0.0898 -0.0915  0.0233
 4886W        W23090   8.244   6.333   0.020 -0.0528 -0.1342  0.1100
 4887W        W23091   1.312   7.110  13.581  0.1202  0.1689  0.0030
 4888W        W23092  15.707  13.098  12.385  0.2481  0.2476  0.0706
 4889W        W23093  13.885   2.552  12.572  0.2982 -0.0998  0.0747
 4890W        W23094   6.828  11.449  15.792 -0.0548  0.3230 -0.2805
 4891W        W23095  13.136  14.041  16.275  0.0672  0.0167  0.3473
 4892W        W23096   1.198  11.402  13.888 -0.1721  0.1283 -0.1205
 4893W        W23097  12.805   7.429  12.982 -0.3216  0.0348  0.1245
 4894W        W23098   0.016   7.578  14.464 -0.2164  0.0765 -0.2121
 4895W        W23099  12.736   7.575  16.123 -0.2521 -0.2477 -0.1349
 4896W        W23100   6.332   0.032  14.182  0.0266 -0.3685  0.1280
 4897W        W23101   2.363   3.363   2.085 -0.1512 -0.0947  0.0711
 4898W        W23102  15.041  15.382  15.968  0.3106  0.0937  0.0477
 4899W        W23103   3.425   2.982  17.216 -0.0461  0.0770 -0.0665
 4900W        W23104   0.180   9.453  16.396 -0.0156  0.2776  0.0103
 4901W        W23105  13.609   1.133  16.549  0.2344 -0.3256  0.1051
 4902W        W23106   9.764  16.732  11.919 -0.0509  0.2520  0.2207
 4903W        W23107   5.464  12.832   1.802 -0.3005  0.0906 -0.0233
 4904W        W23108   0.349   3.388   3.989  0.4020 -0.2617  0.0813
 4905W        W23109   7.345  16.912   5.203 -0.1316  0.0237 -0.2218
 4906W        W23110  16.064  12.059  17.279  0.0321 -0.4343 -0.2160
 4907W        W23111  12.485  11.623   3.963  0.0920 -0.0510 -0.0507
 4908W        W23112  13.328   4.829  16.378  0.1233  0.0915 -0.0932
 4909W        W23113  11.842  15.599   1.525  0.0216 -0.4864  0.0937
 4910W        W23114   8.146   4.589   0.437  0.0473 -0.0918 -0.1506
 4911W        W23115   5.735   8.968  14.856  0.1121  0.0806 -0.0682
 4912W        W23116   5.665  10.094   2.802  0.1583 -0.1528 -0.1544
 4913W        W23117  15.046  14.638  16.058  0.3019 -0.0258 -0.1482
 4914W        W23118   3.343   8.461  12.964 -0.0910  0.2945 -0.4831
 4915W        W23119   2.526  13.480  12.552 -0.3264  0.0525 -0.0723
 4916W        W23120   9.578  11.727   2.188 -0.0320  0.2078 -0.5327
 4917W        W23121   3.875   2.071   1.835 -0.0734  0.0715 -0.2203
 4918W        W23122  14.148   2.043   4.958  0.1721 -0.0485 -0.4401
 4919W        W23123   6.532   8.995  13.854 -0.0607  0.0354  0.4005
 4920W        W23124  16.036   4.868  16.241 -0.0022  0.0807  0.2252
 4921W        W23125  17.071  12.486  16.691 -0.0664 -0.2110  0.2136
 4922W        W23126  15.078  10.511   0.803 -0.0851 -0.0023  0.0670
 4923W        W23127   0.026   8.722   0.917 -0.1581 -0.0137 -0.0788
 4924W        W23128  17.303   0.346   4.797 -0.0582  0.0186 -0.1597
 4925W        W23129   1.022   6.387   5.051 -0.0035 -0.0668 -0.3482
 4926W        W23130   3.939   1.037  17.274 -0.2274 -0.0778 -0.1190
 4927W        W23131  16.033   7.377   4.671 -0.2719 -0.2438 -0.2484
 4928W        W23132  12.400  11.659  17.247 -0.2076 -0.0935 -0.2035
 4929W        W23133   2.086  14.097   0.885 -0.1447 -0.1207 -0.0208
 4930W        W23134  12.036   7.770  16.984 -0.0014 -0.0771 -0.0148
 4931W        W23135  16.548   3.003  15.355  0.0611 -0.0407  0.0479
 4932W        W23136  12.006  16.051  13.621  0.0813  0.0687 -0.2036
 4933W        W23137  14.714  14.219  16.077 -0.0966  0.0642  0.3733
 4934W        W23138   3.261  13.947  13.275  0.0490  0.1303 -0.1317
 4935W        W23139  13.509   6.985  12.667  0.1525 -0.1867  0.1349
 4936W        W23140   1.094  13.292   1.294  0.2212  0.1105 -0.2250
 4937W        W23141   7.217   4.832  16.652  0.0250 -0.1341 -0.0580
 4938W        W23142   5.877  10.098  16.983  0.0488 -0.2319  0.0311
 4939W        W23143   8.494   4.456   1.437 -0.0110  0.0454 -0.1105
 4940W        W23144   8.809   3.006   2.509  0.1436  0.2738 -0.2698
 4941W        W23145   8.954   1.071  12.333 -0.1819  0.1927 -0.0748
 4942W        W23146   7.917  11.937   3.945  0.0069  0.1601 -0.1091
 4943W        W23147   8.335  15.821  15.434 -0.0949 -0.3288 -0.0061
 4944W        W23148  11.143   2.907   1.531  0.3185  0.0423 -0.1956
 4945W        W23149   6.660   4.628  13.705  0.0986  0.0869 -0.0707
 4946W        W23150   0.774  10.297   0.325 -0.1721  0.1565 -0.2244
 4947W        W23151   5.409   2.895   2.736  0.3085 -0.0675  0.1941
 4948W        W23152   1.557  15.799   5.567  0.2064 -0.0280  0.1775
 4949W        W23153  15.114   8.527   2.165  0.1556  0.0742 -0.0617
 4950W        W23154  10.172  12.120   3.278  0.3773  0.2132 -0.1565
 4951W        W23155  16.945   9.419   2.593  0.2248  0.0991 -0.0657
 4952W        W23156   9.882  15.970  13.541  0.2275 -0.0416  0.1115
 4953W        W23157   7.527   7.730  17.026 -0.3063  0.0778  0.0586
 4954W        W23158   7.976  17.278  12.745  0.0725  0.0190  0.1164
 4955W        W23159  16.698  11.306   4.567  0.0939  0.2291 -0.1502
 4956W        W23160   0.597   5.176  17.034 -0.0056 -0.0207 -0.0239
 4957W        W23161  13.058   6.874   2.598 -0.0665  0.2375  0.0560
 4958W        W23162  10.466   6.270  14.295  0.0244  0.2128 -0.0637
 4959W        W23163  15.220  14.747   0.657 -0.1191  0.2333  0.1603
 4960W        W23164  14.667   7.860  13.999  0.0188 -0.0854 -0.1516
 4961W        W23165  11.306  15.171   0.841 -0.1600 -0.1122 -0.0532
 4962W        W23166   2.209  16.347  14.842 -0.1719 -0.0231 -0.1042
 4963W        W23167  16.171  10.413  15.368 -0.0721  0.5716  0.0079
 4964W        W23168   4.543   1.212   4.591 -0.1579 -0.1341 -0.0998
 4965W        W23169  10.116   7.239   4.128  0.1254  0.0456 -0.0137
 4966W        W23170   7.769  11.896   2.865  0.1765  0.2241  0.0940
 4967W        W23171  16.033   1.738   1.446  0.0888 -0.1171 -0.1638
 4968W        W23172   7.495   1.195  13.830 -0.1079 -0.2365 -0.2555
 4969W        W23173  11.148  13.152   3.398  0.0825  0.0042  0.2756
 4970W        W23174  12.233   9.159  13.255 -0.2535  0.2051  0.1793
 4971W        W23175  12.632   0.609  13.075 -0.0257 -0.0635  0.0109
 4972W        W23176   4.872   2.764   0.671  0.1518  0.1414 -0.2229
 4973W        W23177   8.684  14.249   2.956  0.1899 -0.0557  0.1375
 4974W        W23178   6.721   8.413   3.958  0.1755 -0.1299  0.0607
 4975W        W23179   3.732   7.585   1.098 -0.1691 -0.0118 -0.1349
 4976W        W23180   1.853  13.706  13.682 -0.2584  0.1485 -0.0433
 4977W        W23181   4.996   8.441  14.503  0.0427  0.2182 -0.1582
 4978W        W23182   5.710   3.258   2.635 -0.1065 -0.0530 -0.0071
 4979W        W23183   7.812   0.314   0.760  0.0752  0.1467 -0.3385
 4980W        W23184  14.234  15.679   4.042  0.1177  0.0931  0.0607
 4981W        W23185  15.404   4.254   5.314 -0.0496 -0.2530 -0.1153
 4982W        W23186  13.114   0.982   4.995  0.1642 -0.1673 -0.1207
 4983W        W23187   9.679  16.761  15.784  0.0287 -0.0446 -0.0177
 4984W        W23188   2.201  12.747   0.742  0.0775  0.0462 -0.0694
 4985W        W23189   3.865   6.932  14.362 -0.2876  0.0506 -0.1445
 4986W        W23190  10.522  16.850  13.271  0.3526  0.1496  0.0185
 4987W        W23191   6.525   4.130   1.307  0.1610 -0.0755  0.1101
 4988W        W23192   7.383   3.742  16.484  0.1633  0.0287 -0.3120
 4989W        W23193  15.990  13.055   5.145 -0.0685  0.2530 -0.1663
 4990W        W23194  15.544  14.375   3.733  0.1094 -0.1866 -0.0700
 4991W        W23195   7.983  16.115  15.809  0.1279 -0.0388 -0.2303
 4992W        W23196  11.310   7.406  16.307 -0.0768 -0.1812 -0.3055
 4993W        W23197   3.069   3.775   3.402 -0.2843  0.0021  0.0890
 4994W        W23198   9.332   4.713   3.661 -0.0710 -0.2156 -0.0727
 4995W        W23199   8.477  15.954  15.948  0.0358 -0.0234 -0.0906
 4996W        W23200  13.942   7.661   4.420 -0.1159 -0.0908 -0.1456
 4997W        W23201   5.720   7.811  17.257 -0.0102  0.1130  0.3634
 4998W        W23202   5.905   4.123   2.387  0.1994 -0.1149 -0.1212
 4999W        W23203  14.663   7.032  16.530 -0.1199 -0.0867 -0.3418
 5000W        W23204   6.379   5.326   0.703  0.1355 -0.0852  0.0948
 5001W        W23205  13.299  13.876  14.985  0.3554 -0.0228  0.0095
 5002W        W23206   6.399   1.681   1.547 -0.2270  0.0134  0.2520
 5003W        W23207  12.604   8.951  15.657 -0.0926 -0.1543 -0.2358
 5004W        W23208  10.855  11.977  14.079 -0.0066  0.0343 -0.0666
 5005W        W23209   5.627   5.859   0.147 -0.0903  0.1113  0.0392
 5006W        W23210   7.953   3.671   4.245 -0.0953 -0.0661 -0.1591
 5007W        W23211   1.774   0.936  16.561 -0.1215 -0.2282 -0.4543
 5008W        W23212   6.609  11.564  17.500 -0.0862 -0.0556  0.0067
 5009W        W23213   4.535  16.713   2.676 -0.1703  0.3019  0.0251
 5010W        W23214   9.783   5.871  15.343  0.3382 -0.1272 -0.1845
 5011W        W23215  17.212   2.247  15.902  0.1531  0.1323  0.0132
 5012W        W23216   4.292   8.186  13.179  0.1948 -0.0019  0.0022
 5013W        W23217  15.277  11.073  16.214  0.1108  0.2049 -0.2200
 5014W        W23218  10.414   1.497  16.702 -0.3028 -0.3680  0.0355
 5015W        W23219  16.812   2.868   4.831 -0.2828  0.1116 -0.1771
 5016W        W23220   2.994   2.533  15.563  0.1814 -0.1165 -0.2192
 5017W        W23221   4.520  14.123  14.490 -0.2128 -0.1632  0.2836
 5018W        W23222   5.680  16.472   4.719 -0.2398  0.2803 -0.1149
 5019W        W23223   4.705   7.144  15.043  0.1245 -0.2728 -0.2907
 5020W        W23224  16.549   8.459  14.067 -0.0405 -0.2150  0.0781
 5021W        W23225   0.934  11.610   1.818  0.2158 -0.0254 -0.2941
 5022W        W23226   8.360  15.002  15.944  0.1197 -0.1850  0.0200
 5023W        W23227   1.979  15.551  15.761  0.1858  0.0513  0.2594
 5024W        W23228   9.470  14.559  17.297  0.1110 -0.0427  0.3089
 5025W        W23229  12.266   9.989  15.285  0.1116  0.3879  0.1714
 5026W        W23230  16.680   8.395   5.174  0.1850 -0.2600 -0.1718
 5027W        W23231  16.147  12.204  15.778 -0.0940  0.1722 -0.0580
 5028W        W23232   7.726  13.199   2.983 -0.2473 -0.0508 -0.1838
 5029W        W23233  14.281   2.840   5.912 -0.0553  0.1290 -0.3704
 5030W        W23234  16.202   2.790  13.350  0.0734  0.1321 -0.0033
 5031W        W23235  13.166  11.360  17.363  0.0478  0.3845  0.1667
 5032W        W23236   1.576   9.558   2.766  0.0043  0.1493  0.0591
 5033W        W23237   5.273   4.284  14.705  0.1051  0.1640 -0.0548
 5034W        W23238   4.093   8.475  14.173 -0.0549  0.1081  0.0595
 5035W        W23239   9.946  14.096  13.958 -0.2163  0.0612  0.3040
 5036W        W23240   2.179   6.048   4.492  0.1627 -0.0600 -0.1448
 5037W        W23241   6.222   9.214  17.048  0.1210 -0.1899 -0.2261
 5038W        W23242  13.783   0.652   0.915  0.1862  0.0473  0.0667
 5039W        W23243  14.975   1.804   0.528 -0.0626  0.1495 -0.0118
 5040W        W23244   7.384  14.819   2.024  0.3271 -0.3505 -0.1501
 5041W        W23245  12.849  13.206  13.618 -0.0599 -0.1324 -0.0114
 5042W        W23246  13.914   1.589   0.447  0.2752 -0.1079 -0.3635
 5043W        W23247  14.082   8.870   6.246  0.1862  0.2683  0.3110
 5044W        W23248  16.528   7.446  12.949  0.1981 -0.1479 -0.1193
 5045W        W23249   7.356   6.248   0.899 -0.0340 -0.3405 -0.1440
 5046W        W23250   6.140  15.556   0.922  0.0693  0.0706 -0.2211
 5047W        W23251  13.954   3.813  12.449  0.2014  0.1509  0.0451
 5048W        W23252  13.710   7.465   1.310 -0.1396  0.1428 -0.2464
 5049W        W23253  14.136   2.936  14.287 -0.1514  0.0274  0.0758
 5050W        W23254  12.137  10.379   4.728  0.1545 -0.0977 -0.3351
 5051W        W23255   9.598   3.236  12.626 -0.1685 -0.0824  0.1242
 5052W        W23256  13.292   8.601   3.520  0.0345  0.0151  0.2542
 5053W        W23257  15.541   7.592   4.700  0.0805 -0.2843  0.0760
 5054W        W23258   4.538  10.152   5.174 -0.2652 -0.4653  0.3229
 5055W        W23259   1.542  15.524   1.443 -0.1639  0.1857 -0.2990
 5056W        W23260  16.706   2.050   0.712 -0.0000  0.2866 -0.0971
 5057W        W23261   0.405  15.131   2.475 -0.0562 -0.0501 -0.0875
 5058W        W23262   8.299  16.189  13.172 -0.0010 -0.0559 -0.0155
 5059W        W23263   6.916   6.043   1.341  0.0224  0.0378 -0.0270
 5060W        W23264   7.271   1.344   1.933 -0.0182  0.0270  0.1659
 5061W        W23265   3.493   5.945  13.479 -0.1680  0.1457  0.1213
 5062W        W23266  15.399   6.450   3.745  0.0930 -0.0935  0.2262
 5063W        W23267  16.594   4.328  15.640 -0.0890 -0.0950  0.1469
 5064W        W23268   4.132   6.740   5.251 -0.0095 -0.0993  0.0781
 5065W        W23269   9.827   1.686   4.721  0.0654 -0.0582 -0.0419
 5066W        W23270   0.558   5.890  17.106 -0.2363 -0.2074  0.0724
 5067W        W23271  12.831   2.702  14.475 -0.4401  0.1446 -0.0488
 5068W        W23272  17.181   0.551  14.850  0.2385  0.0792  0.1778
 5069W        W23273   4.143  14.456   0.442  0.1014  0.0330  0.1912
 5070W        W23274  15.378  13.538   0.712 -0.0652 -0.1370 -0.1300
 5071W        W23275   9.144  14.018  13.463 -0.1043 -0.1414  0.0859
 5072W        W23276   5.172  10.778   3.721 -0.1929 -0.2649  0.2221
 5073W        W23277   0.105  15.464   5.084  0.1999  0.1114 -0.0860
 5074W        W23278  17.246  15.585   4.626 -0.0404 -0.1924  0.3817
 5075W        W23279  11.106  11.582  13.223  0.0048  0.6480 -0.0440
 5076W        W23280   0.253   8.277   5.061  0.1958  0.2008  0.2202
 5077W        W23281   4.264  13.989   2.619  0.1948  0.0006  0.2088
 5078W        W23282   5.589   0.526   0.116  0.1364  0.1123  0.1732
 5079W        W23283   2.814   4.583   4.477 -0.1696 -0.1130  0.0628
 5080W        W23284  10.842   2.416  12.204  0.0559  0.0650 -0.0526
 5081W        W23285  11.705   4.002  12.739 -0.1019  0.4312  0.1880
 5082W        W23286  14.599  16.311   4.515  0.1961  0.0328  0.0985
 5083W        W23287   2.440   8.730  14.833  0.1296  0.2927  0.1966
 5084W        W23288  11.397   8.147   1.408  0.1509  0.0778 -0.2373
 5085W        W23289   9.182   8.330   1.769 -0.1268 -0.0543 -0.0453
 5086W        W23290   8.162   7.223  13.647 -0.0561  0.0458 -0.1765
 5087W        W23291  16.625   5.017   1.289 -0.2066 -0.0054  0.0317
 5088W        W23292  16.788   2.343  16.910  0.2508 -0.2203 -0.1113
 5089W        W23293   6.210   1.567  13.821 -0.0009 -0.0287  0.1700
 5090W        W23294   9.435  11.260   5.448 -0.1682 -0.1291 -0.0875
 5091W        W23295  11.526   3.091  12.260  0.0185 -0.0878  0.1640
 5092W        W23296  16.046  10.551   2.812  0.2914  0.0768  0.0730
 5093W        W23297   5.909  15.624   5.277  0.1690 -0.0111  0.0508
 5094W        W23298  10.753  15.993  13.754 -0.0549  0.1205 -0.0275
 5095W        W23299  10.283   0.386   2.847 -0.0961 -0.0504  0.1143
 5096W        W23300   0.324   3.479  15.023  0.0159  0.0791  0.3400
 5097W        W23301  17.197   4.412  14.261 -0.0428  0.0609  0.1662
 5098W        W23302  17.264   4.861   3.737  0.1843 -0.0823  0.1638
 5099W        W23303   9.953   0.037  15.437  0.0540 -0.1598 -0.2631
 5100W        W23304  15.760   6.496   2.782 -0.0038 -0.0807  0.1449
 5101W        W23305   7.060  11.856   0.109 -0.0210  0.2189 -0.1086
 5102W        W23306   1.773   5.517   3.500  0.0188  0.0554  0.1032
 5103W        W23307   1.801  16.711  16.728 -0.1825  0.2770  0.0713
 5104W        W23308   7.963  16.316  13.557  0.0781  0.0068 -0.2145
 5105W        W23309  15.457  16.599   1.674 -0.0603  0.0821  0.0837
 5106W        W23310   4.626  11.321   0.304 -0.1757 -0.2826  0.0488
 5107W        W23311  15.672   4.174   1.651 -0.2183  0.0341 -0.2339
 5108W        W23312   2.330  16.761  13.656 -0.2212  0.1493  0.4092
 5109W        W23313   0.889   1.932  11.508 -0.0957 -0.1155  0.1156
 5110W        W23314   1.523   3.328   0.772 -0.1820 -0.1264 -0.1177
 5111W        W23315   2.377   9.786  15.830  0.2656  0.0831  0.0096
 5112W        W23316  16.658  17.139  12.540  0.0142 -0.2431  0.0983
 5113W        W23317  10.819   4.856  14.030 -0.2845 -0.0803  0.2565
 5114W        W23318  15.842   9.927  15.218 -0.0515  0.0986  0.1971
 5115W        W23319   7.243  10.709   4.004 -0.0068 -0.1554 -0.1545
 5116W        W23320   4.282   6.092   0.190 -0.0514  0.0152 -0.2521
 5117W        W23321  14.759  14.247   1.728  0.2131 -0.1434  0.3113
 5118W        W23322   0.662   9.208   0.528  0.4222  0.1641  0.1438
 5119W        W23323   8.809  13.673  13.093  0.3123  0.0224  0.0748
 5120W        W23324   9.901  16.831   3.902  0.0536 -0.0186  0.0841
 5121W        W23325   7.398  16.150   2.655  0.0028 -0.1267 -0.0246
 5122W        W23326  15.189   5.338  16.764 -0.1789  0.0504  0.0284
 5123W        W23327   6.652   5.582  16.339  0.0651 -0.0481 -0.0889
 5124W        W23328   6.952   5.151  16.133 -0.1824  0.0977  0.1070
 5125W        W23329   4.651   1.697  13.100  0.0690  0.2052 -0.2757
 5126W        W23330  12.422  10.925   4.093  0.0000 -0.0199  0.0450
 5127W        W23331   2.088  10.005  12.266  0.2870 -0.2065 -0.7058
 5128W        W23332   9.062   8.243   4.357 -0.4498 -0.4181 -0.0373
 5129W        W23333   4.380  16.046  16.226 -0.3197  0.3310  0.2106
 5130W        W23334   2.221   6.722   1.520 -0.1103 -0.1071  0.1175
 5131W        W23335   7.493   4.842   2.808 -0.2428 -0.2014 -0.1313
 5132W        W23336  16.698   1.967   5.642 -0.4843 -0.0343  0.1245
 5133W        W23337  15.614   0.065  15.839 -0.0753 -0.0768 -0.2821
 5134W        W23338  14.849  11.037  14.117 -0.0882 -0.1259  0.2502
 5135W        W23339   0.147   7.197   1.328  0.1324  0.2056  0.0746
 5136W        W23340  15.148  14.416   2.111  0.0321  0.2157  0.0745
 5137W        W23341  11.118   5.039   0.533 -0.0299  0.0008  0.4385
 5138W        W23342   2.886   1.039  13.196 -0.0353 -0.0845 -0.0582
 5139W        W23343  11.192  11.432   4.958 -0.1280  0.2112  0.0045
 5140W        W23344   2.081   8.178   0.964  0.2025  0.0805  0.1026
 5141W        W23345   6.986  12.195   4.849 -0.1745  0.1050 -0.0570
 5142W        W23346   1.699  14.483   1.797  0.4128  0.2525  0.1409
 5143W        W23347  13.468   7.920  11.210  0.1252 -0.0628  0.0292
 5144W        W23348  13.840   1.969  16.562 -0.1428  0.0479  0.3639
 5145W        W23349  11.793   4.823  14.670  0.1446 -0.1466  0.1837
 5146W        W23350   7.324   5.666  12.273 -0.4410  0.1129  0.1177
 5147W        W23351   8.843   0.279   4.556  0.0381 -0.3206  0.1386
 5148W        W23352   9.041   1.475   0.346 -0.1344  0.1298 -0.2822
 5149W        W23353   0.693  13.123  14.274 -0.1272 -0.1509 -0.3573
 5150W        W23354   8.755   0.451   4.003 -0.3288 -0.2391  0.2455
 5151W        W23355  12.664  12.096  13.314  0.1161 -0.2024  0.4856
 5152W        W23356   8.798   8.755   1.675  0.0619  0.0815 -0.0125
 5153W        W23357  11.416   5.297   0.227  0.6158  0.1822 -0.0815
 5154W        W23358   3.289   6.567   3.115 -0.0207  0.0325  0.1743
 5155W        W23359   6.519   3.536   2.844  0.0324  0.2610  0.0638
 5156W        W23360   9.761   8.245  12.953  0.0387 -0.1491 -0.0725
 5157W        W23361  10.768   0.441   1.381  0.1201 -0.0566 -0.0038
 5158W        W23362  12.640  12.857  14.535 -0.0652  0.1101  0.0057
 5159W        W23363   6.540  10.069   5.473 -0.1916  0.1792  0.0287
 5160W        W23364  10.964  16.176   0.002  0.0651 -0.0566 -0.1924
 5161W        W23365   0.318  10.686   5.557 -0.2351  0.2278 -0.0493
 5162W        W23366   7.544  14.746  12.930 -0.0152  0.1664  0.0757
 5163W        W23367   4.863   3.359  15.228  0.4267 -0.0622 -0.0385
 5164W        W23368  14.581   3.610  13.061  0.1249  0.2175 -0.1805
 5165W        W23369   9.525   3.290   0.469  0.1629 -0.4253  0.0985
 5166W        W23370  13.482  12.106   4.936 -0.1434  0.4662  0.3713
 5167W        W23371   7.951  12.778  12.739  0.1077  0.2039 -0.1491
 5168W        W23372   7.241   5.766   3.726 -0.0478  0.2840 -0.1758
 5169W        W23373   2.045   9.737   5.617 -0.0906 -0.2204  0.0297
 5170W        W23374   2.272   7.271  15.167 -0.2405 -0.3046 -0.0676
 5171W        W23375   1.823  15.524  13.586  0.1117  0.0134  0.2548
 5172W        W23376  12.243  12.896   0.237 -0.1482 -0.0403 -0.2301
 5173W        W23377   3.835  10.790  14.529 -0.0321  0.2803 -0.1729
 5174W        W23378   3.086  12.493  15.895  0.2266 -0.2938  0.1739
 5175W        W23379   7.441  11.440  13.424 -0.0737 -0.0635 -0.0215
 5176W        W23380   9.576  11.199  11.840 -0.0358  0.1930 -0.0164
 5177W        W23381  15.867   9.033   5.347  0.2138 -0.2643 -0.1071
 5178W        W23382  16.542   4.301  12.459  0.0897 -0.0083  0.0115
 5179W        W23383   7.740   1.144   1.656  0.1508  0.0697  0.0409
 5180W        W23384   9.031  15.266   0.735  0.4258 -0.1874 -0.0162
 5181W        W23385   7.824   4.309  14.906  0.3114  0.1538  0.0757
 5182W        W23386  13.224   5.729  14.560  0.0103 -0.1418 -0.2495
 5183W        W23387   4.467   5.203  12.986 -0.0628 -0.1796  0.0120
 5184W        W23388  10.986   9.745   4.419  0.4460  0.1553  0.0302
 5185W        W23389  15.536   9.345   1.629  0.0768 -0.0070  0.0050
 5186W        W23390  15.280  13.616   4.658  0.1087 -0.3177  0.1339
 5187W        W23391   4.834   8.508   5.288 -0.0066 -0.1106  0.1465
 5188W        W23392  14.838  13.275   0.156  0.3163  0.1034  0.0866
 5189W        W23393  16.520  17.209  14.639  0.1112 -0.1721 -0.1880
 5190W        W23394  11.058   9.108  12.406 -0.3721 -0.0402  0.0894
 5191W        W23395  16.196   2.243   0.096  0.1356 -0.1318 -0.0895
 5192W        W23396   9.665   2.199  16.504 -0.0918 -0.4642 -0.0055
 5193W        W23397   0.268   6.289   1.601 -0.2290  0.2417  0.0200
 5194W        W23398   2.398   1.822  15.767  0.1917  0.0713  0.4011
 5195W        W23399   7.696   9.299   1.093 -0.0789  0.1308  0.0064
 5196W        W23400   5.518   9.711   4.356 -0.0087 -0.1432 -0.1197
 5197W        W23401   7.493  13.471  12.863 -0.0813  0.2698  0.1342
 5198W        W23402   5.231  15.455  16.312  0.1023 -0.3036 -0.3414
 5199W        W23403   2.373   2.495   1.773  0.0683 -0.1954  0.2327
 5200W        W23404   2.916  14.203  15.212 -0.3286  0.0661  0.0859
 5201W        W23405   8.440   5.096  17.103 -0.1429  0.3213  0.0034
 5202W        W23406   6.799   8.011  13.755  0.0564  0.0486  0.2375
 5203W        W23407   1.908  10.331   2.188 -0.0611 -0.1601  0.1916
 5204W        W23408   0.282   5.641  15.739  0.1803 -0.1534 -0.2505
 5205W        W23409   6.828  13.274   0.141  0.0033  0.1038  0.1197
 5206W        W23410  11.769   7.513  16.651  0.1016 -0.0420 -0.3373
 5207W        W23411   8.478   9.658  16.282  0.1192  0.0519 -0.0759
 5208W        W23412  11.496  13.643   4.075 -0.2315  0.0314 -0.4597
 5209W        W23413   2.143  17.036  16.610  0.4481 -0.0026  0.1758
 5210W        W23414  10.342   6.082   0.596  0.0072 -0.5073 -0.1694
 5211W        W23415   7.594   9.756   4.649 -0.0427  0.0841  0.0629
 5212W        W23416   2.735   4.062   1.552 -0.0515  0.0191  0.2480
 5213W        W23417   3.715   9.282   4.121 -0.0683  0.2029  0.2004
 5214W        W23418  14.766   2.059   3.713  0.0266 -0.0407 -0.1134
 5215W        W23419  13.030   8.572  16.211 -0.0893 -0.1383  0.0112
 5216W        W23420   0.011   3.622  15.657  0.1040  0.0984  0.1277
 5217W        W23421   8.980  11.435   5.437  0.1850 -0.1306  0.0511
 5218W        W23422  17.033  15.386   5.630 -0.2480  0.0838  0.0564
 5219W        W23423  16.227  17.039  16.429  0.0900  0.1954 -0.1050
 5220W        W23424   3.661  12.963  17.261  0.0602 -0.2796 -0.1929
 5221W        W23425   6.539   8.044  16.644  0.2102 -0.1022 -0.1679
 5222W        W23426   6.779  10.420  15.096  0.3408  0.2362  0.3081
 5223W        W23427  12.982  12.527  13.279 -0.0249  0.2751  0.0452
 5224W        W23428  11.069  17.115  15.886  0.2913  0.0387 -0.2272
 5225W        W23429  10.200  16.804   4.982  0.3692  0.1463 -0.1829
 5226W        W23430   2.796   4.666   0.827  0.1642  0.0769  0.1296
 5227W        W23431   6.071   8.856  16.728  0.3529  0.3418  0.0381
 5228W        W23432   1.991  12.825  16.950  0.4429 -0.2076 -0.0438
 5229W        W23433  15.806  14.128  14.923  0.1516  0.0425  0.0749
 5230W        W23434   5.845   2.792   2.425  0.1868  0.1283  0.0778
 5231W        W23435   7.346  11.377   2.046 -0.1401 -0.0787 -0.3462
 5232W        W23436  16.802  15.130   5.281  0.1121 -0.1551 -0.2126
 5233W        W23437   3.748   3.679   5.166 -0.2719 -0.1757  0.1011
 5234W        W23438  11.192  10.760   3.289  0.1515 -0.0654  0.1116
 5235W        W23439  10.673  14.871  17.288 -0.2612  0.1256 -0.0112
 5236W        W23440   6.431   8.881   4.196  0.1354 -0.0635 -0.0802
 5237W        W23441  16.042   7.376  17.330 -0.2603 -0.3617 -0.1980
 5238W        W23442   0.640   0.188  14.505 -0.4561 -0.2283 -0.0467
 5239W        W23443  13.099   1.785  13.886 -0.1298  0.1521 -0.1495
 5240W        W23444  16.656   9.730  14.683 -0.0846 -0.1623 -0.2138
 5241W        W23445   2.353   6.278   2.952  0.5239  0.1180 -0.2555
 5242W        W23446   7.672   2.131  13.052  0.0369  0.1779  0.0933
 5243W        W23447   5.097  10.007  14.478 -0.0911 -0.1509 -0.0843
 5244W        W23448   4.614   4.200   0.759  0.0605 -0.0858  0.0299
 5245W        W23449  10.163  10.208  14.400  0.1020  0.3978  0.3295
 5246W        W23450   6.639   0.511   4.628  0.1388 -0.0619 -0.2044
 5247W        W23451  10.471   1.876  15.468  0.0382  0.3774 -0.2822
 5248W        W23452   9.119   6.130   4.774 -0.0941  0.0849 -0.0866
 5249W        W23453  12.766   9.159   4.163 -0.1398 -0.0228 -0.0460
 5250W        W23454  15.169  12.950   5.369  0.1741 -0.1191 -0.0129
 5251W        W23455   4.928   9.647   0.617  0.0813  0.0772 -0.0059
 5252W        W23456   3.767   7.778   0.535 -0.0800  0.0265  0.0433
 5253W        W23457   6.677  11.040  16.205 -0.0479  0.0866  0.0274
 5254W        W23458  15.934   5.059   3.893  0.1329 -0.4626 -0.0565
 5255W        W23459   8.048   6.409  12.148  0.1166 -0.0287 -0.2576
 5256W        W23460   0.055  16.699  14.508  0.0415  0.1253  0.0087
 5257W        W23461  14.262  15.954   2.359  0.1677  0.3188 -0.0930
 5258W        W23462   7.290   1.830   0.511  0.1749 -0.0005  0.1688
 5259W        W23463  15.009   6.796  14.652 -0.2697 -0.0539  0.1303
 5260W        W23464   8.450   7.204  16.756  0.0928 -0.0892 -0.1179
 5261W        W23465   3.937   7.469   4.229 -0.1929 -0.0525 -0.2716
 5262W        W23466  16.835  14.220   3.305 -0.1362 -0.0382  0.0974
 5263W        W23467   4.856   0.341  12.109  0.1620  0.3537  0.1417
 5264W        W23468   4.496   3.764   3.540 -0.2674  0.0395  0.6118
 5265W        W23469   1.290   3.451   2.878  0.1752 -0.0657  0.1270
 5266W        W23470  15.880  12.646  13.692  0.0448 -0.2501 -0.0404
 5267W        W23471   1.856   9.187   3.114  0.0117  0.2497  0.0764
 5268W        W23472  10.135   0.043  11.929  0.2247 -0.1261 -0.0657
 5269W        W23473  14.265   2.781  12.851  0.1564 -0.1820 -0.0982
 5270W        W23474   5.387  12.034  17.402 -0.2977  0.0951  0.2299
 5271W        W23475  15.480  13.129   2.614 -0.0536 -0.0020 -0.1949
 5272W        W23476   5.010   4.155  15.713  0.2572 -0.0318  0.0373
 5273W        W23477   0.999   4.863  13.858 -0.2027 -0.0487  0.4621
 5274W        W23478   4.705  10.038  16.597  0.0486  0.1762 -0.0028
 5275W        W23479  16.131   3.121   3.066  0.1273 -0.2655  0.0657
 5276W        W23480  15.662   3.781  14.055  0.0057 -0.0545  0.2306
 5277W        W23481  17.289   2.062   4.567 -0.0571  0.1003  0.1849
 5278W        W23482  14.770  16.953  15.184 -0.0694  0.1555 -0.0120
 5279W        W23483   2.430  10.036   3.623 -0.0485  0.0905  0.2472
 5280W        W23484   2.855  16.358   2.082 -0.0688 -0.1243  0.0280
 5281W        W23485   1.663   9.097  14.664  0.0551  0.2759  0.0127
 5282W        W23486  15.554  15.320   2.017 -0.3767 -0.1574  0.0101
 5283W        W23487   5.950   1.365   4.204 -0.2278  0.0285 -0.0395
 5284W        W23488   6.553   5.604  13.517 -0.0677 -0.0680 -0.1754
 5285W        W23489   4.280   8.836  14.949  0.0682 -0.1250 -0.1320
 5286W        W23490   6.927  11.716  17.192 -0.3861 -0.1334 -0.0760
 5287W        W23491  16.500  14.339   3.728  0.0202  0.0229 -0.0766
 5288W        W23492  11.807  17.002  16.074  0.2182  0.1056 -0.0465
 5289W        W23493   8.624  15.405   0.511  0.0433 -0.3857 -0.0661
 5290W        W23494   9.347   3.751   0.709  0.0574 -0.4594  0.3222
 5291W        W23495   1.577   8.220  12.295 -0.0484 -0.2786  0.1974
 5292W        W23496   7.922   0.440   4.775  0.2798  0.0337  0.1336
 5293W        W23497  10.536  13.102   2.539 -0.0700  0.0098 -0.0237
 5294W        W23498  10.315   0.784  15.086 -0.2870  0.0246 -0.0858
 5295W        W23499  14.275  14.286   3.722 -0.2833  0.1982 -0.0580
 5296W        W23500  10.287   9.820  12.190 -0.1591 -0.0466  0.2117
 5297W        W23501   0.453   6.481   2.439  0.0956 -0.0447  0.0516
 5298W        W23502   5.276   9.317   0.815 -0.1806  0.1449  0.0518
 5299W        W23503   9.451  15.987   1.941 -0.0685  0.0987  0.0630
 5300W        W23504   7.592  11.411  16.364  0.1864  0.1334 -0.2069
 5301W        W23505  16.575  15.620   2.026  0.1143  0.2575  0.0637
 5302W        W23506  11.179   1.488   4.970  0.4395  0.0786  0.1321
 5303W        W23507   4.167   7.525   4.754  0.2282  0.0438 -0.0884
 5304W        W23508   4.653   1.475  14.781  0.1879 -0.0299 -0.0224
 5305W        W23509   3.345  14.298   1.702  0.0920  0.1625 -0.0777
 5306W        W23510  13.782   0.850   3.595  0.1133 -0.3372  0.0555
 5307W        W23511  14.941  15.893   2.273 -0.0695  0.0771 -0.1321
 5308W        W23512   3.543  16.215  17.458 -0.0761 -0.0896  0.1567
 5309W        W23513  14.519   9.421  16.221 -0.2191  0.2530  0.2327
 5310W        W23514  12.691  11.396  16.933 -0.0494 -0.1577  0.3178
 5311W        W23515   8.558  11.977  15.306  0.2596 -0.1251 -0.1624
 5312W        W23516   3.296   7.223   1.261 -0.0208 -0.2346  0.1914
 5313W        W23517   8.970   1.800  15.927 -0.1707  0.2953  0.1245
 5314W        W23518  13.696   1.163   1.897 -0.0056 -0.1804 -0.0444
 5315W        W23519   9.489  15.196  15.991  0.2961 -0.1326  0.3874
 5316W        W23520   5.708  17.101   2.688 -0.0033 -0.1636 -0.0657
 5317W        W23521  12.080   5.336   5.947  0.2197 -0.1769  0.2514
 5318W        W23522   0.254   5.012   0.728 -0.1151 -0.3511  0.0901
 5319W        W23523  10.987   5.534   4.414  0.2060  0.1730 -0.0183
 5320W        W23524  14.168  15.636  13.648  0.1334  0.0449 -0.0460
 5321W        W23525   7.079   5.648   2.424 -0.3354 -0.2193 -0.1193
 5322W        W23526  16.710  15.623  14.399 -0.0542 -0.0242 -0.1516
 5323W        W23527  10.906  16.350   4.635  0.0110 -0.2655 -0.1806
 5324W        W23528  10.341   6.004  13.106 -0.0095 -0.1247  0.1505
 5325W        W23529   0.996  17.042  15.090  0.3213  0.0272  0.0411
 5326W        W23530  16.765  16.811  11.267  0.0499  0.0076  0.1679
 5327W        W23531  14.803   7.024  16.000  0.0375 -0.0716  0.0616
 5328W        W23532   4.372   1.414  15.763 -0.4796 -0.1157  0.0223
 5329W        W23533  11.256   8.197  17.197 -0.0855  0.0242 -0.1075
 5330W        W23534   5.228  10.592  17.497 -0.2840  0.0800  0.0088
 5331W        W23535   8.461   4.170   1.893 -0.3052 -0.2477 -0.1679
 5332W        W23536  12.675   6.394   2.089  0.2742 -0.0273 -0.0831
 5333W        W23537   9.141   2.864  17.023 -0.0400  0.0055 -0.1659
 5334W        W23538   1.375  16.394   1.549 -0.0363  0.1269 -0.0822
 5335W        W23539  11.874   6.809   0.054 -0.2304  0.3278 -0.0854
 5336W        W23540  16.353   0.508   5.072  0.3240 -0.0824  0.1087
 5337W        W23541   0.427   2.629  12.599 -0.0320  0.2641 -0.1027
 5338W        W23542  16.096  11.780   0.951  0.0130  0.2290 -0.3112
 5339W        W23543   3.008   5.549   0.441  0.1111  0.0243  0.0434
 5340W        W23544   3.078  13.038  15.237 -0.0216 -0.0749 -0.1011
 5341W        W23545   6.990  10.942   4.385 -0.0894  0.1139 -0.1236
 5342W        W23546   7.340   4.647   2.370 -0.0116 -0.0833  0.0410
 5343W        W23547   7.083   2.897  16.851  0.2943 -0.1912 -0.0022
 5344W        W23548   5.701   1.275  17.279  0.2305  0.2075  0.0847
 5345W        W23549  16.604  10.469  13.308 -0.1429  0.2631 -0.0196
 5346W        W23550   4.546   3.352   1.317 -0.0468 -0.2741  0.1045
 5347W        W23551   5.977   9.770  15.577 -0.2928  0.1711 -0.0554
 5348W        W23552  15.161  15.972  12.584  0.2012  0.0986  0.0916
 5349W        W23553  11.242   0.447   2.741 -0.2151  0.1258  0.0245
 5350W        W23554   8.897   7.966   0.915  0.1860 -0.0729 -0.3561
 5351W        W23555  14.222  13.412  16.421  0.0118 -0.1155 -0.1551
 5352W        W23556   1.853  12.576   4.840 -0.1710  0.1998 -0.0082
 5353W        W23557   7.732   2.884   4.685 -0.2805  0.3269 -0.1713
 5354W        W23558  10.982   4.585  17.391 -0.0775  0.2791  0.0786
 5355W        W23559   8.989  15.163  12.420  0.3658 -0.0858  0.1709
 5356W        W23560   5.915   4.105   1.352  0.3739  0.2779 -0.1458
 5357W        W23561   0.108   3.686   0.825 -0.0814 -0.0011  0.1173
 5358W        W23562  12.487  16.301  14.501 -0.3180  0.0912 -0.3035
 5359W        W23563  13.155  10.944  14.921  0.1183 -0.2437 -0.0933
 5360W        W23564   3.618  14.124  17.021 -0.1662  0.0828 -0.2021
 5361W        W23565  13.328   9.390  12.234  0.2182 -0.1560 -0.1214
 5362W        W23566   5.856  10.942  15.293 -0.0067 -0.0581  0.0265
 5363W        W23567  14.851   7.944  16.520  0.1813 -0.1158 -0.1302
 5364W        W23568   8.500   2.103  14.637 -0.2066 -0.3324  0.0759
 5365W        W23569   1.935  16.513  14.476  0.1062 -0.0775 -0.2188
 5366W        W23570   9.765  10.194   4.025 -0.3320 -0.5119  0.0877
 5367W        W23571  14.386  12.431   1.694  0.3112 -0.3181  0.0151
 5368W        W23572   7.963  17.271   3.547 -0.1735  0.1110  0.0657
 5369W        W23573  16.128   6.266   5.245 -0.2193 -0.3245 -0.1751
 5370W        W23574  15.467   3.118  15.377  0.0032  0.0413 -0.2601
 5371W        W23575   3.455  10.185   3.415 -0.2862  0.1859  0.1441
 5372W        W23576  10.744  11.708   4.711  0.0234  0.0203  0.0142
 5373W        W23577  14.493   5.763  17.404 -0.0885  0.1371 -0.0344
 5374W        W23578   5.624  10.633   5.442  0.0369  0.2227  0.3088
 5375W        W23579   5.188   4.580  16.010  0.0742  0.0835 -0.1104
 5376W        W23580   5.623   6.970  16.105  0.0444  0.0418  0.2443
 5377W        W23581  13.435  15.734   0.087 -0.2137  0.3258  0.2529
 5378W        W23582   6.444   0.640   3.970  0.0588  0.4515  0.0942
 5379W        W23583  13.142   4.856  15.456  0.1304 -0.3541  0.0134
 5380W        W23584   3.021   2.506  13.377  0.0644  0.0491 -0.1181
 5381W        W23585  12.302   1.740   0.146  0.0655 -0.4052  0.2478
 5382W        W23586  13.599   1.514   4.357 -0.2890 -0.2014  0.1798
 5383W        W23587   9.669   6.332  17.255 -0.0192  0.2904  0.1036
 5384W        W23588  17.079   5.893  16.051  0.2441  0.1694  0.1847
 5385W        W23589   4.116   1.821  15.867 -0.1685 -0.1636 -0.1683
 5386W        W23590  15.607   9.750   3.024  0.3629 -0.1742 -0.0994
 5387W        W23591   4.389   7.745  15.782 -0.1093 -0.0698 -0.0960
 5388W        W23592   2.444   7.583   0.491 -0.0629  0.1792 -0.1566
 5389W        W23593   8.152  12.316   0.761 -0.0279 -0.1184 -0.1055
 5390W        W23594  11.899  16.388   0.073 -0.1290 -0.0954  0.4987
 5391W        W23595   8.509   4.540  12.124  0.0318 -0.0244 -0.0088
 5392W        W23596   8.471  16.368  16.476 -0.2286 -0.2001 -0.0682
 5393W        W23597   3.562  10.675  14.917  0.1639 -0.0560 -0.1928
 5394W        W23598  13.003   7.761  15.595 -0.0200 -0.0064 -0.0754
 5395W        W23599   3.902  10.489  12.713 -0.0453 -0.2028 -0.1091
 5396W        W23600  13.319  13.128   2.140 -0.2310 -0.0371  0.1210
 5397W        W23601   0.879   6.288   4.538 -0.2111  0.2076 -0.0581
 5398W        W23602  14.961   4.922  17.054  0.0616  0.0908 -0.2057
 5399W        W23603  10.690   3.313   0.423  0.0359 -0.0080 -0.0931
 5400W        W23604   5.638  16.637  13.332  0.0872  0.0349 -0.0904
 5401W        W23605   2.535  14.936   5.101 -0.1425 -0.2004  0.1578
 5402W        W23606   5.210   0.212   4.858  0.0440  0.1633  0.0709
 5403W        W23607   5.783  12.359  15.099  0.1561 -0.0028  0.0431
 5404W        W23608  14.428  12.083   4.988 -0.3088  0.3226 -0.1479
 5405W        W23609  16.116  17.035  17.170  0.1535  0.1857 -0.1205
 5406W        W23610  13.482   4.872   1.713 -0.3563 -0.0442 -0.0238
 5407W        W23611  10.022   7.043   1.311  0.2078 -0.0707  0.2784
 5408W        W23612  14.535   6.772  13.085  0.0494 -0.0605 -0.0720
 5409W        W23613  11.880   2.271  12.569 -0.2060  0.4692 -0.2530
 5410W        W23614  15.006  16.162  13.724  0.0632 -0.3813 -0.0269
 5411W        W23615   1.135   4.431  15.719  0.2760  0.0894  0.1350
 5412W        W23616  13.454   0.266  16.263  0.0799 -0.5632  0.1186
 5413W        W23617  16.162   3.032  13.816 -0.1421 -0.2356  0.3357
 5414W        W23618   5.649  16.265  12.763  0.2231  0.0353  0.1610
 5415W        W23619   8.684  15.843  15.012 -0.0719 -0.0868 -0.0099
 5416W        W23620   2.604  11.614  17.299  0.2199  0.0630  0.0490
 5417W        W23621   0.143  14.354  16.291  0.1569 -0.0016 -0.0798
 5418W        W23622   0.224   3.140  15.502 -0.1056 -0.2203  0.0624
 5419W        W23623  13.359  12.287   0.614 -0.1336  0.1740  0.1113
 5420W        W23624  10.746   6.846  15.141  0.1711  0.2253  0.0426
 5421W        W23625  12.690   8.483   4.484 -0.1395 -0.0169 -0.1216
 5422W        W23626  12.561   6.599  16.295 -0.2301  0.0421  0.1298
 5423W        W23627   4.199   8.797   2.012 -0.0366  0.0257 -0.1053
 5424W        W23628  13.574  17.245   4.730 -0.0454  0.0756  0.1518
 5425W        W23629   3.494  13.530  17.054 -0.0726 -0.1008  0.2678
 5426W        W23630   6.051   4.474   2.101 -0.4165 -0.2669  0.0185
 5427W        W23631   9.717   9.050   2.093 -0.0103  0.0234 -0.0957
 5428W        W23632  13.202  13.375  12.194 -0.1354 -0.2469  0.0619
 5429W        W23633   2.191  14.557   0.796  0.0143 -0.1730  0.0883
 5430W        W23634  13.577   5.210  13.653 -0.2338 -0.0516 -0.0947
 5431W        W23635   2.926   5.372  15.286 -0.0329 -0.0193  0.2405
 5432W        W23636  13.600  12.151   1.853  0.3063 -0.1137 -0.1088
 5433W        W23637   7.024   8.618  12.452 -0.1070 -0.1054 -0.0242
 5434W        W23638  16.289   8.993  13.824  0.1039  0.0582  0.1865
 5435W        W23639  13.691  15.178  13.059 -0.1783  0.0334 -0.0900
 5436W        W23640  11.235  14.363  14.680  0.0425  0.0327  0.1604
 5437W        W23641  15.082  16.156   3.785  0.2101  0.3970 -0.2817
 5438W        W23642  15.548   6.874  15.407 -0.0671  0.4594  0.1932
 5439W        W23643  17.115   7.271  12.251 -0.1180  0.0897 -0.0137
 5440W        W23644   9.703   7.629  14.733 -0.1850 -0.0206 -0.0602
 5441W        W23645  10.961  14.954  15.556 -0.2454 -0.1412 -0.0847
 5442W        W23646   1.894  12.641   6.515  0.1301  0.1879 -0.2517
 5443W        W23647   2.108   8.138   2.479  0.3973  0.0779  0.3259
 5444W        W23648   4.978   0.444  13.029  0.0854  0.0947  0.1369
 5445W        W23649   8.244   9.933   3.530 -0.1004  0.3346 -0.1004
 5446W        W23650  11.192   8.631   3.659 -0.0792  0.1333  0.2362
 5447W        W23651   6.836   8.617  14.168  0.3377 -0.2105 -0.1037
 5448W        W23652  16.339   1.071   3.462 -0.1375  0.1190  0.0240
 5449W        W23653   3.584   4.780  16.561 -0.1635 -0.2541 -0.2753
 5450W        W23654   8.295  13.409   3.726 -0.1102  0.0963  0.0941
 5451W        W23655  11.254   0.059   1.712  0.1795 -0.1825  0.0355
 5452W        W23656  16.075  15.902  14.796 -0.0587 -0.0899 -0.2927
 5453W        W23657   6.671   5.722   0.459  0.0284  0.2346  0.0902
 5454W        W23658   5.568   0.713   4.187 -0.1246  0.0725 -0.1006
 5455W        W23659   3.533   4.471  13.518 -0.3089  0.2344 -0.0780
 5456W        W23660   7.207  12.751   0.800 -0.1605 -0.1011 -0.1633
 5457W        W23661  12.558   2.165  13.877 -0.3318  0.1124 -0.1341
 5458W        W23662  10.275   8.182   4.437  0.1796 -0.0989 -0.2260
 5459W        W23663   7.790  13.295  15.885 -0.0062  0.0163  0.0845
 5460W        W23664  14.978  11.578   2.627 -0.0226 -0.1758  0.0980
 5461W        W23665   0.998   0.536  13.671 -0.1631 -0.0610  0.0534
 5462W        W23666   4.099  13.846  14.685 -0.1222  0.0824  0.0734
 5463W        W23667  13.155  16.957   3.749  0.1147  0.0918  0.1487
 5464W        W23668  11.642   3.863   0.388 -0.1333  0.2179  0.1890
 5465W        W23669   5.303   5.340  14.108  0.0362  0.0738  0.2318
 5466W        W23670  15.525  16.645  16.044 -0.1498 -0.0727 -0.0560
 5467W        W23671  14.912   5.167   0.645 -0.0484  0.2712  0.3573
 5468W        W23672   0.804  17.175  14.162 -0.0590  0.1328 -0.1087
 5469W        W23673  10.731  12.925  16.798  0.2712 -0.0584  0.2075
 5470W        W23674  14.478  13.950  12.426  0.2167 -0.0501 -0.3544
 5471W        W23675  15.170   4.858   2.951 -0.1276  0.0479  0.2032
 5472W        W23676   3.934   0.389  14.860 -0.5430 -0.0510  0.0814
 5473W        W23677   0.739   5.275  13.646  0.1720 -0.0080  0.3367
 5474W        W23678   1.416   0.720  12.857 -0.4903 -0.0182 -0.1297
 5475W        W23679   9.707   7.877  15.214  0.2257 -0.0463 -0.0577
 5476W        W23680   3.303  16.035  12.389 -0.1739  0.0195 -0.0083
 5477W        W23681  11.650   6.069   3.320  0.3981 -0.2623  0.2158
 5478W        W23682   5.301   5.260  15.200  0.1355  0.1793  0.0952
 5479W        W23683  16.801   7.673   0.743 -0.1196  0.1259  0.1436
 5480W        W23684   8.222  14.215  14.563 -0.2506 -0.1569  0.2579
 5481W        W23685   9.727  13.671  13.275  0.1253  0.0477  0.0580
 5482W        W23686   7.273   9.020   2.020  0.1223 -0.0880  0.1459
 5483W        W23687  13.808   0.249  17.063  0.1434 -0.3799 -0.0349
 5484W        W23688   7.257  13.755   1.962  0.0718 -0.0001  0.0314
 5485W        W23689   9.927   7.125   5.094  0.0121  0.1744 -0.2924
 5486W        W23690   1.505   1.750  12.792  0.0702 -0.1412 -0.1514
 5487W        W23691   6.159   8.471  13.418 -0.0858 -0.2694  0.0880
 5488W        W23692   8.674  12.480   3.641 -0.1003  0.1551  0.0185
 5489W        W23693  16.697   4.162   2.698 -0.0904  0.3666  0.1900
 5490W        W23694   5.156  11.497   5.382 -0.2869  0.1220  0.0894
 5491W        W23695   4.339   9.966   1.554 -0.2068  0.4091 -0.0343
 5492W        W23696  15.267   9.785   0.319  0.0660 -0.2831  0.3879
 5493W        W23697   8.832  13.035   1.085 -0.1344 -0.0785  0.1537
 5494W        W23698  14.767  12.222   2.565 -0.0305 -0.1622 -0.3271
 5495W        W23699   3.258   5.222   0.769 -0.2972 -0.4640  0.2651
 5496W        W23700   8.589  16.001   1.858 -0.0328  0.0664  0.1218
 5497W        W23701   1.224  12.738  16.580  0.1779 -0.0802  0.0960
 5498W        W23702   5.446  11.663   4.588  0.0640 -0.0642 -0.3756
 5499W        W23703  11.795   6.518  13.929 -0.0125  0.1136  0.0789
 5500W        W23704  12.402   4.231   3.130 -0.1639 -0.1087  0.1422
 5501W        W23705  16.417   2.614   0.336  0.0746 -0.0730  0.0185
 5502W        W23706  10.598   4.573  16.568  0.2992 -0.2293 -0.0983
 5503W        W23707   7.561  16.655   1.683 -0.0378  0.0119 -0.1089
 5504W        W23708   0.317   3.299  13.265 -0.0921 -0.3350 -0.2214
 5505W        W23709   4.779   5.342   5.135  0.1678  0.0752 -0.0387
 5506W        W23710   8.464   4.969   1.121 -0.1336  0.2371  0.0375
 5507W        W23711   1.733  13.003  12.885  0.0838  0.0198  0.1550
 5508W        W23712   6.475  11.354   3.869  0.0190 -0.0547 -0.1493
 5509W        W23713   7.261   1.039  12.192 -0.1264  0.0411  0.0126
 5510W        W23714   1.576  10.816   3.084 -0.2187  0.4050  0.0947
 5511W        W23715   4.600  13.819  14.883 -0.2039 -0.0739  0.2494
 5512W        W23716   1.319  13.607  14.507  0.0622 -0.1902 -0.0052
 5513W        W23717   6.662  10.573  13.509  0.1443 -0.2398  0.0845
 5514W        W23718  12.777  10.101   1.362  0.0377 -0.0696 -0.0118
 5515W        W23719   8.312   0.801  16.980 -0.4503  0.0719 -0.2326
 5516W        W23720   2.454   0.384  14.989  0.1696 -0.1417  0.1378
 5517W        W23721   8.767   3.451  14.233 -0.2943  0.1516  0.1495
 5518W        W23722   9.050  12.941  15.196 -0.2651  0.0501 -0.1521
 5519W        W23723   5.103   7.550   4.348  0.2133  0.0556  0.1974
 5520W        W23724  14.932   1.939   5.081  0.0264 -0.2080 -0.2220
 5521W        W23725  12.284   7.283  13.830 -0.2185  0.0509  0.0704
 5522W        W23726   6.641  13.348   0.603  0.0797 -0.4600  0.2758
 5523W        W23727  10.164   7.527   1.236  0.0926 -0.1517 -0.3217
 5524W        W23728  13.530  10.541  14.908 -0.0148 -0.1614 -0.0821
 5525W        W23729  10.216   7.368  12.860 -0.0245  0.1911  0.0909
 5526W        W23730  10.748   6.129  13.822 -0.1468 -0.1302  0.1214
 5527W        W23731   4.566   5.001   4.137 -0.0567 -0.0601  0.0435
 5528W        W23732  15.333  17.149   4.273 -0.3336  0.1764  0.2717
 5529W        W23733   4.689   9.110   3.584 -0.2515 -0.0156  0.1073
 5530W        W23734  13.595   6.358   4.982 -0.2287  0.0843  0.3391
 5531W        W23735   9.495  10.413  15.069  0.1692  0.3961  0.0600
 5532W        W23736   4.426   5.218   1.806 -0.1177 -0.2772 -0.1082
 5533W        W23737   4.186   2.492  13.886 -0.0785 -0.2970 -0.0173
 5534W        W23738  11.730  14.539  14.213  0.0676 -0.1005  0.0584
 5535W        W23739  10.404   9.085   4.923 -0.0256 -0.0448 -0.1784
 5536W        W23740  15.986   0.818   3.731 -0.1535  0.0922  0.0665
 5537W        W23741  10.788   9.151  16.310  0.1198 -0.4519  0.1356
 5538W        W23742   1.847  15.602  14.607 -0.0538 -0.1958  0.1534
 5539W        W23743   3.863   1.514   1.792  0.0868  0.1146 -0.1412
 5540W        W23744  16.226  12.629   5.841  0.2643  0.0112 -0.1019
 5541W        W23745  15.150  12.617   3.464 -0.0371 -0.0770 -0.1519
 5542W        W23746   1.650  14.384  14.586 -0.4241  0.1592 -0.0129
 5543W        W23747   9.831   0.840  13.279 -0.0574 -0.2891  0.2654
 5544W        W23748  13.960   1.717   3.989 -0.0042 -0.0579  0.4316
 5545W        W23749  16.915  14.098  16.358 -0.1194 -0.1472 -0.0525
 5546W        W23750   6.288   0.496   2.708 -0.1317  0.1514  0.1156
 5547W        W23751  14.621   2.891   5.173  0.0537  0.0243  0.0963
 5548W        W23752  12.772   9.479   6.485 -0.1266 -0.2012  0.1916
 5549W        W23753   8.814  15.056   4.763 -0.1987 -0.0034  0.0979
 5550W        W23754   6.818   0.518  12.882 -0.1573 -0.0475 -0.0439
 5551W        W23755  13.039   7.365  14.786  0.1027 -0.0745  0.2275
 5552W        W23756  10.993  17.261   4.540  0.2023  0.1619  0.1255
 5553W        W23757   8.914   0.514  15.860  0.3744  0.2141 -0.1012
 5554W        W23758  14.635   0.309   3.351  0.1083  0.0685 -0.3449
 5555W        W23759   4.719   6.887  14.425 -0.2468  0.1242  0.1113
 5556W        W23760   3.299  14.914  17.429 -0.0595  0.4109 -0.2949
 5557W        W23761   2.205  16.015  14.444  0.0368  0.0614  0.2521
 5558W        W23762   6.588   7.462  16.333  0.0973  0.0442  0.0476
 5559W        W23763  15.992  10.040   5.044 -0.1473 -0.2171 -0.2614
 5560W        W23764  12.347  16.585   3.226  0.1648  0.3145 -0.0971
 5561W        W23765   9.010  13.076  14.045  0.1483 -0.0236  0.1998
 5562W        W23766   6.378   9.127   3.343 -0.0932 -0.0719  0.1453
 5563W        W23767   5.235   8.910   3.558 -0.0600  0.3148 -0.3527
 5564W        W23768   4.972  12.880   1.982  0.2319 -0.2989 -0.0044
 5565W        W23769   5.786   0.550  15.855 -0.0937 -0.1489  0.0198
 5566W        W23770   7.249  15.787   0.128  0.0860  0.1823 -0.1820
 5567W        W23771   0.183  16.726   0.811 -0.0520 -0.0078 -0.0682
 5568W        W23772  16.503   4.859  12.495 -0.0726  0.3122 -0.0772
 5569W        W23773   6.207   3.257   2.571 -0.1232  0.0724 -0.0171
 5570W        W23774  13.127   2.623   3.489  0.0065  0.2835  0.2150
 5571W        W23775  10.423  12.594  12.519  0.0537  0.1273  0.2486
 5572W        W23776   2.729   4.241  14.696 -0.1375  0.1557 -0.1635
 5573W        W23777   4.758  14.572   4.070  0.0158  0.0957 -0.1917
 5574W        W23778   0.904   3.496   4.236 -0.0768  0.0252  0.0220
 5575W        W23779   2.283   2.479  15.394  0.0555  0.2615  0.0385
 5576W        W23780   6.780   7.163   0.778  0.1013 -0.2912  0.0812
 5577W        W23781  12.401   8.883   4.344 -0.3992 -0.2230  0.0058
 5578W        W23782   6.634   5.870   3.211 -0.0963 -0.1130 -0.0243
 5579W        W23783  12.891   6.486   3.659  0.2088 -0.1346 -0.1346
 5580W        W23784   1.105  12.799  14.292  0.1232 -0.2217  0.2588
 5581W        W23785   5.615  13.985  12.597 -0.2332  0.0385  0.4443
 5582W        W23786   9.756   0.480   0.112  0.3750 -0.0949 -0.1882
 5583W        W23787   3.867  13.543  13.371  0.0934  0.0325  0.0479
 5584W        W23788  14.456  13.563   3.044 -0.0190 -0.0928 -0.1700
 5585W        W23789  10.656  17.280  14.443 -0.0468  0.2565 -0.3307
 5586W        W23790   1.836  11.873  13.238  0.0720 -0.1276  0.0700
 5587W        W23791   6.383   9.296   0.359  0.1461 -0.1776 -0.0958
 5588W        W23792  14.296  14.028   5.074  0.2299  0.3274  0.0072
 5589W        W23793   6.889  14.108   0.150  0.1333  0.4842  0.2158
 5590W        W23794  14.256  15.218  13.885 -0.2058 -0.2577 -0.1306
 5591W        W23795   0.197  14.366   0.741 -0.1533  0.3180 -0.0719
 5592W        W23796   7.950  13.479  14.924  0.0693  0.1753 -0.0019
 5593W        W23797   5.733  10.175   2.132  0.1320  0.1920 -0.1070
 5594W        W23798   8.735   1.490   1.754  0.0862  0.1586 -0.0687
 5595W        W23799  12.496   3.341   3.081 -0.3462  0.2210 -0.3000
 5596W        W23800   2.917  16.625   5.692 -0.3507  0.0177 -0.0706
 5597W        W23801   5.492  15.468  15.325  0.0728 -0.2047  0.0488
 5598W        W23802   1.594  13.866   0.632 -0.0277 -0.3186 -0.2641
 5599W        W23803   1.421   0.458  15.726 -0.1919 -0.0453 -0.0687
 5600W        W23804   3.606   8.530  14.270  0.2250 -0.1876  0.4828
 5601W        W23805   3.073   4.219  16.973  0.0613 -0.2583 -0.0236
 5602W        W23806  11.979  16.035   4.205 -0.2027 -0.1552 -0.4137
 5603W        W23807   5.941  12.182   4.812 -0.1012 -0.0394  0.1091
 5604W        W23808   4.245   3.429  14.283  0.3694  0.1470 -0.1708
 5605W        W23809   8.439  13.460   4.945 -0.0425 -0.1422  0.0205
 5606W        W23810   9.679   6.528  16.789 -0.1100 -0.2361 -0.0793
 5607W        W23811  16.377   7.375  16.420 -0.0279 -0.0153  0.2413
 5608W        W23812   7.490  11.075  16.826  0.1854  0.0818 -0.0006
 5609W        W23813   7.071  15.096  13.730 -0.0147 -0.0024  0.2896
 5610W        W23814   4.575   4.509  13.518 -0.3095  0.2833  0.0454
 5611W        W23815   8.806   1.278   2.209  0.2219 -0.2845  0.1498
 5612W        W23816   5.831   7.763  15.742  0.1313 -0.1526 -0.0992
 5613W        W23817   5.472   1.074   4.907 -0.2551 -0.1714  0.0733
 5614W        W23818   9.156   8.908  12.655 -0.0984 -0.0920 -0.0477
 5615W        W23819   0.606   6.758  15.775  0.0209 -0.0819 -0.3007
 5616W        W23820  15.820   8.610   3.364 -0.1092 -0.0225 -0.0406
 5617W        W23821   1.370  15.909   3.123  0.1299  0.0447  0.1165
 5618W        W23822   7.890   6.053  14.064 -0.1730  0.0923 -0.3006
 5619W        W23823   1.649  15.222  15.977  0.3525 -0.2314 -0.2135
 5620W        W23824   2.811  11.233  15.415  0.1413 -0.0994  0.0838
 5621W        W23825  16.131  12.857   3.438 -0.0410 -0.3072 -0.1506
 5622W        W23826  10.407  14.974   5.041 -0.3109  0.2051  0.0141
 5623W        W23827   9.859   2.038  14.268 -0.2050 -0.1633  0.0755
 5624W        W23828   4.987   5.146   1.029  0.0501 -0.3409  0.0805
 5625W        W23829  14.873   6.762   5.246 -0.1941  0.3414 -0.0068
 5626W        W23830  14.491   7.183  17.042  0.0019  0.0250 -0.2295
 5627W        W23831  14.447   9.274   2.413 -0.1853 -0.0638  0.0703
 5628W        W23832  15.155   2.065   2.500 -0.0369  0.1123  0.0674
 5629W        W23833   3.479  12.417   0.624 -0.2406  0.1915 -0.0106
 5630W        W23834   3.626  10.880  12.846  0.3541 -0.0009 -0.0713
 5631W        W23835   9.865   8.966   2.630 -0.0824 -0.1799 -0.0080
 5632W        W23836  14.453   5.028  14.384 -0.2906 -0.0439  0.0661
 5633W        W23837   6.832  14.092  12.512 -0.0915 -0.2263 -0.0858
 5634W        W23838   6.796  16.813   3.147  0.3330 -0.2369 -0.0326
 5635W        W23839   1.085  13.545  17.052  0.2321  0.0763  0.1510
 5636W        W23840   2.535   5.974   0.970 -0.2642  0.1562 -0.1718
 5637W        W23841  13.904   0.851  13.501 -0.1299 -0.1766  0.2602
 5638W        W23842  10.652  10.908  15.616 -0.2554  0.0192 -0.4075
 5639W        W23843  12.259   9.828  14.017  0.0160 -0.2109  0.0808
 5640W        W23844   0.773   1.622  15.855  0.0674  0.0211 -0.0092
 5641W        W23845  16.789  14.143   1.225 -0.2403 -0.2381  0.1982
 5642W        W23846  11.587   1.290   4.623 -0.2770 -0.0273 -0.2519
 5643W        W23847   2.045   5.029  15.094 -0.3093  0.2150 -0.0329
 5644W        W23848   6.635   7.322  14.664  0.2412  0.2483 -0.2063
 5645W        W23849   0.215   6.408   1.101  0.1861  0.0570 -0.1287
 5646W        W23850  10.583   9.552   4.099  0.1356  0.0027 -0.1263
 5647W        W23851   1.778   1.106  14.735  0.1618  0.0259 -0.2023
 5648W        W23852  10.102   2.107   3.594  0.2788  0.0440 -0.0098
 5649W        W23853   7.516   4.516   3.176  0.0241 -0.0875 -0.3935
 5650W        W23854   6.387   1.193  12.467  0.0153  0.3037  0.3060
 5651W        W23855   8.561  16.097  14.515 -0.0863 -0.3558 -0.1062
 5652W        W23856  15.859   2.475  15.652  0.0560 -0.1965 -0.0276
 5653W        W23857  14.508   1.708   4.961 -0.1991  0.0259  0.1676
 5654W        W23858  12.442  14.859  15.352 -0.1625 -0.4050  0.1077
 5655W        W23859   0.903   0.896   1.322  0.4875 -0.1699  0.3363
 5656W        W23860   6.442   3.566   4.708  0.2184  0.3875  0.0968
 5657W        W23861  15.364  13.720  12.693 -0.4087  0.0786 -0.2238
 5658W        W23862   7.491   3.302   0.270 -0.1690  0.2563 -0.0090
 5659W        W23863   4.236  16.544   1.641 -0.1710 -0.1339 -0.2639
 5660W        W23864   5.758   4.083   0.565 -0.0220  0.1171 -0.0485
 5661W        W23865   9.005   7.622   3.737 -0.4202 -0.0020  0.0916
 5662W        W23866   2.711  16.118  13.195 -0.1155 -0.1087  0.0949
 5663W        W23867  10.943   3.275  13.125  0.0517  0.1705 -0.1306
 5664W        W23868   5.316   2.963   5.472  0.1352 -0.1732 -0.0955
 5665W        W23869   2.232  14.757  16.686 -0.1533 -0.0268 -0.0961
 5666W        W23870   4.728  17.285  13.126  0.1610 -0.1405 -0.2245
 5667W        W23871   9.786   0.824   2.286 -0.1440 -0.3629 -0.3353
 5668W        W23872   0.762   8.361  16.209 -0.4111  0.1001  0.3213
 5669W        W23873   1.303   1.746   0.116 -0.3732  0.2476 -0.1276
 5670W        W23874   0.107  16.182   3.569  0.4425  0.0030  0.1326
 5671W        W23875   7.877   7.858   1.227  0.0257 -0.0748 -0.1274
 5672W        W23876   4.577  17.185  15.687  0.0293 -0.1853 -0.0389
 5673W        W23877   3.750  16.875  13.804 -0.1493  0.1482  0.2639
 5674W        W23878   6.790   3.966   4.653  0.2512  0.1950 -0.0883
 5675W        W23879   9.898   7.309  15.172 -0.2386  0.2498  0.1242
 5676W        W23880   0.770   4.157   4.654 -0.0686  0.2343  0.3397
 5677W        W23881   6.108   5.572   4.703 -0.0950 -0.0543 -0.2621
 5678W        W23882   5.171   6.211   0.934  0.2434  0.1547  0.0145
 5679W        W23883   7.405  10.588   3.178  0.2193  0.2046 -0.0026
 5680W        W23884  14.842   1.185   0.450 -0.1338 -0.0569  0.1599
 5681W        W23885   2.132  14.347   2.015  0.2349 -0.0169  0.2185
 5682W        W23886   1.436  15.160   5.383 -0.1862  0.1194  0.1650
 5683W        W23887   4.963  11.660   0.656  0.0776 -0.0879  0.0364
 5684W        W23888   7.109  10.903   0.742 -0.0136 -0.0839  0.0229
 5685W        W23889  13.564  13.088   5.476 -0.1494  0.1128  0.0010
 5686W        W23890   8.545   1.795   6.056  0.1966 -0.0091  0.4588
 5687W        W23891   3.263   4.649   0.636  0.2980 -0.0147 -0.3562
 5688W        W23892   4.204  10.851  16.111  0.0519 -0.0433 -0.0056
 5689W        W23893   1.290  10.231   3.698 -0.2921 -0.2099  0.1898
 5690W        W23894   9.035   3.788  13.363 -0.1416  0.1792  0.0612
 5691W        W23895   3.787  11.999   5.101  0.0320 -0.1396  0.0714
 5692W        W23896   8.236   5.042  11.943 -0.1016 -0.3888  0.0112
 5693W        W23897   7.468  16.725   3.275 -0.0608  0.0029  0.2123
 5694W        W23898  12.095  11.765   4.837  0.1134 -0.2540  0.0846
 5695W        W23899   9.926   3.839   0.626  0.3225 -0.2008  0.1505
 5696W        W23900   3.640   2.250  16.253  0.2136 -0.1730  0.1558
 5697W        W23901   5.922   6.869  14.364 -0.1546  0.0050 -0.2582
 5698W        W23902   8.392  10.014   5.313 -0.2167 -0.1344 -0.0123
 5699W        W23903   0.152  11.137   4.617  0.0105 -0.1471 -0.0005
 5700W        W23904  15.663   7.266   5.478  0.0588 -0.0380 -0.0907
 5701W        W23905   1.394   1.500  13.998  0.2591  0.0062  0.0436
 5702W        W23906   4.153   2.014  14.097  0.0072 -0.0321  0.0642
 5703W        W23907  15.347  12.734   0.068 -0.3252 -0.1365  0.3902
 5704W        W23908   9.740  12.716   5.546 -0.2790 -0.1742 -0.0028
 5705W        W23909   6.132  14.396  14.937  0.0630 -0.0990 -0.3167
 5706W        W23910   8.015   5.110  13.925 -0.0059  0.1306  0.1844
 5707W        W23911  13.936  15.327  12.618  0.3131 -0.0889 -0.1077
 5708W        W23912   4.345   2.009  17.363 -0.1214  0.0165 -0.1388
 5709W        W23913   1.657   1.051  11.976 -0.0720 -0.0327 -0.0688
 5710W        W23914  10.628  12.561   4.960 -0.2067  0.0063 -0.0334
 5711W        W23915   9.008   1.546   2.618  0.0219 -0.1502  0.0627
 5712W        W23916  13.539   1.031   0.014 -0.1241 -0.0267 -0.3663
 5713W        W23917   9.624   4.266   3.870  0.0454 -0.0975  0.0464
 5714W        W23918   6.587   5.012   4.740 -0.1039 -0.1368 -0.1712
 5715W        W23919   0.946  14.941   5.170  0.1944  0.0687 -0.1407
 5716W        W23920  14.633  14.591   1.243  0.0689 -0.2971 -0.1062
 5717W        W23921   9.710  14.640  14.111 -0.0626  0.1031 -0.0557
 5718W        W23922   6.193  16.215  13.192  0.3152 -0.3003 -0.0236
 5719W        W23923   5.598  13.163  13.381  0.1044  0.1193 -0.1162
 5720W        W23924   1.439   5.377   2.560  0.0665  0.1707  0.0023
 5721W        W23925   8.889   8.513   3.415  0.2809 -0.0236 -0.0562
 5722W        W23926  13.206   9.360   4.150 -0.0204  0.0431 -0.0358
 5723W        W23927   3.322   6.127   4.940 -0.2897 -0.3082 -0.1924
 5724W        W23928   4.901   5.328   1.942  0.3021 -0.4440  0.1338
 5725W        W23929   1.656  12.621  13.238 -0.0597 -0.1697  0.0566
 5726W        W23930   8.351  15.498  17.425  0.0621  0.2235 -0.0297
 5727W        W23931  16.887   6.512  12.047  0.0249 -0.1453  0.1359
 5728W        W23932   8.084   5.817  15.658 -0.0418 -0.1088 -0.0884
 5729W        W23933   5.340   7.580  12.912 -0.0891 -0.2237 -0.0591
 5730W        W23934  14.048   2.704   0.121 -0.0621  0.0093  0.5918
 5731W        W23935  15.267   1.019  13.681 -0.3783  0.2942 -0.2040
 5732W        W23936   1.782   9.555  14.987 -0.1358  0.2633 -0.0100
 5733W        W23937   5.813   1.947   1.438 -0.1204  0.2237  0.3434
 5734W        W23938  11.063  12.366   2.304  0.0599  0.2063 -0.1262
 5735W        W23939   4.452   9.811   1.051  0.1227 -0.1872 -0.2042
 5736W        W23940  14.041  10.030  15.511  0.1440  0.0171 -0.2170
 5737W        W23941  10.487  14.291   4.927  0.0330 -0.1651  0.1931
 5738W        W23942   5.752  12.537  12.784 -0.1034  0.0824 -0.3241
 5739W        W23943  14.163   8.163  15.393  0.0048  0.2188 -0.0778
 5740W        W23944  12.350  12.582   2.102 -0.0119  0.1859 -0.0396
 5741W        W23945  14.819   2.410  12.171 -0.2888  0.0273 -0.0882
 5742W        W23946   2.101   8.655   3.275 -0.1799 -0.2682  0.2234
 5743W        W23947  15.347   7.698  16.285  0.0083 -0.1253  0.0405
 5744W        W23948  11.045  15.805  12.137 -0.3308 -0.0340 -0.0972
 5745W        W23949  14.793  13.580   4.572 -0.0569  0.1163  0.2614
 5746W        W23950  13.873  15.863  16.212 -0.1208 -0.1362  0.4192
 5747W        W23951   8.651   4.006   2.580  0.1852  0.3793 -0.1848
 5748W        W23952   3.601   2.992   3.210  0.0608 -0.0882  0.1393
 5749W        W23953  12.731  16.015  14.126  0.1687 -0.1703  0.2545
 5750W        W23954   7.854   8.185   3.128 -0.4022  0.0027  0.1169
 5751W        W23955  15.897   0.307  11.791 -0.3516 -0.0784  0.2872
 5752W        W23956  11.034   5.455   1.394 -0.0816  0.1081  0.0882
 5753W        W23957   2.587   4.681  17.089 -0.1216  0.2175 -0.0051
 5754W        W23958   3.228  14.633   3.230 -0.0395 -0.0435 -0.2948
 5755W        W23959  10.602  14.715   3.933  0.1812 -0.1060 -0.0054
 5756W        W23960   9.137   4.742   1.853  0.0845 -0.1494  0.1445
 5757W        W23961   5.864  12.380   2.447  0.0188 -0.1569 -0.4056
 5758W        W23962   2.144  11.625  16.277  0.2077 -0.0548  0.1506
 5759W        W23963  16.170   8.557   4.663 -0.0112  0.1355  0.0241
 5760W        W23964  14.176   3.696  16.677 -0.2692  0.1025 -0.0901
 5761W        W23965  13.384   0.515  14.125 -0.1675 -0.3099 -0.0233
 5762W        W23966   0.004   6.021  15.489  0.0062  0.1346  0.2429
 5763W        W23967  16.105   1.110   2.989 -0.0912  0.0264 -0.0935
 5764W        W23968  17.133   9.686  17.228  0.1474 -0.1556  0.2286
 5765W        W23969   8.934  15.477  13.338 -0.3208 -0.4711  0.0899
 5766W        W23970   6.189  15.299   4.994  0.4379 -0.2273 -0.2289
 5767W        W23971   7.533   3.360  16.813 -0.1007  0.1258  0.0896
 5768W        W23972  11.224  12.827  16.732  0.2325  0.0260 -0.0501
 5769W        W23973  10.646  13.134   2.035 -0.0929 -0.0334  0.0841
 5770W        W23974   1.495  16.608  14.698  0.1651 -0.3077 -0.0422
 5771W        W23975  11.178  10.823   2.398 -0.0396 -0.1723 -0.0965
 5772W        W23976   2.529   7.114   2.209  0.0395  0.2011 -0.2556
 5773W        W23977   0.195   3.288   2.161  0.1788 -0.1076 -0.1314
 5774W        W23978   6.209   4.313  14.592  0.0410  0.2317  0.3716
 5775W        W23979   8.061  13.138  13.627  0.0954  0.2150  0.0225
 5776W        W23980  11.050   3.623   1.249  0.0597  0.1162 -0.0625
 5777W        W23981   2.044  14.281   0.408 -0.0112 -0.2221 -0.2338
 5778W        W23982   1.886   5.166   2.631 -0.3964  0.3361  0.0832
 5779W        W23983  12.656   8.285   0.954  0.2611 -0.0719 -0.0865
 5780W        W23984   5.414   1.885   3.824 -0.0694 -0.3798 -0.3543
 5781W        W23985  15.367   2.853  13.753 -0.1817  0.1065 -0.0357
 5782W        W23986  11.485   6.506   4.102 -0.2714 -0.1349 -0.2110
 5783W        W23987  12.026  11.758   4.237 -0.0589  0.2522  0.0104
 5784W        W23988  14.408  16.740   4.963  0.3245 -0.3063  0.2356
 5785W        W23989   3.409   0.591   2.258  0.4501  0.0694  0.1772
 5786W        W23990   2.428   1.238  13.073  0.0401 -0.1588  0.0925
 5787W        W23991   8.474  12.079  14.769  0.0537  0.1672  0.0057
 5788W        W23992  13.221   0.640  15.691 -0.0871 -0.0762 -0.0655
 5789W        W23993   2.823   7.950   3.810  0.2134  0.0739  0.2106
 5790W        W23994   8.379   6.814   5.074 -0.0653 -0.0882  0.3103
 5791W        W23995  12.108   6.016  13.134  0.1951  0.0394 -0.2075
 5792W        W23996   5.786   6.545   3.078 -0.4286  0.1831  0.2314
 5793W        W23997   5.808  10.806  16.338  0.0436 -0.1493  0.1912
 5794W        W23998   7.747   4.708   3.605 -0.0242 -0.2721 -0.0247
 5795W        W23999   0.518   1.956  13.633 -0.0997  0.1478 -0.0521
 5796W        W24000  13.448  12.922  16.307  0.1127 -0.1584  0.0208
 5797W        W24001  13.704   8.566  13.184 -0.1029  0.2366  0.0149
 5798W        W24002   5.496  14.308   3.187 -0.3737 -0.0184  0.2717
 5799W        W24003   7.679   2.098   3.430  0.1286  0.2805  0.2966
 5800W        W24004  10.403  15.724   5.092 -0.0241 -0.1881 -0.1118
 5801W        W24005   0.659   9.652   2.754  0.0841  0.3276 -0.0121
 5802W        W24006   2.574   2.861  15.449  0.1123 -0.2328  0.1030
 5803W        W24007   2.552   0.013  16.507 -0.1453  0.0383 -0.1661
 5804W        W24008   4.635   1.340   0.676  0.1070 -0.0852 -0.1889
 5805W        W24009   2.104   4.214  13.200  0.1727  0.1051  0.0564
 5806W        W24010   0.283   0.208   2.262  0.0722 -0.1455  0.1682
 5807W        W24011  15.625   9.151  17.441 -0.3687  0.1067  0.0298
 5808W        W24012   4.002   9.799   3.519 -0.0664  0.1209  0.2685
 5809W        W24013  14.302   7.995  12.514  0.4111  0.0205  0.0517
 5810W        W24014   9.862   9.471  16.517 -0.0853 -0.0362 -0.1017
 5811W        W24015  10.971  15.102  16.118 -0.2139  0.0522 -0.1616
 5812W        W24016   9.244  13.363  14.889  0.1178  0.0306 -0.1670
 5813W        W24017   8.795   4.929  16.320 -0.0335 -0.2116 -0.1436
 5814W        W24018  14.936  10.086   1.917  0.1421  0.2895  0.1138
 5815W        W24019   8.278   6.225   0.613  0.0843  0.0089 -0.0298
 5816W        W24020   7.408  14.004   0.146 -0.1710 -0.1643 -0.1741
 5817W        W24021  12.070  17.094   2.464  0.1610  0.1410  0.2541
 5818W        W24022  15.285  14.006  14.973  0.1072  0.3908 -0.1186
 5819W        W24023   9.038  15.358  14.328 -0.2928  0.4220 -0.1262
 5820W        W24024  13.692   3.299  16.563  0.1604  0.0287 -0.1954
 5821W        W24025   5.374   1.762   5.567 -0.0664 -0.0998 -0.2774
 5822W        W24026  13.182  12.935  14.747 -0.1498  0.2067 -0.0028
 5823W        W24027  11.334  12.042   2.710  0.2808  0.0488  0.3412
 5824W        W24028   9.646  11.441   1.132 -0.3018 -0.0831  0.0761
 5825W        W24029   4.530  15.578  15.599 -0.3982 -0.2939  0.1676
 5826W        W24030   0.854  17.273   0.418 -0.0606 -0.1213  0.0866
 5827W        W24031  11.322   1.820   1.012 -0.0466  0.5084  0.0393
 5828W        W24032   1.099  11.085  17.369 -0.3332  0.0561 -0.2517
 5829W        W24033  13.119   9.115  17.334  0.4102 -0.0761  0.2379
 5830W        W24034   4.901   1.306  17.067 -0.0903 -0.2290  0.1423
 5831W        W24035   9.409  12.971  15.588 -0.2407  0.1344 -0.1646
 5832W        W24036   2.546   8.862  17.070 -0.3780 -0.0656 -0.1246
 5833W        W24037   3.726  13.416   1.503 -0.0391  0.3351  0.1481
 5834W        W24038   8.336   5.541  15.129  0.1777 -0.1985  0.1336
 5835W        W24039  16.222  10.460   4.932 -0.0032  0.0987  0.0965
 5836W        W24040  14.742  10.239   0.032 -0.1049 -0.0839 -0.0159
 5837W        W24041   0.973  16.300  12.849 -0.2359 -0.2409 -0.2564
 5838W        W24042   1.799  14.732   0.296  0.0962 -0.1639 -0.1237
 5839W        W24043  10.195  15.353   3.245 -0.0841  0.2568  0.1676
 5840W        W24044  12.919   9.709  16.083  0.3238 -0.0221 -0.0050
 5841W        W24045   9.424   4.219  12.403 -0.0185 -0.0370  0.0969
 5842W        W24046   9.095  13.236  12.966 -0.0029  0.0305 -0.0375
 5843W        W24047   5.520   7.648  13.734  0.1226 -0.1106 -0.1709
 5844W        W24048  10.304   7.229  17.322 -0.1655 -0.2897  0.0002
 5845W        W24049   0.544  14.213  13.878 -0.2783  0.0142 -0.1034
 5846W        W24050   5.716   0.145  12.355 -0.2456  0.2432 -0.0829
 5847W        W24051   2.115   8.111   1.987 -0.0022 -0.2108  0.0161
 5848W        W24052  12.847   3.073  15.531 -0.3644  0.2701  0.1762
 5849W        W24053  12.723   9.109   1.628 -0.1446  0.0536  0.2104
 5850W        W24054  12.937   2.858  14.997  0.0850 -0.1151  0.2789
 5851W        W24055   0.493  17.084  13.262 -0.0923 -0.3927  0.2122
 5852W        W24056   4.647  11.788   4.334 -0.3214 -0.1195  0.2153
 5853W        W24057   1.985  11.344  15.917  0.0588 -0.1508  0.0123
 5854W        W24058  14.600  12.347  13.544 -0.0213 -0.0282 -0.0046
 5855W        W24059   1.512   7.132   0.331 -0.2090 -0.0681  0.3557
 5856W        W24060   3.343   7.637   2.514  0.0034  0.4014 -0.1035
 5857W        W24061  16.038  14.996   4.725  0.1535  0.0208 -0.1004
 5858W        W24062   5.673   4.415  13.780 -0.1270  0.2232  0.0261
 5859W        W24063  10.284   9.565  15.023  0.0737  0.2133 -0.2206
 5860W        W24064   4.942  14.399   3.557 -0.0739 -0.1889  0.0519
 5861W        W24065   3.494   3.029   4.217 -0.0459 -0.2098 -0.0638
 5862W        W24066   0.413  11.419  15.483 -0.0730  0.2512 -0.2816
 5863W        W24067  11.367   9.646   3.453  0.0683  0.1783  0.0532
 5864W        W24068   1.761  15.520   3.240 -0.0117 -0.2613 -0.0262
 5865W        W24069   1.325   2.275   0.087 -0.1740 -0.1068  0.0283
 5866W        W24070   5.379   8.722   1.540 -0.0086 -0.0265 -0.1119
 5867W        W24071   6.061   9.855  15.108  0.1444  0.1224 -0.0965
 5868W        W24072   5.595  16.646  14.544 -0.0639 -0.0812 -0.0494
 5869W        W24073   3.134   8.596   4.290 -0.3211  0.0707  0.2456
 5870W        W24074  15.346  15.884   1.392 -0.3781 -0.1554 -0.2477
 5871W        W24075  16.016   8.051   0.051 -0.2202 -0.0728  0.0938
 5872W        W24076  15.599   6.146  13.470  0.1205  0.1980 -0.2503
 5873W        W24077   5.066  16.474  12.768 -0.1203  0.0041  0.0229
 5874W        W24078  13.436  10.572   1.221 -0.0330  0.2894 -0.0235
 5875W        W24079   3.333  16.145  16.200 -0.0523  0.1440 -0.0676
 5876W        W24080   8.890   3.168  16.678  0.0003  0.0326  0.1321
 5877W        W24081  12.833   4.430  12.236 -0.1318  0.1162  0.0918
 5878W        W24082  13.816   2.179   0.754  0.0382  0.1508  0.0607
 5879W        W24083  12.480  15.640  17.358 -0.0584  0.1472 -0.0334
 5880W        W24084  14.856  11.548  15.457 -0.5528  0.0573  0.1760
 5881W        W24085  13.850  11.665   1.979  0.3163  0.3343  0.4377
 5882W        W24086   7.828   3.279  14.751  0.1542  0.0432  0.2613
 5883W        W24087  10.880   6.213  15.711 -0.0311 -0.0070  0.0484
 5884W        W24088   2.853   8.860  13.725  0.0541  0.2155  0.1192
 5885W        W24089   3.919  10.591   0.598  0.1618 -0.0935 -0.1897
 5886W        W24090  14.348   3.477   0.337 -0.0940 -0.0021 -0.0455
 5887W        W24091   6.399   1.259  16.031 -0.1638 -0.0429  0.2501
 5888W        W24092   1.370   6.049  12.696  0.0738  0.0730  0.1657
 5889W        W24093  17.276  15.889   1.712  0.2549 -0.0809  0.1290
 5890W        W24094   8.302   2.878   2.512  0.0279 -0.2917 -0.0113
 5891W        W24095   0.848   8.823  12.184  0.0410 -0.2790  0.0428
 5892W        W24096   7.618   9.270   4.669  0.0196 -0.0485 -0.0424
 5893W        W24097  17.214   7.147  13.640  0.0291  0.3930  0.0244
 5894W        W24098  14.237   8.467   1.789 -0.0379  0.0421 -0.1378
 5895W        W24099  12.010   3.700   4.815  0.2744 -0.1029  0.0672
 5896W        W24100  12.487   3.851   1.479  0.1784  0.0260 -0.0211
 5897W        W24101   4.687   5.265  16.277 -0.1508 -0.4190  0.0551
 5898W        W24102   3.606   0.909  12.706  0.2849 -0.2271  0.4286
 5899W        W24103   7.940   5.337   4.156  0.0480  0.0517 -0.1856
 5900W        W24104   1.538   5.581  16.214  0.0257 -0.0934 -0.2476
 5901W        W24105  13.362  11.516   0.763 -0.1292  0.1755  0.1476
 5902W        W24106  10.278   3.731   4.341 -0.1443  0.2133  0.1633
 5903W        W24107   6.416   7.844   0.178 -0.0626 -0.0224  0.2167
 5904W        W24108  16.962  13.616   0.549 -0.0887  0.1242 -0.0252
 5905W        W24109  17.249   0.307  15.829 -0.0042 -0.2200 -0.2225
 5906W        W24110  16.164  11.281   0.935  0.0556 -0.3403  0.0697
 5907W        W24111   2.424   9.232   4.099  0.1289 -0.0338 -0.1319
 5908W        W24112   8.517  13.291  16.756 -0.1013  0.0440  0.0976
 5909W        W24113   6.470   3.251  13.095  0.1982 -0.2981 -0.1561
 5910W        W24114   8.593   3.711  15.981  0.1338  0.1078  0.1089
 5911W        W24115  12.074   1.308   5.174  0.0501  0.0979  0.0492
 5912W        W24116   6.055   9.447  13.696  0.1090  0.0333  0.2048
 5913W        W24117   0.947   1.562   1.334  0.0326 -0.1707  0.2057
 5914W        W24118   5.951   8.210   3.452 -0.1136 -0.0245 -0.0190
 5915W        W24119  15.868   5.823   5.087 -0.0235  0.1394  0.1809
 5916W        W24120   1.169   7.151  16.177  0.0190 -0.4070  0.1343
 5917W        W24121  11.919  12.707   4.321  0.0957 -0.1275  0.0275
 5918W        W24122  14.115  16.242   0.195  0.2320 -0.4328 -0.2053
 5919W        W24123   4.887   8.659   3.788 -0.0026  0.2466  0.0450
 5920W        W24124   2.688   8.849   4.498 -0.3775 -0.2533 -0.0536
 5921W        W24125  15.072   9.656   5.296  0.0275  0.1229 -0.0104
 5922W        W24126   6.553  10.637   4.109 -0.4269 -0.0268 -0.0043
 5923W        W24127  14.251   1.209  14.201  0.1275 -0.1566 -0.0794
 5924W        W24128  13.129   0.615   2.003  0.0181 -0.0823  0.2394
 5925W        W24129   9.676  13.952   2.433 -0.2079 -0.0244 -0.1595
 5926W        W24130   6.393   2.588  16.427  0.2176 -0.0376  0.1197
 5927W        W24131  14.527  14.144   0.373  0.2832 -0.2123 -0.2814
 5928W        W24132  12.251  13.093  13.837 -0.0270 -0.0433 -0.0096
 5929W        W24133   6.128   7.673  13.012  0.1558 -0.2128  0.1986
 5930W        W24134  11.556   3.809  15.421 -0.2768  0.0416  0.1191
 5931W        W24135  15.659   9.619  17.429 -0.1075  0.0124  0.1974
 5932W        W24136   7.282   8.044  15.542 -0.0479  0.0661  0.0022
 5933W        W24137   3.774  10.063   4.223  0.0179 -0.3004  0.0027
 5934W        W24138  16.232  12.644   1.136  0.1332  0.1866 -0.1452
 5935W        W24139   4.494  12.471  12.856 -0.2392 -0.0591  0.2345
 5936W        W24140  13.426  13.865   3.847 -0.2811 -0.1747 -0.0826
 5937W        W24141  11.889   3.750  16.868 -0.0725 -0.1384  0.3317
 5938W        W24142  13.830   9.930  16.162 -0.0027  0.1606  0.0081
 5939W        W24143   2.591   8.452  17.433 -0.3063 -0.2561  0.1285
 5940W        W24144  11.546  16.423  14.886  0.0357  0.0739  0.2951
 5941W        W24145  15.239   1.269  15.191 -0.6447  0.0459  0.0133
 5942W        W24146  12.295   6.708  12.564 -0.0676 -0.0854  0.0374
 5943W        W24147  16.376   9.621   2.595  0.1082  0.0550 -0.2338
 5944W        W24148   9.843   3.578  14.438  0.0678  0.0747  0.0016
 5945W        W24149   5.897   4.047   3.553  0.0918  0.0234 -0.1283
 5946W        W24150   2.354   4.810   2.609 -0.1509  0.0731  0.3105
 5947W        W24151   3.400   1.014  15.409  0.0143  0.2607 -0.0180
 5948W        W24152   2.089   2.695   0.468  0.0644  0.1445  0.1628
 5949W        W24153   6.415  14.618  15.292 -0.1518 -0.2258  0.2831
 5950W        W24154  14.704   7.835   1.311 -0.2423  0.0658 -0.2068
 5951W        W24155   0.798   6.383  17.037 -0.0899 -0.2803 -0.1620
 5952W        W24156  16.209   4.732   1.335  0.1704 -0.0207  0.2062
 5953W        W24157   9.598   1.113  13.673 -0.1332 -0.1945  0.0859
 5954W        W24158  11.951  12.648  13.954  0.0009  0.2255  0.1032
 5955W        W24159   1.366   7.315  13.126 -0.0553 -0.1987 -0.1473
 5956W        W24160  11.079  12.688   1.146 -0.0164 -0.5216 -0.4146
 5957W        W24161  10.652   4.663  13.064  0.1918 -0.2925  0.0074
 5958W        W24162   9.175   7.599  16.860  0.1139  0.1272 -0.1253
 5959W        W24163   7.128   0.653   1.263 -0.1800  0.0171 -0.2289
 5960W        W24164   9.827   6.332  13.170  0.0349 -0.2462  0.0074
 5961W        W24165  17.266   1.080  16.016 -0.0437 -0.0639 -0.0367
 5962W        W24166   9.044   3.915  16.740 -0.1367 -0.0407  0.3030
 5963W        W24167   8.060   5.476  13.395 -0.2226 -0.0211 -0.1353
 5964W        W24168   7.224   8.077   5.427  0.2828 -0.0099 -0.0060
 5965W        W24169  12.784   9.623   3.900 -0.5148 -0.2914 -0.0659
 5966W        W24170  15.883  10.070  14.708  0.0101  0.1453 -0.3623
 5967W        W24171  13.619   5.124   3.514  0.3276 -0.0254 -0.2203
 5968W        W24172  11.861  13.167  14.170  0.1177  0.0394 -0.1514
 5969W        W24173  10.679  10.784  14.237  0.2540  0.0998  0.0623
 5970W        W24174  12.943   0.515  17.059 -0.2639  0.0073  0.0413
 5971W        W24175  13.713   3.260  15.902  0.0763  0.0195 -0.1374
 5972W        W24176   9.613  13.490   3.635 -0.0070  0.1323 -0.4221
 5973W        W24177  13.191  14.035  12.956  0.2745  0.1787  0.2216
 5974W        W24178  10.386  17.085  14.052 -0.0426  0.1031  0.0810
 5975W        W24179   4.434   4.952  14.760  0.2528 -0.0325 -0.4342
 5976W        W24180   0.039  15.552   2.481 -0.0259  0.2396  0.0130
 5977W        W24181   5.689  14.359   2.719  0.3342  0.1055 -0.0419
 5978W        W24182   8.723   4.239   4.248 -0.2651 -0.2631 -0.0793
 5979W        W24183   4.011   3.055   4.523  0.1849 -0.0269 -0.0590
 5980W        W24184   6.070  14.232  15.556  0.0462  0.2651 -0.0585
 5981W        W24185  12.690   9.749  17.458 -0.1753  0.1220 -0.2664
 5982W        W24186  10.539   6.572  15.488 -0.2208  0.0357  0.2213
 5983W        W24187  14.469   0.791  17.041  0.0087 -0.1520  0.2100
 5984W        W24188   7.345   7.503  15.414 -0.0901 -0.2608 -0.2850
 5985W        W24189   4.232  16.222  15.405 -0.0087  0.0788 -0.2688
 5986W        W24190   7.366  15.532  14.553  0.1209 -0.0896 -0.0976
 5987W        W24191  10.688   9.106   2.454  0.0799  0.0600  0.4058
 5988W        W24192  16.192   2.935   0.697 -0.1503 -0.1325  0.0898
 5989W        W24193   4.191   1.484   4.868 -0.0034 -0.1026 -0.0861
 5990W        W24194  14.755   0.886  12.014  0.0184  0.0028  0.0171
 5991W        W24195  12.743   9.429  13.800  0.2730  0.1265 -0.4107
 5992W        W24196   7.712  15.795   5.022  0.2288 -0.1588 -0.0590
 5993W        W24197   7.097  12.912  17.455 -0.2806 -0.0507 -0.1134
 5994W        W24198   3.252   3.335  13.241  0.1079 -0.2201 -0.0861
 5995W        W24199   6.219  11.768  14.764  0.1202  0.2029  0.1706
 5996W        W24200  10.941  13.189  16.357  0.1265 -0.1401  0.0124
 5997W        W24201  16.772  14.670   3.409 -0.3355 -0.3853  0.1626
 5998W        W24202   7.794   6.395   0.605  0.0015  0.0960  0.0674
 5999W        W24203   2.636  16.321  14.590  0.1023  0.0699  0.1992
 6000W        W24204   4.670   2.754  13.740 -0.0162 -0.1571  0.1390
 6001W        W24205   6.439  13.346   4.227  0.1570  0.0563 -0.0744
 6002W        W24206  14.960  10.931  13.481  0.2425 -0.3181  0.1236
 6003W        W24207  17.174  12.407   1.129  0.0052  0.0187  0.1099
 6004W        W24208   1.946  11.689  12.746  0.2474  0.3519  0.1160
 6005W        W24209   0.856  12.358  14.371  0.2460  0.0506 -0.0559
 6006W        W24210   6.118   7.143  12.923  0.1157  0.1187 -0.0458
 6007W        W24211   7.900   6.838  14.552  0.0975  0.2898 -0.3290
 6008W        W24212   9.427  14.531  13.199  0.2020 -0.3138 -0.1137
 6009W        W24213   0.971   2.114   1.404 -0.0975  0.0481 -0.3134
 6010W        W24214   5.832   1.399   1.591 -0.3494  0.1397 -0.1745
 6011W        W24215  14.133   8.970   1.709  0.0326 -0.2722 -0.3370
 6012W        W24216   2.214   0.472   1.685  0.0318  0.1392  0.1532
 6013W        W24217   3.546   7.599  15.638 -0.1789 -0.2395  0.0672
 6014W        W24218  13.689   9.659  15.700  0.2351 -0.3083  0.1495
 6015W        W24219   4.209   6.090  15.497 -0.3073 -0.3516  0.0036
 6016W        W24220  14.885  14.334   0.790 -0.1397  0.1660  0.1306
 6017W        W24221   0.692   5.282  17.509 -0.0218  0.1362  0.0160
 6018W        W24222  16.481  11.651  12.350 -0.3340  0.2814  0.1760
 6019W        W24223  10.609   7.823   1.125 -0.1872  0.0978  0.0563
 6020W        W24224   2.439  16.280  16.804 -0.0290  0.1447  0.0484
 6021W        W24225  13.832   8.291   2.682  0.0342 -0.2201  0.0465
 6022W        W24226   9.710   1.591  14.007 -0.0909 -0.1928  0.1938
 6023W        W24227   0.450   3.826   4.232  0.1133 -0.2130  0.0331
 6024W        W24228  12.640   0.794  17.342 -0.1427  0.0889  0.1619
 6025W        W24229   4.594  17.195   4.311  0.0241  0.1188  0.3288
 6026W        W24230  14.763   1.827  13.040  0.5030 -0.0498 -0.0724
 6027W        W24231   1.011   0.675  13.174  0.0957  0.1647 -0.0166
 6028W        W24232   5.463   5.482   3.973  0.4563  0.0973 -0.0691
 6029W        W24233   2.975   0.137  12.071  0.3575 -0.0761  0.1225
 6030W        W24234  16.068  16.879  15.965 -0.1401 -0.1296  0.3435
 6031W        W24235   6.549   3.730  13.300 -0.2031  0.1705  0.1943
 6032W        W24236   4.068   5.610  15.404  0.0964  0.0564  0.3156
 6033W        W24237   2.436   9.437   2.381 -0.0790 -0.0879 -0.2139
 6034W        W24238   7.231   5.336  11.955  0.1079  0.1111  0.1340
 6035W        W24239   6.614  12.078   5.346 -0.0380 -0.2832 -0.2681
 6036W        W24240   4.107   9.491   1.668 -0.1509  0.1092  0.2648
 6037W        W24241  11.390   7.774   4.449 -0.2597  0.0671  0.1610
 6038W        W24242  12.662   4.915   2.272  0.1321 -0.1490  0.1636
 6039W        W24243  10.285   1.839  17.102 -0.1316 -0.0909  0.2712
 6040W        W24244   4.395   8.028   1.375 -0.1510 -0.3034  0.0748
 6041W        W24245  10.433  11.128   1.287 -0.1619  0.0769  0.0715
 6042W        W24246  15.462   0.912  17.079  0.0507  0.5208 -0.0767
 6043W        W24247  16.033   8.291   5.690 -0.0234 -0.0864 -0.1029
 6044W        W24248   1.824  15.222   0.219 -0.2042 -0.1185  0.3340
 6045W        W24249   8.361   1.811   4.997  0.1585 -0.1961 -0.1582
 6046W        W24250   9.885   1.451  14.948  0.0887 -0.1740 -0.0195
 6047W        W24251  10.564  12.992  12.838 -0.0221 -0.1978 -0.0470
 6048W        W24252  13.353   6.076   4.208 -0.0079 -0.2038  0.0861
 6049W        W24253  11.201  11.146   2.979 -0.0775  0.1084  0.0081
 6050W        W24254   3.867   7.507  12.646  0.3168  0.0725 -0.0483
 6051W        W24255   4.481  16.040  14.715 -0.0624  0.2009 -0.1118
 6052W        W24256   7.459   7.322  12.983  0.1575  0.0854 -0.0661
 6053W        W24257   0.471   9.699  14.515 -0.0196 -0.0070  0.1075
 6054W        W24258   7.669   7.301  16.653  0.3760 -0.0132  0.0896
 6055W        W24259   3.590   8.301   4.558  0.0495 -0.0542 -0.1592
 6056W        W24260   7.243   8.756  13.766  0.2216  0.0183 -0.1733
 6057W        W24261   2.091  16.575   5.789  0.3956 -0.2012 -0.3058
 6058W        W24262   5.613  15.341  17.264  0.0102  0.0716 -0.4803
 6059W        W24263   7.986  13.309   6.213 -0.0437  0.1341  0.0799
 6060W        W24264   7.105   8.845   2.430  0.3810  0.1653  0.0170
 6061W        W24265   8.363  15.311   2.854  0.0041 -0.0514 -0.0400
 6062W        W24266  14.158  11.376  14.897  0.4283 -0.0444 -0.3468
 6063W        W24267   1.517  12.788   2.392  0.1771 -0.0417 -0.0832
 6064W        W24268  10.800   9.279  14.987  0.1567 -0.0596  0.2536
 6065W        W24269   7.151   1.934  17.033 -0.0827  0.1202  0.0985
 6066W        W24270  10.843  14.696  12.842 -0.2298  0.0303  0.0144
 6067W        W24271   5.240   6.747   0.182  0.2912  0.0865  0.0368
 6068W        W24272   5.446   7.417   3.369 -0.2091  0.0220  0.0059
 6069W        W24273   9.211  10.973  14.084 -0.1688 -0.2790 -0.0678
 6070W        W24274  15.355  14.528   3.313  0.0250  0.1314  0.0512
 6071W        W24275   7.991  10.361  15.090  0.0012 -0.0318  0.0500
 6072W        W24276   0.059   8.121   6.482  0.2232 -0.3402 -0.1386
 6073W        W24277  12.660  12.992   0.515 -0.0644  0.1627 -0.0307
 6074W        W24278   7.245  10.403   5.524  0.3350  0.0886 -0.3798
 6075W        W24279   5.331   7.844  15.830  0.0197  0.0710 -0.1128
 6076W        W24280   7.642  10.280   2.692  0.0299 -0.0156 -0.2097
 6077W        W24281  14.623   1.414   1.362 -0.0933  0.1496  0.2642
 6078W        W24282   4.703  10.250  15.615 -0.0924  0.0448  0.0417
 6079W        W24283  15.884  10.097   0.830  0.0744  0.1353 -0.1658
 6080W        W24284   4.267   1.106  13.482 -0.2049 -0.0180 -0.1065
 6081W        W24285  11.390   8.221  14.388  0.1099 -0.1444 -0.0110
 6082W        W24286   2.738  15.605  17.046  0.1087 -0.0392  0.0981
 6083W        W24287  10.661  13.513   3.367 -0.1766 -0.0046 -0.1991
 6084W        W24288   6.221   9.148  14.631  0.0186  0.1999 -0.0312
 6085W        W24289  12.131  10.099  13.522 -0.0170 -0.1018  0.2569
 6086W        W24290  12.343   5.798   6.051 -0.0612  0.0729  0.0904
 6087W        W24291   1.277  11.850   2.550 -0.0304 -0.1729  0.0705
 6088W        W24292   9.456  13.142   0.204 -0.1685  0.0806 -0.0541
 6089W        W24293   4.965   7.310  14.647  0.1258 -0.0339  0.3295
 6090W        W24294  13.381   8.069   1.363  0.1920  0.1108 -0.3233
 6091W        W24295   8.514   2.993   0.055  0.3315  0.1455 -0.0040
 6092W        W24296   8.870  13.749   3.088  0.0638 -0.2621 -0.0233
 6093W        W24297  12.925   2.770  17.499 -0.1380 -0.1806 -0.0003
 6094W        W24298   3.553   9.994  13.731  0.0108 -0.0184  0.1272
 6095W        W24299  10.568  11.462   2.678  0.0262 -0.0496 -0.0104
 6096W        W24300   4.615   0.293   4.725 -0.0080  0.1270 -0.2175
 6097W        W24301  12.271   4.133   4.614  0.2061  0.3658 -0.1959
 6098W        W24302  14.347   0.976   1.457  0.0108  0.1380  0.3562
 6099W        W24303  14.192  16.705   1.045 -0.1095  0.1160 -0.0858
 6100W        W24304   6.669   3.093   2.550 -0.0564  0.1014 -0.2375
 6101W        W24305  12.271   4.324   0.106 -0.2246 -0.0943 -0.0522
 6102W        W24306  15.864  13.233  13.910 -0.1923  0.0570  0.1525
 6103W        W24307   5.059   2.204   0.603  0.1245  0.0536 -0.1021
 6104W        W24308   1.982   5.702  15.831 -0.0429 -0.1224  0.2546
 6105W        W24309  13.011   0.054   4.048  0.1662  0.0368 -0.0248
 6106W        W24310  16.690   6.722  15.366  0.0600 -0.0239 -0.1730
 6107W        W24311  15.917   7.538   2.601 -0.0961 -0.1074  0.2174
 6108W        W24312   6.627   5.604   3.780  0.0564 -0.0995  0.0484
 6109W        W24313  13.507   3.117  16.984  0.0643 -0.2247  0.1694
 6110W        W24314  12.219  12.406  16.599  0.0032 -0.2504  0.1009
 6111W        W24315   5.796  14.743  14.779  0.0434 -0.1205  0.1703
 6112W        W24316   9.475   8.692  16.793 -0.0894 -0.0418 -0.0026
 6113W        W24317  16.966   7.265  12.788 -0.0762 -0.1063  0.0457
 6114W        W24318  10.893  12.592  15.555 -0.0160 -0.0001  0.2040
 6115W        W24319   7.974   1.176  14.541  0.0568 -0.2814  0.0580
 6116W        W24320  11.881   4.458   2.726  0.0979  0.0327 -0.1287
 6117W        W24321   9.701   8.018  14.379  0.2221  0.1787 -0.0816
 6118W        W24322   6.942   0.983   3.189 -0.1083  0.0289  0.0412
 6119W        W24323  13.534   7.701  15.656  0.1526  0.4383 -0.0209
 6120W        W24324   7.451   2.104  12.602 -0.2756  0.1008  0.0061
 6121W        W24325   1.004   9.587  16.229 -0.1271  0.0656 -0.2368
 6122W        W24326   7.754   9.913   3.814 -0.4139  0.1702  0.0199
 6123W        W24327  11.522  17.064   3.329  0.0443  0.1274 -0.4025
 6124W        W24328   9.290  13.144   0.796  0.1928 -0.3165 -0.1018
 6125W        W24329   2.562  11.253  16.924 -0.1069 -0.1737 -0.4116
 6126W        W24330  17.011   9.288   0.038  0.0350 -0.0108  0.2992
 6127W        W24331   7.747   1.471  15.518 -0.0346 -0.3632  0.0331
 6128W        W24332   5.009   0.832  12.194  0.0899 -0.0285 -0.2316
 6129W        W24333   7.630   6.126  12.419 -0.0481 -0.1021 -0.1223
 6130W        W24334   0.234  12.276   5.226 -0.0654 -0.3636 -0.1458
 6131W        W24335   1.286  13.697   5.035  0.0887 -0.0912 -0.1522
 6132W        W24336   4.768   0.124   1.365  0.0972  0.2121  0.2409
 6133W        W24337  15.923  12.188   1.269  0.2716 -0.1332 -0.0715
 6134W        W24338   9.455  12.556  17.049  0.2593  0.2118 -0.1651
 6135W        W24339   5.251  13.610   4.487  0.0440 -0.0652  0.1198
 6136W        W24340   9.400   8.887   4.766  0.0450 -0.0162  0.0820
 6137W        W24341  16.687  13.366   4.739  0.1065 -0.1366  0.0565
 6138W        W24342  16.443   8.904   0.511  0.0457 -0.3836  0.0433
 6139W        W24343   8.596   9.265  17.388 -0.0549  0.1544 -0.1984
 6140W        W24344  14.412  13.035   1.085 -0.1032  0.0578 -0.0195
 6141W        W24345   5.631   1.607   0.313 -0.2402  0.1080  0.3804
 6142W        W24346  14.543  13.759   4.188 -0.0872  0.0573 -0.0520
 6143W        W24347   6.816  10.499   4.521  0.2865 -0.0277 -0.0333
 6144W        W24348   5.035   1.197   1.443  0.1479  0.3553 -0.1577
 6145W        W24349   6.120   7.618   1.236  0.0910 -0.0757 -0.1332
 6146W        W24350  11.411   3.159  15.354  0.0434  0.1470 -0.3132
 6147W        W24351  13.772  16.108   2.291 -0.1166  0.1544 -0.0111
 6148W        W24352   0.791   9.888   5.412 -0.0651  0.2477  0.1495
 6149W        W24353  12.416   0.910  13.433 -0.0081 -0.1079  0.3346
 6150W        W24354  16.540  15.179   4.702  0.1961  0.3260 -0.0001
 6151W        W24355   7.024   7.451   3.962 -0.1844 -0.5386  0.3049
 6152W        W24356   1.026  11.533  14.899  0.0633  0.0599 -0.0788
 6153W        W24357  14.794  16.072   1.388 -0.1420  0.0387 -0.0541
 6154W        W24358   5.331  11.453   1.914  0.1675 -0.0811  0.0729
 6155W        W24359   4.710  13.885  12.558  0.0481 -0.1329 -0.3485
 6156W        W24360   7.864   6.438  13.038  0.1248 -0.0915  0.3598
 6157W        W24361  12.839  16.191  13.616  0.1117  0.0426  0.0633
 6158W        W24362   0.448   1.808   3.125 -0.2322 -0.1630 -0.1506
 6159W        W24363  10.316   9.882   1.157 -0.2286  0.0402 -0.0535
 6160W        W24364  14.726   0.397   4.598  0.0281  0.3450 -0.2709
 6161W        W24365   1.702   2.407  17.221  0.0803 -0.2297  0.0168
 6162W        W24366  13.950  10.926  13.889  0.0253 -0.0874 -0.1567
 6163W        W24367  10.356   7.894   4.007 -0.0081 -0.2618  0.0479
 6164W        W24368   3.029  17.079   2.832 -0.0857 -0.0593  0.1098
 6165W        W24369  17.145   8.415   4.130  0.0252  0.0574  0.1424
 6166W        W24370  10.274   4.449  16.172  0.1186  0.0212 -0.1289
 6167W        W24371   9.400   6.186  15.285 -0.0316  0.1411 -0.1857
 6168W        W24372   8.533  15.483  16.032  0.0434  0.0300 -0.1035
 6169W        W24373   1.872   2.707  13.914 -0.3482  0.3415 -0.0590
 6170W        W24374  13.094   4.611  13.841 -0.0433 -0.0213  0.3045
 6171W        W24375   7.711   1.224   4.617  0.1066  0.0333 -0.0252
 6172W        W24376   0.110  14.294  13.590  0.0618  0.1225  0.0658
 6173W        W24377  11.386   9.432  15.239 -0.1990 -0.0215 -0.2381
 6174W        W24378   2.105  15.689  16.763 -0.0298 -0.0429 -0.1274
 6175W        W24379  17.120   2.069  15.151  0.1005 -0.0210  0.0224
 6176W        W24380   3.185   4.928  16.232  0.1441 -0.1099  0.0272
 6177W        W24381  12.588   0.172  12.087  0.0693 -0.0376 -0.4499
 6178W        W24382   0.067  10.250   4.722 -0.2964  0.0412  0.3375
 6179W        W24383   7.451   4.271  15.834  0.1166  0.2702 -0.2979
 6180W        W24384   2.724  12.333   2.350 -0.1585 -0.3348 -0.0845
 6181W        W24385  17.192   3.489  11.441 -0.1539  0.0228  0.0015
 6182W        W24386  15.676   3.404  15.006  0.0291  0.0489  0.0389
 6183W        W24387   0.865  13.024   3.926 -0.2534 -0.1141  0.0092
 6184W        W24388  13.857  16.299  14.677  0.0803 -0.1994  0.0454
 6185W        W24389  14.298  14.179   1.475 -0.0361 -0.4821  0.3410
 6186W        W24390   0.952  15.929  15.711  0.1493 -0.2625  0.3468
 6187W        W24391   5.586   4.047   3.978  0.0397  0.0357  0.0797
 6188W        W24392  14.854   1.171  17.136  0.0207  0.1896  0.2078
 6189W        W24393  11.610  15.946  14.657  0.1853 -0.1265 -0.0334
 6190W        W24394  11.311   7.165   4.751  0.2191 -0.0062 -0.1745
 6191W        W24395   9.834   3.067  16.192 -0.1185 -0.1406 -0.0083
 6192W        W24396   7.548  13.725   4.806  0.2594 -0.0875  0.1624
 6193W        W24397   7.666   8.622   3.965  0.1142  0.0380 -0.1125
 6194W        W24398   1.195   1.420  12.533 -0.1567  0.0588 -0.1641
 6195W        W24399  15.445  13.069  11.334  0.1503  0.0462  0.0321
 6196W        W24400  11.741   5.682   0.160 -0.2013 -0.0070  0.0862
 6197W        W24401   4.569   0.094  14.692 -0.1705  0.1267 -0.1567
 6198W        W24402   8.572  12.766  15.288 -0.0287  0.0173 -0.0223
 6199W        W24403   9.008   3.169   0.299  0.0710  0.5367 -0.1276
 6200W        W24404  13.944   8.715   4.108 -0.4679  0.1376 -0.1330
 6201W        W24405  16.443   7.607   2.548 -0.1924  0.0575 -0.0092
 6202W        W24406  16.588  16.029   5.160 -0.2444 -0.1562 -0.2435
 6203W        W24407  10.739   1.475   4.216 -0.1456  0.0541 -0.1938
 6204W        W24408   6.400   0.512  16.570 -0.2848 -0.0416  0.0419
 6205W        W24409  11.231   9.288  16.066 -0.1701  0.2786  0.4380
 6206W        W24410   8.075   1.282  16.342  0.2556  0.0841  0.2038
 6207W        W24411  16.178  15.357   5.097 -0.1649 -0.1600 -0.1529
 6208W        W24412  11.867  14.756  17.268 -0.1297  0.0309  0.1671
 6209W        W24413   6.904  13.291   3.954  0.2816  0.0080  0.1687
 6210W        W24414   6.866  11.398   4.182 -0.1670 -0.1624 -0.2156
 6211W        W24415  10.368  11.513  16.643 -0.0351  0.0401 -0.1133
 6212W        W24416  17.028   7.672  13.075 -0.2579 -0.0574 -0.4030
 6213W        W24417  14.109  16.664   4.001 -0.0770  0.2924 -0.0779
 6214W        W24418   7.431   4.419  12.299  0.0494  0.1631 -0.0447
 6215W        W24419  10.889  16.072   3.775  0.2306 -0.3474 -0.2553
 6216W        W24420  12.311   3.608   3.789  0.0787  0.0940 -0.0413
 6217W        W24421  11.490   3.302   1.366 -0.0769 -0.2413  0.0117
 6218W        W24422  16.315   8.384  15.310  0.3952 -0.1243  0.1693
 6219W        W24423   8.918   5.535  13.691 -0.0706 -0.1174  0.1233
 6220W        W24424   8.758   1.496  12.545 -0.1375  0.0585  0.0492
 6221W        W24425  14.688   2.175   2.598 -0.0151  0.1022 -0.0632
 6222W        W24426   8.769   7.924   2.103 -0.5107 -0.1939 -0.0627
 6223W        W24427   1.975   8.848  12.970  0.2564  0.2719 -0.3263
 6224W        W24428  13.408   1.771  14.567  0.0471 -0.2408  0.0375
 6225W        W24429  10.793  13.818   0.708 -0.1281  0.2420 -0.2157
 6226W        W24430   7.221   4.256  13.010 -0.1397  0.2372 -0.0044
 6227W        W24431   7.123  11.857   1.924 -0.2366  0.1364 -0.0248
 6228W        W24432  16.403   8.199   2.100  0.0438 -0.1133 -0.1305
 6229W        W24433  10.028   3.871   3.860 -0.0139 -0.0559 -0.2569
 6230W        W24434   9.576  14.121   1.973  0.1970  0.0275 -0.2843
 6231W        W24435   9.846   1.975  14.821  0.1176 -0.0054  0.1759
 6232W        W24436   9.090  15.127   1.222  0.0183  0.0760 -0.1529
 6233W        W24437   4.748   0.597  15.998 -0.0679  0.0393 -0.1088
 6234W        W24438  13.036   2.924   4.989  0.0604  0.3019  0.1793
 6235W        W24439  10.860   4.307  16.981 -0.0894 -0.2952 -0.3590
 6236W        W24440   7.656   1.037   0.448 -0.0930  0.1230  0.0961
 6237W        W24441  11.961  14.043   5.210  0.1880  0.0566 -0.0622
 6238W        W24442  11.827   9.418  13.308  0.0056 -0.1025  0.2530
 6239W        W24443  10.958   9.450   0.616  0.1276  0.0677 -0.1798
 6240W        W24444  10.296  12.636   3.408 -0.0736  0.0602  0.0475
 6241W        W24445  14.275   6.770  15.059  0.1178 -0.1197 -0.1108
 6242W        W24446  16.749  15.838   1.052 -0.2680  0.0589  0.0450
 6243W        W24447   0.570  15.108  13.222 -0.1213 -0.1389  0.1067
 6244W        W24448  15.464  10.772   0.594 -0.0531  0.0477 -0.0471
 6245W        W24449   6.364   5.444  17.199  0.4447 -0.2204  0.2103
 6246W        W24450   1.055   1.930  12.754  0.2151 -0.2436 -0.1157
 6247W        W24451   9.379   6.386  14.760  0.1211  0.0485  0.0785
 6248W        W24452   2.585   9.711  13.854 -0.1560  0.1573  0.3475
 6249W        W24453   2.729  17.192  14.755  0.3287 -0.0531  0.1139
 6250W        W24454   1.375   0.685   1.408 -0.0252  0.0499  0.2718
 6251W        W24455   1.965  12.455   4.347 -0.0050  0.0442  0.1202
 6252W        W24456  16.575   1.198   0.613 -0.1518  0.3539 -0.1480
 6253W        W24457   8.766   6.353   3.290 -0.3490  0.2159  0.1136
 6254W        W24458  11.425  15.475   4.622 -0.0884  0.3422  0.0800
 6255W        W24459  14.305  15.055   5.643 -0.3189  0.2173 -0.0468
 6256W        W24460  10.469  11.449   1.669 -0.1184 -0.0747 -0.0827
 6257W        W24461   1.594  10.057  14.013 -0.4404 -0.0089 -0.0162
 6258W        W24462  15.319  12.244  14.566 -0.1423  0.1395 -0.2164
 6259W        W24463  15.318   1.833   5.405 -0.0854 -0.0079 -0.0469
 6260W        W24464  17.189   6.623   4.569 -0.0223 -0.1681 -0.2672
 6261W        W24465   2.915   3.524   4.666 -0.1502  0.1079 -0.0216
 6262W        W24466   7.734  11.073  13.034  0.2914  0.0136  0.2499
 6263W        W24467   1.026  14.256  14.948 -0.1685  0.2703  0.1791
 6264W        W24468  10.948   6.520   3.635 -0.1167  0.2572 -0.0973
 6265W        W24469  13.936   6.142   1.511  0.2666  0.1323  0.0709
 6266W        W24470  14.227  11.803  15.237  0.0066 -0.0334  0.3426
 6267W        W24471   2.290   0.586  13.812 -0.0975  0.2133 -0.2699
 6268W        W24472   8.541   6.774  16.604 -0.0660  0.0701 -0.1274
 6269W        W24473  12.790   9.643   0.600 -0.3070  0.0452 -0.3472
 6270W        W24474   4.259  11.266   3.532  0.1480  0.2404  0.2896
 6271W        W24475  15.225  10.579   3.289 -0.0897 -0.1013 -0.2259
 6272W        W24476   3.793  17.256  10.849 -0.0741 -0.0594  0.1787
 6273W        W24477   5.941  16.603  16.466  0.1683  0.0789  0.0787
 6274W        W24478   7.404   6.108   2.225 -0.0061 -0.0399 -0.2099
 6275W        W24479  16.721  12.923   4.478  0.1475  0.0940  0.1909
 6276W        W24480   1.559  14.275  13.424  0.0129  0.0524  0.0240
 6277W        W24481   3.739   3.842  12.663  0.0757  0.2480  0.1326
 6278W        W24482   4.089   6.992   4.454  0.0877 -0.2824 -0.1011
 6279W        W24483   1.781  10.315  15.619  0.1500 -0.1979  0.3082
 6280W        W24484  16.138   0.040   1.047  0.0528 -0.2426 -0.1491
 6281W        W24485   1.053   2.302  17.160 -0.2034 -0.1943  0.0477
 6282W        W24486  10.881  13.369  12.343  0.1474  0.0139 -0.2313
 6283W        W24487   2.116   6.744   0.455 -0.2263  0.1856  0.1948
 6284W        W24488  14.899  13.791   3.133 -0.1916  0.2688  0.2032
 6285W        W24489   3.260  15.263   0.799 -0.0539 -0.1533 -0.1521
 6286W        W24490   2.259  16.884   4.806  0.0344 -0.1337 -0.1724
 6287W        W24491   3.328  11.761  13.861  0.1099 -0.2591 -0.1566
 6288W        W24492   1.664   7.334  14.992  0.0725  0.1666  0.0542
 6289W        W24493   9.736   4.885  15.192 -0.0126 -0.1800 -0.0709
 6290W        W24494   2.260   9.551   3.743 -0.2925  0.2203 -0.0898
 6291W        W24495  14.500   3.051   2.370 -0.0497 -0.0761  0.3692
 6292W        W24496  16.190  11.850  15.423  0.1778 -0.0488 -0.0615
 6293W        W24497   1.732  10.486  13.825 -0.1245  0.0867  0.0501
 6294W        W24498   1.303  10.335  15.425  0.0018  0.3559 -0.1218
 6295W        W24499   1.295   0.928  11.669  0.2570 -0.3901  0.2166
 6296W        W24500  14.267  12.140   2.140 -0.1254  0.0308  0.2598
 6297W        W24501   9.224  14.428  14.306  0.1090 -0.0766 -0.0885
 6298W        W24502   3.835   5.052   1.174 -0.2044 -0.5250  0.0004
 6299W        W24503   6.434  15.173   1.216 -0.1350  0.3641  0.2417
 6300W        W24504  15.966   7.665   2.091  0.1453 -0.0718  0.2847
 6301W        W24505  16.413  15.527  16.155 -0.0089 -0.0596  0.0412
 6302W        W24506  14.410   3.314  12.709  0.0534 -0.1474 -0.2443
 6303W        W24507  15.135   2.353   3.841 -0.5030  0.0193  0.0461
 6304W        W24508  15.118   8.759   2.762 -0.1446 -0.0819 -0.0234
 6305W        W24509   7.651  15.869   5.495  0.3185 -0.1509 -0.0683
 6306W        W24510  13.037  12.554   2.651 -0.3632 -0.1002 -0.0523
 6307W        W24511   0.388   6.697  12.506 -0.0847  0.2450 -0.2419
 6308W        W24512  14.704   8.783  13.921 -0.0282 -0.1179  0.0079
 6309W        W24513  11.885   2.731  13.308 -0.0564 -0.1409  0.1530
 6310W        W24514  11.651  16.378   4.464  0.0833  0.2062  0.2634
 6311W        W24515   7.183   8.139   0.649 -0.0798 -0.0170 -0.1873
 6312W        W24516  16.319  16.581   0.481 -0.1167 -0.1953 -0.1405
 6313W        W24517  15.150   5.246   5.330  0.0894 -0.2388 -0.0273
 6314W        W24518  11.252   9.059  13.213  0.3083 -0.1023  0.1359
 6315W        W24519   3.532  13.658  15.792  0.1765 -0.0092 -0.0258
 6316W        W24520  15.821  13.004   3.032  0.1559  0.2010  0.0909
 6317W        W24521   2.360  11.123   3.394 -0.1961 -0.4926 -0.3062
 6318W        W24522   5.476  11.249   4.313  0.0750 -0.1432 -0.0018
 6319W        W24523   8.383   1.316  12.238  0.0447  0.0809  0.2446
 6320W        W24524   8.789   4.965  15.603  0.0446  0.0657  0.1717
 6321W        W24525   4.109   4.444  13.187 -0.0761  0.0856 -0.1687
 6322W        W24526  17.250  13.037  15.360  0.2376  0.0056  0.2182
 6323W        W24527  15.533   9.060  16.683  0.3259 -0.0454 -0.1144
 6324W        W24528   5.950   5.055  12.047  0.0884 -0.2215  0.1259
 6325W        W24529  12.787  12.403   3.913  0.1380  0.1640  0.0151
 6326W        W24530  14.742  16.851   6.220  0.0609  0.0762  0.1103
 6327W        W24531  16.424  10.645  15.729 -0.2463 -0.1185  0.0671
 6328W        W24532   6.844   4.405   2.496 -0.2137  0.1411 -0.0647
 6329W        W24533   0.733   1.342  17.429 -0.0043  0.3173  0.3048
 6330W        W24534   0.217   0.757   4.230 -0.4359 -0.0712  0.2881
 6331W        W24535   5.530  12.291  14.629  0.2368  0.1689  0.0512
 6332W        W24536  16.737  16.862   2.489  0.1282  0.2453 -0.1022
 6333W        W24537   6.372   5.890  16.081 -0.0875  0.1990 -0.2811
 6334W        W24538  16.033   6.096  14.403  0.1670  0.2905 -0.1899
 6335W        W24539   8.502   6.836   4.495  0.0589 -0.0997 -0.3588
 6336W        W24540  11.665   3.875   2.698  0.1332 -0.1799 -0.4081
 6337W        W24541  15.436   0.019   2.762 -0.0775 -0.2847 -0.0567
 6338W        W24542  16.241  13.910   0.946 -0.1861  0.1610 -0.2355
 6339W        W24543   0.829   8.225   4.491 -0.3422 -0.1530  0.3589
 6340W        W24544   2.851  13.077   2.998  0.0682 -0.2089  0.0441
 6341W        W24545  17.025   4.250  15.010 -0.0329  0.0616  0.2560
 6342W        W24546   6.878   6.656  13.119 -0.0813 -0.2053  0.4360
 6343W        W24547  13.289   1.727  13.077 -0.1087  0.1205  0.1918
 6344W        W24548   8.155  13.120   3.278  0.0049 -0.0092  0.2737
 6345W        W24549  14.535   0.791   0.515  0.1969  0.1002 -0.0490
 6346W        W24550   8.138   5.415   0.489  0.1246 -0.0165 -0.5167
 6347W        W24551  13.040   6.604  16.584  0.4435 -0.3139 -0.2524
 6348W        W24552   2.497  12.816   0.251 -0.1576  0.1127  0.0375
 6349W        W24553   3.418   3.230  14.513 -0.1266  0.2096  0.0840
 6350W        W24554   4.919  10.404  13.881 -0.0988  0.0150  0.0643
 6351W        W24555  14.885   5.749  13.485  0.0834 -0.0835  0.2216
 6352W        W24556  12.525   6.661  15.010  0.0014 -0.1963 -0.2057
 6353W        W24557  15.248   7.126  13.594  0.0836 -0.1922  0.2074
 6354W        W24558  14.828  10.992   4.163 -0.2845 -0.1059  0.1001
 6355W        W24559   0.298   8.705   2.205 -0.0922 -0.5540 -0.0729
 6356W        W24560   5.924  14.594  13.852  0.1739 -0.1236 -0.1200
 6357W        W24561   9.176   9.710   0.005  0.1727 -0.2963 -0.0739
 6358W        W24562   4.065  10.593   1.924  0.3170  0.0327  0.1301
 6359W        W24563  14.793   3.880   0.092  0.1253  0.0155  0.1198
 6360W        W24564   6.772   1.539  15.295  0.0784 -0.0207  0.2844
 6361W        W24565  10.690   6.662   4.543  0.2197 -0.1536 -0.0445
 6362W        W24566   2.788   6.225  15.290 -0.0695  0.1054  0.0223
 6363W        W24567   6.577   6.314   5.000  0.2487 -0.0589  0.0943
 6364W        W24568   7.543   9.218  13.633 -0.0313  0.0505  0.0742
 6365W        W24569   8.014   3.112   2.890 -0.1745 -0.3488  0.0616
 6366W        W24570   3.938   4.959   4.994  0.0705 -0.0260  0.0118
 6367W        W24571  10.156  16.966  12.576  0.2198 -0.0435  0.0694
 6368W        W24572  12.155   9.210   2.250 -0.0902 -0.1333  0.0389
 6369W        W24573  16.664  13.585  13.168 -0.0799 -0.0367 -0.0979
 6370W        W24574   5.296  14.482  16.031  0.1151  0.0141 -0.3368
 6371W        W24575  10.892   2.372   2.389 -0.1424 -0.2731  0.2402
 6372W        W24576   1.208  14.142  14.504 -0.1657 -0.1277 -0.3373
 6373W        W24577  11.809   1.820  14.027  0.0988  0.3668  0.3163
 6374W        W24578  10.177  11.641   0.942 -0.2117  0.3737  0.0814
 6375W        W24579   5.041  11.910   1.966 -0.1980  0.0988 -0.4976
 6376W        W24580   0.889  11.516  17.395  0.2332  0.1801  0.3268
 6377W        W24581  13.924  10.007   5.594  0.0305  0.1399  0.2141
 6378W        W24582  11.348   2.637  13.388 -0.1754  0.1916 -0.0938
 6379W        W24583  13.136   8.117   0.863  0.1220 -0.0389 -0.3195
 6380W        W24584  13.129   6.936  17.439 -0.1744 -0.0088 -0.0651
 6381W        W24585  13.570  12.707  12.507  0.1471 -0.1374  0.1163
 6382W        W24586   4.410  11.984  14.832 -0.0790 -0.0650  0.0058
 6383W        W24587   9.612  13.606   0.089  0.1594 -0.1840  0.1814
 6384W        W24588  15.337   1.722  16.374 -0.0151 -0.2298 -0.0112
 6385W        W24589  16.418   0.022  17.475 -0.2662  0.3982  0.0798
 6386W        W24590   3.260  11.183  17.075  0.2853  0.2160 -0.0002
 6387W        W24591   3.032  15.036   3.044 -0.1269  0.1195 -0.3372
 6388W        W24592   4.870   9.989   1.323 -0.0339  0.0184 -0.1352
 6389W        W24593   7.467   0.726   4.616  0.1453  0.0878 -0.0101
 6390W        W24594  14.836   8.519  16.490 -0.1604  0.0475  0.0822
 6391W        W24595  17.152  11.618  15.673 -0.0609 -0.1413 -0.2070
 6392W        W24596  15.149   8.101   1.189  0.0788  0.0050  0.0454
 6393W        W24597   4.004   9.681  15.797 -0.0468  0.0528 -0.0137
 6394W        W24598  11.528  11.190  14.306  0.0738 -0.0644  0.0147
 6395W        W24599   2.811   8.462   0.372  0.2472 -0.0632 -0.0768
 6396W        W24600  10.139   6.670   0.918 -0.1799  0.1686 -0.0442
 6397W        W24601  14.324  13.239  15.064  0.4490 -0.3255  0.1239
 6398W        W24602  14.589   2.704   1.939  0.1104  0.0490  0.1544
 6399W        W24603  13.091   2.378  16.505 -0.2465  0.1525  0.2102
 6400W        W24604  14.678   2.815  13.252 -0.0570 -0.4222  0.0549
 6401W        W24605   3.004  11.236   5.182 -0.1957 -0.1613  0.1322
 6402W        W24606   6.818   8.311  14.821 -0.0557  0.0643 -0.0145
 6403W        W24607   4.397   7.269  12.557  0.0562  0.1365 -0.0301
 6404W        W24608   3.990   9.023  15.297 -0.0641 -0.1690 -0.0671
 6405W        W24609   9.070  13.074  13.523  0.0562 -0.2646 -0.0736
 6406W        W24610  15.059  13.079   3.672  0.0135  0.0625  0.2338
 6407W        W24611  13.380  10.517   3.804  0.1965  0.0652  0.2108
 6408W        W24612   9.410   6.071  12.984 -0.0077  0.1814  0.1138
 6409W        W24613  11.702   6.337  12.949 -0.2352  0.0217  0.0836
 6410W        W24614   2.811  15.680   3.987  0.0409  0.0612  0.0699
 6411W        W24615   2.650  10.322   3.999 -0.1291  0.1618 -0.0630
 6412W        W24616  13.083   6.004   2.896  0.1043  0.2679  0.0080
 6413W        W24617   9.952  14.901   0.782 -0.0789 -0.1286  0.1352
 6414W        W24618  14.441   0.825   4.435 -0.2512  0.1935 -0.0751
 6415W        W24619   4.679  17.100   0.966 -0.1452 -0.1846 -0.1815
 6416W        W24620   7.628  11.137  15.013 -0.2242  0.1238  0.0039
 6417W        W24621  16.903  15.732   2.695 -0.3314  0.0831  0.2087
 6418W        W24622  14.175   8.541  13.051  0.1342  0.1211  0.2226
 6419W        W24623  10.303   1.309  17.161  0.0417 -0.1305  0.2181
 6420W        W24624   3.431  12.919   1.020 -0.1011  0.3196 -0.1533
 6421W        W24625   7.413  13.504   4.051  0.2010 -0.3114  0.0986
 6422W        W24626   3.744  12.340   2.289 -0.1920  0.1485  0.4150
 6423W        W24627   6.806  14.625  12.418 -0.0931 -0.1421  0.1213
 6424W        W24628   0.302   4.579  16.500  0.3290 -0.1759  0.0435
 6425W        W24629   8.372   0.476   0.871 -0.1564 -0.1863 -0.1534
 6426W        W24630   8.975   1.163   3.019  0.0836  0.1600  0.1853
 6427W        W24631  10.951  14.032  15.072  0.1396 -0.0245 -0.1222
 6428W        W24632   1.115  13.222   4.849  0.1558  0.1274  0.0952
 6429W        W24633  12.831  14.198   4.269  0.0704 -0.0373 -0.0587
 6430W        W24634  11.486  12.525  13.970  0.0625  0.1528  0.1394
 6431W        W24635  14.028  16.398  15.139  0.0494 -0.0211  0.0661
 6432W        W24636   2.156  15.140  14.221 -0.0382 -0.0045 -0.1544
 6433W        W24637   9.119   9.764   1.726 -0.0981 -0.2197 -0.0918
 6434W        W24638   1.658   5.331  16.904 -0.0791 -0.0892  0.3836
 6435W        W24639   4.147  15.708   3.587 -0.0405 -0.1222  0.1765
 6436W        W24640   5.007   2.406  14.602 -0.0213  0.0429  0.1384
 6437W        W24641   3.428   6.543  13.411  0.1451  0.1167  0.1931
 6438W        W24642   7.824   2.976   1.211  0.0454 -0.1748  0.2567
 6439W        W24643  12.347  17.301   5.302 -0.0163 -0.2544 -0.0195
 6440W        W24644   9.880   5.924  12.867  0.2964  0.1947  0.2003
 6441W        W24645   9.483  12.458   5.121  0.4240 -0.2419 -0.1266
 6442W        W24646  15.633   7.765  15.730  0.0620  0.0191 -0.0400
 6443W        W24647   8.095   1.262   0.314 -0.1911 -0.0423 -0.0875
 6444W        W24648   8.843   4.745   3.512  0.1504 -0.1093 -0.0528
 6445W        W24649   7.186  15.642  15.959  0.1601 -0.4584 -0.2104
 6446W        W24650   5.206   0.652   5.133 -0.3729  0.1557  0.0694
 6447W        W24651   1.436   9.635   2.000 -0.0694  0.0369 -0.0516
 6448W        W24652  13.446  14.152   0.971  0.2654  0.0209 -0.0752
 6449W        W24653   8.831  10.534  13.196  0.1354 -0.1269 -0.1368
 6450W        W24654   1.473   3.182  16.903 -0.2943 -0.1324  0.0690
 6451W        W24655  12.046   6.505  16.011 -0.1032  0.2029 -0.0145
 6452W        W24656   7.028  12.660  12.932 -0.0831  0.2779 -0.0247
 6453W        W24657   3.586  13.296   4.947  0.0986  0.0615  0.1224
 6454W        W24658   1.442  11.192  16.712  0.0553 -0.0290 -0.1089
 6455W        W24659  10.332   2.481   4.187 -0.1526  0.1532  0.0601
 6456W        W24660  15.621  10.298  16.311  0.1718  0.2030 -0.0277
 6457W        W24661   1.395   7.771   5.126 -0.1150 -0.2575 -0.0454
 6458W        W24662  10.533   7.013   3.474 -0.2752  0.1303  0.0368
 6459W        W24663  15.018   6.632   1.668 -0.1163 -0.0022 -0.1007
 6460W        W24664  10.710  15.815  16.317  0.2560  0.0316 -0.1802
 6461W        W24665  16.436  16.833   1.873  0.3258  0.0040  0.0984
 6462W        W24666  17.151  11.122   3.131 -0.0452 -0.3490 -0.1570
 6463W        W24667   6.174   2.564   3.743  0.1584 -0.1599 -0.2720
 6464W        W24668  16.285   6.465   1.332  0.1711 -0.2151 -0.1164
 6465W        W24669   7.996   9.148   0.695  0.2355  0.2069  0.0749
 6466W        W24670  14.460   4.257   0.849  0.0247 -0.2767 -0.2572
 6467W        W24671  16.661  10.194  12.856  0.3026 -0.0689 -0.1718
 6468W        W24672  11.819   0.798   3.179 -0.0954  0.1700 -0.0274
 6469W        W24673  16.637   3.486  17.409  0.2979 -0.0171 -0.2091
 6470W        W24674  15.162  11.169   4.948  0.0836  0.0424 -0.0839
 6471W        W24675  13.814   1.941   4.587  0.1203  0.0845 -0.1837
 6472W        W24676   5.436  16.989  15.294  0.0775  0.1095 -0.1533
 6473W        W24677   1.399   3.583   4.381  0.0244  0.0764 -0.1671
 6474W        W24678   3.461   6.076  14.610  0.3310 -0.1379  0.0863
 6475W        W24679  11.088   6.557  16.873  0.0620 -0.1548  0.1915
 6476W        W24680   1.884   7.222   2.426  0.0475 -0.0786 -0.1766
 6477W        W24681   1.583   1.408   1.028 -0.0323  0.1911  0.2290
 6478W        W24682   2.957  15.369   2.396  0.1931  0.1692  0.0085
 6479W        W24683   0.723   8.132   5.006  0.2699 -0.2412 -0.2105
 6480W        W24684   9.369   4.429  11.025  0.2966  0.1016  0.0701
 6481W        W24685  16.110   2.269   5.084  0.2255  0.3142  0.3721
 6482W        W24686   7.630   4.264   1.447 -0.2173 -0.1916 -0.3319
 6483W        W24687  16.110   7.994  14.694 -0.1461  0.1431 -0.0751
 6484W        W24688  14.002  17.246  16.602 -0.0689  0.1791 -0.1406
 6485W        W24689  11.716  14.465   1.263 -0.1640  0.0344 -0.1000
 6486W        W24690   1.614   8.341  11.790 -0.0807  0.3428 -0.2523
 6487W        W24691   5.048  17.182  16.571 -0.3379  0.0033  0.2826
 6488W        W24692  12.127  15.384  14.656  0.4312 -0.0643  0.3290
 6489W        W24693  10.551   7.568  16.858 -0.0286  0.0026  0.1720
 6490W        W24694   2.156   7.119  13.615  0.0081  0.0284  0.2437
 6491W        W24695   9.639   9.181  16.964  0.1186 -0.1048 -0.4298
 6492W        W24696   6.709  16.578   0.027 -0.0336 -0.1069  0.0288
 6493W        W24697   1.226   9.537  14.013 -0.0174  0.2094  0.0854
 6494W        W24698   8.697   3.877   1.514 -0.0632 -0.0330  0.0873
 6495W        W24699  12.908   8.272   1.401 -0.1294  0.0147  0.0059
 6496W        W24700  13.447   5.985   0.249  0.2005  0.0041 -0.1479
 6497W        W24701   1.830  14.719  14.138 -0.0049  0.3163 -0.0070
 6498W        W24702   2.056   7.379  13.139  0.0197  0.0995  0.2455
 6499W        W24703  10.525   6.456   3.314 -0.0968  0.1697  0.0428
 6500W        W24704   5.726   7.266  15.393 -0.1184  0.0852  0.2035
 6501W        W24705   9.736   1.884   3.780 -0.0203 -0.1797 -0.0602
 6502W        W24706  12.175  17.117   0.517 -0.1478 -0.2115 -0.1529
 6503W        W24707   6.694   2.538   3.271 -0.0622  0.2946  0.2617
 6504W        W24708   1.485  12.936   1.321 -0.1358  0.0821  0.0608
 6505W        W24709  13.353   3.495   3.283  0.0601 -0.1643 -0.2820
 6506W        W24710  12.139   8.119   0.930  0.0367 -0.0692  0.2740
 6507W        W24711   1.654  14.094  12.331 -0.2534 -0.0311  0.0058
 6508W        W24712  16.595  10.036  16.488 -0.0824 -0.0489 -0.1026
 6509W        W24713  14.496   6.236  17.203 -0.1253 -0.1672 -0.0423
 6510W        W24714   6.421   8.115   1.359  0.2402  0.0760 -0.1038
 6511W        W24715   1.361   7.881   2.415 -0.1394 -0.0804  0.1643
 6512W        W24716   7.551   5.757   2.712 -0.0895 -0.0225  0.1473
 6513W        W24717  10.938  14.253  16.328  0.1286  0.1248 -0.0752
 6514W        W24718  12.289   1.242   5.574 -0.0433 -0.1009 -0.1792
 6515W        W24719  10.494  13.622   2.460  0.1342  0.2214 -0.1521
 6516W        W24720  10.059   3.556  16.096 -0.0723 -0.0395  0.0196
 6517W        W24721  13.433   7.849   3.915  0.2806 -0.0920 -0.4067
 6518W        W24722   4.078   4.576  13.698 -0.0944 -0.0370 -0.0022
 6519W        W24723  11.595   3.740  14.408 -0.2435 -0.0799  0.4056
 6520W        W24724  15.554   7.400   0.481 -0.0295 -0.3196 -0.2788
 6521W        W24725  15.988   9.654  13.160 -0.0037  0.1346  0.0507
 6522W        W24726   5.010   7.455  15.651 -0.2567 -0.4893 -0.3592
 6523W        W24727   5.427  12.811   3.420  0.1219 -0.3551 -0.1164
 6524W        W24728   1.965  16.210   1.882 -0.0654 -0.1453 -0.0186
 6525W        W24729  16.340  15.056  13.570 -0.1473 -0.1401 -0.2604
 6526W        W24730   4.860   8.794  14.881 -0.2392 -0.0256 -0.1914
 6527W        W24731   2.030  14.417  17.427  0.2845 -0.1783 -0.0810
 6528W        W24732  10.507   9.250   3.646 -0.1239  0.0276  0.0965
 6529W        W24733   2.383   1.422   1.739  0.1529  0.0422 -0.1997
 6530W        W24734   2.255   6.709  14.505  0.0629 -0.0089 -0.1216
 6531W        W24735   4.664   9.686   6.319 -0.1636 -0.2854 -0.0323
 6532W        W24736  15.641  12.923   0.546 -0.0826  0.2640 -0.0321
 6533W        W24737   5.444  11.986   0.561  0.1128  0.1005 -0.2875
 6534W        W24738   3.011   8.209   2.141 -0.0844 -0.1566  0.2133
 6535W        W24739  10.716  13.992  16.822  0.0995 -0.0917  0.0130
 6536W        W24740  13.633   5.277   1.007  0.2158  0.5738  0.1359
 6537W        W24741   3.608   1.752  12.394 -0.0527  0.0837 -0.1973
 6538W        W24742  15.268   3.196   2.844  0.0667  0.1011 -0.0908
 6539W        W24743   6.313   1.229   3.927  0.0765  0.2739  0.2617
 6540W        W24744  15.964   8.386   2.279  0.1276 -0.1105 -0.1287
 6541W        W24745   2.906   1.056  15.603 -0.2193 -0.2828 -0.0671
 6542W        W24746   5.084   9.791   4.158 -0.0227  0.1415  0.1130
 6543W        W24747   9.148   6.414  16.986  0.0222 -0.0644 -0.1206
 6544W        W24748   7.382   7.164   6.104  0.0026 -0.2750 -0.0022
 6545W        W24749  17.136   5.184   0.461  0.4548 -0.2536 -0.0720
 6546W        W24750   5.462  14.715  12.485  0.2556 -0.0471 -0.0524
 6547W        W24751   0.981  12.385   0.093 -0.5463  0.1376 -0.1104
 6548W        W24752  16.447   8.057  14.314  0.0186  0.1151  0.1134
 6549W        W24753  11.234  14.965   2.672 -0.2810 -0.0433 -0.3233
 6550W        W24754   0.892  11.921  14.655 -0.0044 -0.1004  0.3301
 6551W        W24755   7.083  10.041   0.165  0.0467  0.1691 -0.1820
 6552W        W24756   1.437   4.615  16.072  0.1357 -0.2215 -0.0813
 6553W        W24757   6.622  16.399  14.796  0.0202 -0.2874  0.0430
 6554W        W24758   9.711   5.342   2.125 -0.2553 -0.0266  0.1173
 6555W        W24759  13.437  10.394  16.979 -0.1377  0.3385 -0.0280
 6556W        W24760  15.971   5.730  14.761  0.1991  0.0947  0.3060
 6557W        W24761   2.011   2.665  15.014  0.0768  0.2609  0.2933
 6558W        W24762   1.554  14.564  12.388  0.1281 -0.3023  0.4427
 6559W        W24763   5.741  10.621   2.836  0.0185  0.1238  0.1365
 6560W        W24764  14.641   3.747   2.778  0.3806  0.2952  0.0914
 6561W        W24765   5.036   9.783   0.061 -0.0663  0.3711 -0.2267
 6562W        W24766  10.889   3.945  12.994 -0.0228 -0.3543 -0.0827
 6563W        W24767   2.014   9.116  15.450 -0.0113 -0.0928  0.0709
 6564W        W24768  15.280   9.509   4.349  0.0041 -0.0401  0.2369
 6565W        W24769  10.168  11.757   2.372  0.0223  0.0737 -0.5347
 6566W        W24770   6.146   0.073  14.753  0.0841  0.2846 -0.0191
 6567W        W24771  12.403  16.859  13.830 -0.0704 -0.0714 -0.0249
 6568W        W24772  16.651   9.703   4.550  0.1354  0.0175  0.0410
 6569W        W24773   3.809   9.692   4.525 -0.3193  0.3204 -0.3045
 6570W        W24774   0.859  13.532   5.248  0.1239  0.0565 -0.1693
 6571W        W24775  11.365   8.621   0.343 -0.2011 -0.1755  0.3669
 6572W        W24776   5.158   3.512  16.636 -0.1087  0.2583  0.0106
 6573W        W24777   3.853   0.895  13.653  0.0762  0.0295 -0.3415
 6574W        W24778  12.830   0.913   0.300 -0.0127 -0.2351  0.1929
 6575W        W24779   6.819   7.335   3.103 -0.0318  0.1453  0.1533
 6576W        W24780   5.589   5.763   1.799  0.0522  0.0785  0.0096
 6577W        W24781  14.447   2.121  14.657 -0.0904  0.1242  0.2295
 6578W        W24782  16.374  10.692  14.407 -0.2501  0.2931 -0.2578
 6579W        W24783   2.519   3.698  12.932  0.0680 -0.0174 -0.1501
 6580W        W24784   8.282  10.803   1.529 -0.0171  0.2497  0.0830
 6581W        W24785   5.947   6.805  15.600 -0.1984 -0.2042  0.0430
 6582W        W24786   9.314  11.658  14.860 -0.1480  0.1219 -0.2462
 6583W        W24787   0.665   8.755  16.612 -0.1739  0.1035 -0.1255
 6584W        W24788   0.906   9.156   4.870 -0.1088  0.0700  0.0210
 6585W        W24789  13.463   6.690   1.081  0.1894 -0.0921  0.2762
 6586W        W24790   7.080  14.010   3.234 -0.3618  0.2135 -0.0523
 6587W        W24791   5.953   0.414  16.772  0.1562  0.0522  0.0413
 6588W        W24792  12.092  15.283   2.316  0.0586 -0.0189 -0.2577
 6589W        W24793   1.915  14.305   3.564  0.1394  0.1020 -0.1118
 6590W        W24794   5.908  13.761  13.524  0.0332  0.0258  0.0967
 6591W        W24795   7.678  14.119   3.126 -0.1569  0.0035 -0.0665
 6592W        W24796   6.893  10.990   3.310 -0.0765 -0.0741 -0.0801
 6593W        W24797   6.524  11.757  15.546  0.0546 -0.0097 -0.1234
 6594W        W24798  15.732  14.099  12.587  0.0459  0.1800  0.0132
 6595W        W24799  16.119   1.563   4.175  0.2279 -0.0677  0.0082
 6596W        W24800   5.778   2.125   3.207 -0.0934 -0.1968  0.1104
 6597W        W24801   1.418   9.263   2.372  0.1815 -0.2360 -0.0273
 6598W        W24802   9.767  11.522  12.733  0.1842 -0.1130  0.5441
 6599W        W24803   9.322  10.299   2.587 -0.1146 -0.1949 -0.2483
 6600W        W24804  12.812   3.505  16.305 -0.2791  0.0970 -0.1528
 6601W        W24805   1.676  16.267  15.055 -0.1038 -0.0414 -0.1714
 6602W        W24806  12.968   5.963   3.869 -0.0670  0.1278  0.0627
 6603W        W24807   7.875  11.456  16.802  0.2284  0.1861 -0.0315
 6604W        W24808   7.913   3.704   1.182  0.1682 -0.1229 -0.2089
 6605W        W24809   4.433   8.652  12.854  0.2071  0.0814 -0.1395
 6606W        W24810   9.440  16.330  16.745  0.0895 -0.0359 -0.3134
 6607W        W24811   2.492  16.825   1.264  0.0076  0.1603  0.0676
 6608W        W24812  12.299   8.878   1.817  0.1111  0.0601 -0.1570
 6609W        W24813  16.457  16.078   1.344  0.0403 -0.1671 -0.0042
 6610W        W24814  12.045  12.774  12.924 -0.1031  0.0584 -0.2748
 6611W        W24815   2.594   6.332  17.028 -0.0953  0.1402  0.3396
 6612W        W24816   2.429   2.857  12.622 -0.2909  0.1530 -0.0643
 6613W        W24817  16.015   0.290   5.335 -0.0301 -0.0001 -0.0282
 6614W        W24818  16.536  17.087   4.653 -0.3352 -0.2392 -0.2202
 6615W        W24819   7.334  15.790  16.587 -0.2846  0.0276 -0.0635
 6616W        W24820  15.748   9.974   0.286 -0.0570 -0.3674 -0.0195
 6617W        W24821  14.127   9.690  13.986 -0.0693 -0.1953 -0.2114
 6618W        W24822  16.471   2.548   1.453  0.1229 -0.1425 -0.1330
 6619W        W24823   6.601   8.870  16.900  0.1543 -0.1853  0.0975
 6620W        W24824   7.842   0.447  12.730  0.3252 -0.0494  0.1103
 6621W        W24825  16.815   9.693   3.815  0.0632 -0.2759 -0.0405
 6622W        W24826  15.351  11.676   3.534  0.1801  0.0983 -0.6273
 6623W        W24827   4.962   3.246  17.368 -0.1410 -0.2035  0.1586
 6624W        W24828   9.532   0.968   4.402  0.0768  0.1566  0.0865
 6625W        W24829  11.614   1.007  13.541  0.3841  0.5350 -0.0077
 6626W        W24830  14.976   0.455   2.071 -0.1585 -0.0681 -0.3116
 6627W        W24831   7.274  16.832  13.556  0.0953  0.1513  0.1773
 6628W        W24832   9.541  15.251   2.449  0.2291 -0.0966 -0.1119
 6629W        W24833   7.986   3.588  16.545 -0.0969 -0.0288  0.0413
 6630W        W24834  14.068   7.416   0.115  0.1955  0.0302 -0.0597
 6631W        W24835  10.517   1.449  15.759 -0.0092  0.1410 -0.4361
 6632W        W24836   6.462  16.300   0.377 -0.1874 -0.0564 -0.0370
 6633W        W24837  14.248   1.519   2.302 -0.0669  0.3505  0.2870
 6634W        W24838  11.740   5.441   3.132  0.0795 -0.0814  0.2223
 6635W        W24839  12.477  14.527   4.265 -0.1747 -0.2287 -0.0835
 6636W        W24840  16.515  10.135   1.889  0.1354  0.0728 -0.1418
 6637W        W24841   9.077  13.837   1.274 -0.0273  0.1900 -0.0583
 6638W        W24842   0.955   4.429  15.268 -0.0505 -0.2143 -0.0414
 6639W        W24843   7.811  10.766  14.535  0.1007  0.0354  0.1460
 6640W        W24844   5.722  15.046  14.043 -0.0018 -0.1451  0.1509
 6641W        W24845   0.357   2.738   0.685 -0.1339  0.1426 -0.2158
 6642W        W24846   1.636  13.181  14.799  0.0338  0.1351  0.0317
 6643W        W24847   0.221   0.851  13.186  0.3457  0.2215 -0.1882
 6644W        W24848  12.913  13.988   0.028  0.1063 -0.0491 -0.0519
 6645W        W24849  13.411  16.402  14.877 -0.1158 -0.0352 -0.0915
 6646W        W24850   7.041   8.830  14.563 -0.1247 -0.0263  0.0499
 6647W        W24851  15.893   3.222  12.876 -0.0926 -0.1007  0.0511
 6648W        W24852   6.799   3.070   3.224 -0.0334  0.1216 -0.3426
 6649W        W24853   5.718   7.857  13.248 -0.0209  0.2391 -0.0128
 6650W        W24854  12.188   9.776  12.320 -0.0121  0.0987 -0.2448
 6651W        W24855   3.192   7.036   3.007 -0.0572  0.3204  0.1106
 6652W        W24856   2.606   9.829   2.792  0.2808 -0.1771 -0.3882
 6653W        W24857   1.044   0.767   4.290 -0.1039 -0.1107 -0.1289
 6654W        W24858  15.465   8.067   4.429  0.0585  0.3065 -0.0512
 6655W        W24859   9.059   8.576  14.182 -0.1955  0.0121 -0.1443
 6656W        W24860  14.001   8.941  13.454 -0.1346  0.0590  0.2382
 6657W        W24861  15.603  11.715  14.639 -0.0144  0.0166 -0.1881
 6658W        W24862   3.107  10.480   0.616  0.0256 -0.0987  0.0962
 6659W        W24863   3.775  16.210  15.624  0.2534 -0.2823  0.1810
 6660W        W24864   7.255   2.548  14.828  0.0170 -0.1754 -0.0999
 6661W        W24865  13.563   9.596  15.153 -0.1293 -0.2325 -0.0208
 6662W        W24866   7.840  10.955   3.300  0.0731 -0.3795 -0.0689
 6663W        W24867   0.509  13.977   1.803  0.0240 -0.0073  0.0866
 6664W        W24868   5.242   3.837   5.012 -0.1070 -0.1383 -0.1587
 6665W        W24869   7.015  13.832   1.237 -0.0651  0.3807  0.2382
 6666W        W24870   8.499  13.457  14.177 -0.1400  0.0470 -0.1169
 6667W        W24871   7.097   3.372  16.592  0.0589  0.0682 -0.4191
 6668W        W24872   1.029  10.227   4.245 -0.2080 -0.1662  0.2102
 6669W        W24873   5.602   3.049   0.606  0.1207  0.0419  0.1755
 6670W        W24874  14.984   9.124  14.320  0.1374 -0.3231 -0.0654
 6671W        W24875   4.202   3.026  14.610  0.0011  0.1455 -0.0221
 6672W        W24876   3.712  11.793   2.258 -0.0025  0.0205  0.1878
 6673W        W24877   3.385   5.651  17.128  0.0959  0.0440  0.0602
 6674W        W24878  13.262   2.339  15.728 -0.1545 -0.1822 -0.2656
 6675W        W24879  10.772  10.881   0.119 -0.1637 -0.1470 -0.1968
 6676W        W24880   9.113  10.832   1.346  0.4398  0.1204  0.0252
 6677W        W24881   8.957  16.307   3.788  0.0965 -0.1665  0.2392
 6678W        W24882   6.717  15.531   5.037 -0.1437  0.0239  0.1356
 6679W        W24883   5.061  15.971   2.518  0.0664 -0.1122  0.1105
 6680W        W24884  13.588  16.539  17.015 -0.1424  0.0437 -0.3355
 6681W        W24885  16.138   2.278  16.445 -0.1342  0.0817  0.2146
 6682W        W24886   2.086   1.559  16.519  0.0714 -0.1013  0.0447
 6683W        W24887  14.001  10.925   4.638 -0.1190  0.0955  0.2156
 6684W        W24888  10.044   9.782   2.449 -0.0501  0.0634  0.0682
 6685W        W24889  15.903   7.863   5.464 -0.0895 -0.1589 -0.1400
 6686W        W24890  11.497  16.570  14.080 -0.1429  0.0918 -0.4442
 6687W        W24891   4.409   4.618  14.394 -0.3902  0.1264 -0.1369
 6688W        W24892  17.013  14.847   5.678 -0.2077 -0.2809  0.0438
 6689W        W24893   1.656  10.117   1.401 -0.0892 -0.0914  0.1138
 6690W        W24894   4.577   4.315  16.554 -0.0621  0.0496  0.0644
 6691W        W24895   9.057   1.095   0.009 -0.2891 -0.0834  0.1790
 6692W        W24896  15.241   9.217  15.699 -0.3315  0.0287  0.2225
 6693W        W24897   8.551   4.581  17.242 -0.0457 -0.0591  0.0789
 6694W        W24898   8.417  17.046  11.768  0.1175  0.0254 -0.1188
 6695W        W24899   5.473  11.988   2.234 -0.0661  0.1066  0.2751
 6696W        W24900   1.433  16.908  13.615  0.0950  0.1609  0.2140
 6697W        W24901  13.461  16.212   2.740 -0.0175  0.3143 -0.0752
 6698W        W24902  12.420  16.275  15.174  0.1551 -0.0701 -0.2878
 6699W        W24903   7.215   6.878   4.873 -0.1003 -0.1337  0.0796
 6700W        W24904  15.123   6.132   0.956 -0.1456 -0.0347 -0.1182
 6701W        W24905   4.984  11.239  17.487  0.2774  0.1026  0.1099
 6702W        W24906   2.607  11.423   2.712  0.1404 -0.0044  0.0332
 6703W        W24907   9.148   5.058  15.930  0.0452  0.0710  0.1397
 6704W        W24908   9.935   0.417   5.298  0.0720  0.1029 -0.1599
 6705W        W24909  13.573  15.121   3.742  0.1023  0.3161 -0.1662
 6706W        W24910   6.785  15.109   3.514 -0.0862 -0.4116  0.1594
 6707W        W24911   9.332   6.614  15.600  0.0043  0.2243  0.1523
 6708W        W24912   5.427   0.641  14.099 -0.2612 -0.0051 -0.1856
 6709W        W24913   6.139   3.255   0.940 -0.1648  0.1803  0.3631
 6710W        W24914  11.579   6.522   3.600 -0.1504  0.0296 -0.0823
 6711W        W24915   1.114   1.292   3.820 -0.1292 -0.1311 -0.1656
 6712W        W24916   9.518  13.029  15.136 -0.0326  0.1546  0.1705
 6713W        W24917   1.590  10.271   0.858  0.1333  0.0116  0.2947
 6714W        W24918   8.793   4.973   2.807 -0.0608 -0.0149  0.0784
 6715W        W24919  12.664   1.096  12.953  0.1080 -0.2444 -0.0180
 6716W        W24920   3.301   9.112   2.425  0.2610 -0.0675  0.1878
 6717W        W24921   7.516   1.816   3.850 -0.1042 -0.0705 -0.1809
 6718W        W24922  16.846  12.352   2.577 -0.0418 -0.0943  0.2761
 6719W        W24923   0.155   4.853  14.080  0.1920 -0.2441  0.1398
 6720W        W24924   4.367  11.750  15.872  0.0272  0.0977 -0.2058
 6721W        W24925  13.472  13.862  15.960  0.1104 -0.0857 -0.0508
 6722W        W24926   8.257  16.999   1.514  0.0517 -0.0591  0.2056
 6723W        W24927   9.383   4.719   1.308  0.1517 -0.3227 -0.0706
 6724W        W24928   5.144   8.043   2.083 -0.1537 -0.1483 -0.0948
 6725W        W24929   4.462   1.413  15.276 -0.2060 -0.0457  0.3275
 6726W        W24930  13.691  14.744  14.207  0.2500 -0.0256 -0.0256
 6727W        W24931   8.765  15.083   3.139 -0.2321  0.0528  0.1685
 6728W        W24932   6.462  16.928  13.766  0.0121 -0.0479  0.0822
 6729W        W24933  11.039   2.950  15.611 -0.2200  0.1182  0.3270
 6730W        W24934   8.364   0.002  16.066 -0.1524 -0.2247 -0.2567
 6731W        W24935   5.643  12.398  17.094  0.0796 -0.0292 -0.2511
 6732W        W24936   3.594   7.493  11.433  0.1642  0.1762 -0.0658
 6733W        W24937  14.393  15.658  12.619 -0.0014  0.2277  0.2554
 6734W        W24938   4.511   9.134  13.167 -0.0007 -0.1796 -0.2638
 6735W        W24939   2.989   2.189   0.567  0.1187 -0.1187 -0.1031
 6736W        W24940   0.840   4.811  17.296  0.0720 -0.1420  0.1876
 6737W        W24941   8.560   9.244   2.645 -0.0446 -0.0484  0.0543
 6738W        W24942  14.956   0.134  12.361  0.1029 -0.0450 -0.0713
 6739W        W24943   8.571  14.886  12.321  0.0460  0.5926  0.3045
 6740W        W24944   5.193  11.668   3.640  0.0007 -0.3407 -0.0701
 6741W        W24945   8.775   8.520  12.840 -0.3655  0.3634 -0.1656
 6742W        W24946   0.555   8.281   1.446 -0.0842 -0.0792  0.2006
 6743W        W24947  14.545  10.953  13.248  0.0278 -0.0151  0.1673
 6744W        W24948  10.267   2.120  12.796 -0.1614  0.3067  0.1318
 6745W        W24949   1.067   3.159   4.558  0.1629 -0.0286  0.0102
 6746W        W24950  13.589   4.161   5.730  0.2968 -0.3432 -0.1103
 6747W        W24951   6.373   9.082  12.885 -0.0711 -0.0669  0.0606
 6748W        W24952   5.853   4.544   0.399 -0.0903 -0.3187  0.1614
 6749W        W24953   7.779   1.704   4.779 -0.1658 -0.2521  0.1197
 6750W        W24954  12.918   0.752  12.542  0.2240 -0.1367  0.0562
 6751W        W24955   0.181   7.636  12.152 -0.0244  0.2305 -0.0802
 6752W        W24956   9.678  10.221  12.122 -0.1837 -0.0704 -0.1120
 6753W        W24957   1.390  12.327  14.369  0.2883  0.0061  0.1942
 6754W        W24958   7.378   8.045   2.972 -0.1003  0.0531 -0.1627
 6755W        W24959   4.805   5.919   4.517 -0.2326  0.0769 -0.1434
 6756W        W24960   8.062  10.437   5.178 -0.0802  0.5603  0.3030
 6757W        W24961  12.979  17.022  15.621 -0.2465  0.1216 -0.0707
 6758W        W24962   3.739   9.482  13.927  0.0527 -0.1873  0.1269
 6759W        W24963   1.673  13.457   2.507  0.2827 -0.3417 -0.2988
 6760W        W24964  14.881  10.432  16.620  0.0146  0.1518  0.1001
 6761W        W24965  16.935  11.317   2.142 -0.1734  0.3396  0.2939
 6762W        W24966   4.625  10.847  12.527 -0.4455 -0.1068  0.1871
 6763W        W24967   6.734   6.145  14.387 -0.1051  0.1150 -0.1657
 6764W        W24968  14.164  14.780   2.472  0.0655 -0.1021 -0.1119
 6765W        W24969   2.770   3.658   1.263  0.1548  0.0483  0.1445
 6766W        W24970  14.937   2.218  14.939 -0.0335  0.3295  0.1780
 6767W        W24971   1.359   5.322   5.395 -0.1343 -0.0624  0.3088
 6768W        W24972   8.496   1.946   3.706 -0.0733 -0.3554  0.2205
 6769W        W24973   7.184   0.252  15.621 -0.1977 -0.2709  0.1129
 6770W        W24974   4.687   7.940  11.813 -0.1834 -0.0283  0.2655
 6771W        W24975   8.767   1.901  11.677 -0.1405  0.0432  0.0156
 6772W        W24976   4.545   9.490  13.544 -0.0586 -0.2623 -0.0327
 6773W        W24977   3.249   7.759   4.777 -0.0603 -0.1068 -0.0166
 6774W        W24978  13.501  11.866  12.560  0.2516 -0.0792 -0.0340
 6775W        W24979  13.217  11.567  16.843  0.1530 -0.2183 -0.0639
 6776W        W24980   4.938  16.865   4.139  0.1363  0.0975 -0.0118
 6777W        W24981   6.385   2.365   0.329  0.0043 -0.1028  0.0852
 6778W        W24982   4.705  10.711  16.022 -0.1317  0.0768 -0.0568
 6779W        W24983  10.074   0.306   1.345  0.1809 -0.0557 -0.0318
 6780W        W24984   5.435   4.141  13.225 -0.1513  0.0704  0.2658
 6781W        W24985   6.687  15.005  15.179  0.0291 -0.0132  0.1205
 6782W        W24986  12.968  15.778  17.434 -0.1851 -0.1356  0.0608
 6783W        W24987  10.355  16.863   1.832  0.0246  0.0962 -0.0945
 6784W        W24988   4.964  13.591   3.674 -0.1327  0.1670  0.2261
 6785W        W24989   3.960   8.879   3.247 -0.0075 -0.2071 -0.3514
 6786W        W24990   8.719  14.634   4.462  0.0141  0.1001  0.0759
 6787W        W24991   6.006   6.634  13.107 -0.1775 -0.0489 -0.0882
 6788W        W24992   1.759  14.083   4.414 -0.0124  0.1201  0.0582
 6789W        W24993   4.198  16.269   2.669 -0.0474 -0.1745 -0.0389
 6790W        W24994   4.784   2.479   4.247  0.1167 -0.1191 -0.1782
 6791W        W24995   7.482  10.865   1.247  0.0834  0.0995 -0.0450
 6792W        W24996  11.344   0.450  15.260 -0.2004 -0.0672 -0.1139
 6793W        W24997   9.043   9.327   2.943  0.2037  0.0755 -0.2140
 6794W        W24998   1.875  15.565   0.582 -0.1581 -0.0961  0.0302
 6795W        W24999   8.032   7.955  16.041 -0.1626 -0.3335 -0.0252
 6796W        W25000  11.509  16.019  17.441 -0.0463 -0.2095 -0.1231
 6797W        W25001  16.489   1.093  15.127 -0.1521  0.1932 -0.0297
 6798W        W25002  14.253   4.473   4.516 -0.2886  0.2151  0.3843
 6799W        W25003   6.714   5.577   4.535  0.3486  0.1286  0.1943
 6800W        W25004   7.896   7.104   1.115  0.1757  0.2551 -0.0634
 6801W        W25005  11.652   6.302   4.536  0.0161 -0.0642  0.0982
 6802W        W25006   1.213  11.719  16.654  0.1908  0.0409  0.0537
 6803W        W25007  14.695   0.609   2.883 -0.0552  0.1878  0.3246
 6804W        W25008   4.217  10.431  17.010  0.0262  0.1415  0.2509
 6805W        W25009  13.524  16.953   1.917  0.0513 -0.1732 -0.3322
 6806W        W25010   9.225   5.575   4.058 -0.0111 -0.1558  0.0122
 6807W        W25011   3.275   7.915  14.282 -0.2588 -0.0270 -0.4425
 6808W        W25012   4.832   8.340   1.301 -0.0827  0.2203 -0.0895
 6809W        W25013   7.233   6.662   2.092 -0.1986  0.1876 -0.2986
 6810W        W25014  16.219  11.479   2.933  0.2440 -0.0932  0.1773
 6811W        W25015   3.326  14.204   4.650  0.2059 -0.0038  0.1545
 6812W        W25016   8.151   6.852  13.189 -0.2090 -0.1391 -0.1694
 6813W        W25017   6.814   5.327   0.206  0.0523 -0.1174  0.3195
 6814W        W25018  14.772  12.657  13.981 -0.1670  0.0747  0.2320
 6815W        W25019   5.044  11.531   2.314  0.3850 -0.1837 -0.0180
 6816W        W25020   4.551   8.467   3.249 -0.0185 -0.0261  0.0424
 6817W        W25021  16.602  13.299  17.006  0.0834 -0.1769 -0.3114
 6818W        W25022   3.077   0.778   0.180 -0.3022  0.5825 -0.1478
 6819W        W25023   2.603   4.024  15.855  0.2367 -0.0822 -0.1286
 6820W        W25024   7.238   1.885  13.124 -0.2287 -0.0511 -0.1706
 6821W        W25025   8.087   0.200   2.847  0.1140  0.0158 -0.0164
 6822W        W25026   3.867   3.424   3.089 -0.0887 -0.3385  0.1052
 6823W        W25027   1.385   9.245   5.071  0.0940  0.0190  0.2720
 6824W        W25028  15.248  16.948  14.203  0.0788  0.1155 -0.1149
 6825W        W25029   7.393   1.952   1.173 -0.0728  0.1754  0.1671
 6826W        W25030   0.712   9.944  15.383  0.0110 -0.0567  0.2936
 6827W        W25031   4.731   7.555   5.151 -0.3783 -0.2147  0.3165
 6828W        W25032  13.208   0.006  15.204 -0.3175  0.1453  0.0584
 6829W        W25033  13.003  10.592   0.462 -0.2337 -0.0628 -0.2442
 6830W        W25034   6.132   4.427   2.780  0.0160  0.3755 -0.1268
 6831W        W25035   5.927  15.209  16.882 -0.1848  0.2548  0.1795
 6832W        W25036  14.005   8.996  14.402 -0.0790 -0.1583  0.2622
 6833W        W25037   3.529   8.752   2.703  0.0586 -0.0231  0.2755
 6834W        W25038   1.065   6.832  13.910  0.0086 -0.0000 -0.0637
 6835W        W25039   6.543  12.216  14.810 -0.1790  0.0500 -0.0949
 6836W        W25040   4.499  14.414   4.527 -0.1557 -0.1304 -0.0997
 6837W        W25041   5.332   4.442  17.220  0.1386 -0.0188 -0.1972
 6838W        W25042   4.404  13.782   1.046 -0.1241  0.1174 -0.0366
 6839W        W25043   6.468   2.504  17.284  0.1892  0.0322  0.1125
 6840W        W25044  11.139   9.191   4.756  0.0008 -0.0079 -0.1281
 6841W        W25045   5.839   2.371  13.572 -0.1450  0.0149 -0.0780
 6842W        W25046   7.047   4.816   1.018 -0.1868  0.1096 -0.3797
 6843W        W25047  10.875  10.840   0.608  0.1627  0.0060  0.1266
 6844W        W25048   3.111   8.422  14.148 -0.0723  0.1085  0.0936
 6845W        W25049   0.924  11.788   0.840 -0.3587  0.1734  0.0752
 6846W        W25050   5.972   7.240   4.354  0.0534 -0.1968  0.1237
 6847W        W25051   5.851   6.660  13.612 -0.1620 -0.0054  0.1545
 6848W        W25052   4.363  16.049   2.257  0.1588  0.1780 -0.1410
 6849W        W25053   4.335   0.296  13.035 -0.1633 -0.1229 -0.0346
 6850W        W25054  14.147   7.571  14.401 -0.0063 -0.0233  0.1856
 6851W        W25055   6.257   0.164   4.708 -0.1523 -0.2470 -0.1388
 6852W        W25056  12.673  16.765   2.775  0.0086  0.0706 -0.1361
 6853W        W25057   4.631  10.701  14.203  0.0657 -0.0940  0.0730
 6854W        W25058   4.417  10.852   1.469  0.0396 -0.2798  0.0214
 6855W        W25059   6.173   8.004  12.590  0.2983 -0.0908 -0.0143
 6856W        W25060   8.068   2.367  16.114 -0.0347  0.1883 -0.0175
 6857W        W25061   6.400   9.798  12.380 -0.3164 -0.1868  0.1683
 6858W        W25062   7.095  11.383   0.626 -0.2962 -0.0025 -0.0949
 6859W        W25063   0.338  17.207  16.659  0.0875 -0.1577 -0.1230
 6860W        W25064   7.408   0.856   5.237  0.3443 -0.0857 -0.2478
 6861W        W25065   2.660  14.690   0.804 -0.3806 -0.2688 -0.3051
 6862W        W25066   0.049  12.570   0.184  0.0468  0.2304 -0.1405
 6863W        W25067   2.338  14.727   1.329  0.3401  0.0295  0.1904
 6864W        W25068   8.875  13.094   0.551  0.0351 -0.1020  0.0013
 6865W        W25069   2.114  15.974   3.151  0.0174  0.1270  0.0113
 6866W        W25070  11.703  10.014  15.975 -0.3838 -0.0818  0.2210
 6867W        W25071   5.143   6.580   2.323 -0.4008 -0.0647 -0.0538
 6868W        W25072   4.828  14.073  13.104  0.2057  0.3032  0.1733
 6869W        W25073  10.374   4.316  17.212 -0.1415  0.0010  0.0808
 6870W        W25074   0.848   1.904  14.009  0.1447 -0.2443 -0.0135
 6871W        W25075  12.043   6.216  12.598 -0.2452 -0.0286  0.2500
 6872W        W25076  14.873  16.776  16.665  0.1319 -0.1283 -0.1771
 6873W        W25077  10.335   4.592  13.451  0.3412 -0.1420 -0.1383
 6874W        W25078   4.207  16.446  14.876  0.0273  0.0093  0.2070
 6875W        W25079  13.911   0.762  17.052  0.1302  0.3872 -0.2149
 6876W        W25080   7.334   9.537  12.376  0.0621 -0.0107 -0.2783
 6877W        W25081  16.962   1.468  15.942 -0.1479  0.2663  0.3997
 6878W        W25082  14.139  11.333   6.208  0.1901  0.1927  0.1173
 6879W        W25083   5.586   6.748   2.687  0.1167  0.0316 -0.1597
 6880W        W25084  15.591   5.236  13.820 -0.0134  0.0514  0.2548
 6881W        W25085  15.268  17.032  13.184 -0.1743  0.0721 -0.1557
 6882W        W25086  14.042   8.938  17.185  0.1312 -0.0635 -0.2549
 6883W        W25087   5.349   0.541  16.156 -0.3410  0.0273  0.1289
 6884W        W25088  16.361  13.558  12.793  0.0649 -0.1599  0.0779
 6885W        W25089   8.782   6.324   2.194  0.1632  0.0943  0.0691
 6886W        W25090   3.533   0.981   0.403 -0.0571 -0.2176 -0.2720
 6887W        W25091   0.855  10.675   4.346  0.0082  0.0515 -0.2069
 6888W        W25092  16.954   7.064   1.508  0.0150 -0.0354  0.1832
 6889W        W25093  16.819  11.844  12.763  0.2660 -0.3043 -0.0590
 6890W        W25094  15.854   9.956  13.574  0.0545 -0.2931 -0.1952
 6891W        W25095  16.495   9.986   2.896 -0.1054  0.0604  0.0505
 6892W        W25096  14.286   3.878   3.548  0.0865 -0.0137 -0.2761
 6893W        W25097   2.256  15.249  14.768 -0.0631 -0.1164 -0.0958
 6894W        W25098   8.261   4.667   3.584 -0.2217 -0.0570 -0.0977
 6895W        W25099  15.733   4.580  15.343 -0.0635 -0.1553 -0.2583
 6896W        W25100   4.976   3.640   1.152  0.1341  0.3533  0.0644
 6897W        W25101   7.872  16.497  14.131  0.2368 -0.0902 -0.2948
 6898W        W25102  16.082  10.383   5.432 -0.0645  0.1834 -0.0978
 6899W        W25103  11.609  15.967   2.446 -0.4063 -0.0536 -0.0613
 6900W        W25104   4.678   0.349  12.612 -0.1070  0.1283  0.2936
 6901W        W25105   9.051   4.537   2.650  0.3886  0.3523 -0.4211
 6902W        W25106   0.474  12.800   0.416  0.1050  0.1333 -0.1800
 6903W        W25107   4.642   0.807   0.389  0.2525 -0.2680  0.0458
 6904W        W25108  11.407   6.136   2.747  0.2938  0.1167 -0.0856
 6905W        W25109   3.097  12.237   4.023  0.0084  0.4987  0.0935
 6906W        W25110   5.966   8.356  16.626  0.1762  0.2300  0.0435
 6907W        W25111   0.267   3.279  16.325 -0.0845  0.2338  0.0173
 6908W        W25112   7.199   2.967  15.353  0.2233  0.0250  0.1285
 6909W        W25113   6.754   1.703  16.108  0.1804  0.2328 -0.0875
 6910W        W25114  16.912   7.871   1.920 -0.0942  0.1542  0.0126
 6911W        W25115  10.913   9.702  16.235  0.3655 -0.2870  0.0841
 6912W        W25116   7.306   9.228   0.050  0.3585 -0.1623  0.0917
 6913W        W25117   5.957   0.141   1.867  0.1612  0.0290 -0.0627
 6914W        W25118   1.612  11.550  16.230 -0.0289 -0.0374 -0.0772
 6915W        W25119   6.599   4.520   1.937 -0.0521 -0.0904  0.0897
 6916W        W25120   7.576  10.638   0.765 -0.2169  0.2318 -0.1742
 6917W        W25121   0.231   6.791  16.380 -0.0928  0.3203 -0.2207
 6918W        W25122  15.804   5.859  13.050  0.0181  0.2247 -0.4760
 6919W        W25123   0.579  12.640   1.230 -0.0974  0.1411  0.0621
 6920W        W25124   0.492   6.001   1.259 -0.2230  0.1690  0.4022
 6921W        W25125   3.330   2.855  15.521  0.2534 -0.2192  0.3288
 6922W        W25126   4.785  13.628   4.203 -0.0069 -0.1661  0.2048
 6923W        W25127   1.918   8.656  16.832 -0.2041  0.2202  0.1180
 6924W        W25128   4.907  10.051   3.590 -0.0229 -0.0054  0.1425
 6925W        W25129   6.965  11.171  16.717  0.0126 -0.1236 -0.2374
 6926W        W25130   4.864  16.348  12.175  0.0667 -0.2176 -0.2967
 6927W        W25131   1.306  17.184   4.817  0.0275  0.0832 -0.0120
 6928W        W25132   4.242  14.043  12.390 -0.1973 -0.0652 -0.2005
 6929W        W25133   0.688  10.700   3.333  0.1093  0.0692  0.0198
 6930W        W25134   6.876  12.005   0.853  0.0449  0.0399  0.0114
 6931W        W25135   0.134  15.375  13.988 -0.0909 -0.1090 -0.1744
 6932W        W25136   1.183  12.272   2.934 -0.3252 -0.4273  0.1933
 6933W        W25137   4.432   5.397  12.528 -0.3537  0.2560 -0.1878
 6934W        W25138  14.028  16.012   3.738 -0.1212  0.2178 -0.1103
 6935W        W25139   2.622   5.901   4.394  0.1106 -0.1420  0.1992
 6936W        W25140   6.089  11.993   2.923  0.0726  0.0133 -0.0292
 6937W        W25141   1.407   8.306  15.596 -0.2740  0.1209  0.0946
 6938W        W25142   1.483   9.400   3.394 -0.1986 -0.0696  0.0350
 6939W        W25143   5.162   2.919  13.639 -0.2122 -0.4142  0.0626
 6940W        W25144  10.867  16.884  14.093  0.0636  0.3536 -0.1405
 6941W        W25145   6.555   9.906  13.664 -0.2803 -0.1500  0.0955
 6942W        W25146   2.224   0.757   2.490 -0.0611  0.0119  0.0081
 6943W        W25147   0.798   9.725  12.922  0.1937 -0.0360  0.0142
 6944W        W25148  10.452   0.491  15.848  0.0286  0.1500  0.2787
 6945W        W25149  13.582  10.697   4.817  0.1737  0.0751 -0.0264
 6946W        W25150   2.839  12.775   2.610  0.0386 -0.0409  0.1043
 6947W        W25151  11.954  16.695  12.948 -0.2650  0.2167  0.3454
 6948W        W25152   4.582  13.967   3.616  0.2978  0.1082  0.1657
 6949W        W25153   1.951   1.998   5.214 -0.1995 -0.0801  0.2273
 6950W        W25154  12.342   9.529   3.665  0.1397  0.1748 -0.0815
 6951W        W25155   6.811  12.081   3.069 -0.0608 -0.0615  0.0886
 6952W        W25156  17.218   5.979  12.806 -0.4113  0.1503  0.1061
 6953W        W25157   9.251   9.807   3.760 -0.0646 -0.2485  0.2361
 6954W        W25158  16.534   5.441  17.255 -0.0440 -0.1445 -0.1025
 6955W        W25159  17.172   9.620   1.274 -0.0128 -0.0932  0.0383
 6956W        W25160   6.743   2.530  15.359 -0.1373  0.1051  0.1607
 6957W        W25161   4.928   3.271  16.136  0.0749  0.1641  0.0286
 6958W        W25162  10.925   8.836  13.526 -0.3288 -0.0314 -0.0246
 6959W        W25163   4.793  10.660   0.829 -0.0643  0.1242  0.1722
 6960W        W25164   4.298  12.060   4.701  0.0889  0.1116 -0.4709
 6961W        W25165  12.750  14.800  12.669 -0.0050 -0.1718 -0.1816
 6962W        W25166  14.372  14.541  16.431  0.3765 -0.1124  0.0727
 6963W        W25167   8.967   9.672   5.727  0.3450  0.0580 -0.2028
 6964W        W25168  12.201   8.815   3.519 -0.0680  0.0452  0.0799
 6965W        W25169   7.239  14.901   3.496  0.3091  0.0726 -0.0596
 6966W        W25170  15.674   6.019   1.403  0.5056 -0.1382 -0.0188
 6967W        W25171   2.878  14.635  11.399  0.0957  0.0106 -0.0406
 6968W        W25172  12.887  14.111  15.126  0.1029 -0.0515  0.1373
 6969W        W25173   1.602  15.011   1.432 -0.3285  0.1114  0.3514
 6970W        W25174   4.904  11.315   1.663 -0.1183  0.0116 -0.0574
 6971W        W25175   0.734  17.209   3.510 -0.2201  0.0926  0.0851
 6972W        W25176   0.889  13.427   2.622  0.2203 -0.2418 -0.0698
 6973W        W25177   0.214   1.540   0.577  0.2529 -0.1114  0.1381
 6974W        W25178   5.777   0.095   0.334 -0.0064 -0.0361  0.0788
 6975W        W25179   2.220  13.747   4.987  0.3171  0.3210 -0.1231
 6976W        W25180   4.072  13.450  15.572 -0.2100  0.1147  0.1736
 6977W        W25181  12.820  11.275  12.893 -0.3215  0.0639 -0.1109
 6978W        W25182   7.828   7.797  14.564 -0.1321  0.2354 -0.1310
 6979W        W25183  14.575  11.730   2.337 -0.2361  0.0621 -0.0862
 6980W        W25184  15.029   1.577  13.378 -0.1320 -0.2328 -0.1442
 6981W        W25185  15.718   6.952   0.939  0.0775  0.3099 -0.1137
 6982W        W25186  10.079   7.344  12.040 -0.0718  0.2887  0.0919
 6983W        W25187   9.042   1.820  14.430  0.0342  0.0052 -0.0805
 6984W        W25188   7.181   7.394   4.742  0.1032  0.1327  0.0598
 6985W        W25189   6.292  16.833   3.032 -0.0150 -0.1534 -0.0101
 6986W        W25190  14.123   7.590   2.182 -0.1511  0.1343  0.1493
 6987W        W25191  12.853  14.716   3.940  0.0184 -0.0772 -0.0162
 6988W        W25192  10.206  14.993   4.550  0.0295  0.0167  0.0067
 6989W        W25193   0.724   8.390  17.396 -0.1699  0.0153 -0.0825
 6990W        W25194   6.631  12.816   3.132  0.3275  0.0437 -0.1333
 6991W        W25195  13.120   3.009   5.479 -0.1218  0.1221  0.1228
 6992W        W25196  15.143  13.348  12.393  0.2209 -0.0232 -0.1244
 6993W        W25197  15.113   6.121  15.746  0.0516  0.0456  0.1251
 6994W        W25198   4.499  13.086  17.236  0.1717  0.0413  0.2823
 6995W        W25199   6.376   6.306  14.838 -0.2648  0.0292 -0.1986
 6996W        W25200   0.515   3.482   2.407 -0.2155 -0.1644 -0.0869
 6997W        W25201  11.238   9.828   1.824 -0.0262  0.0229  0.1430
 6998W        W25202   1.024   3.525   2.247  0.1002  0.0606 -0.0030
 6999W        W25203  13.469  13.135   5.002  0.2518  0.1958  0.2650
 7000W        W25204   3.290   6.495  15.474  0.1270  0.1137 -0.3077
 7001W        W25205   7.035   3.302   1.227 -0.2784 -0.3136 -0.0167
 7002W        W25206   9.609   2.077  12.673 -0.2213 -0.2163  0.0834
 7003W        W25207   4.166   4.337  14.711  0.2300  0.3492 -0.1315
 7004W        W25208  10.495   3.068  12.969  0.0709 -0.1217  0.0384
 7005W        W25209   7.638   5.788  16.474  0.2271  0.2084  0.0613
 7006W        W25210   2.083  16.574   0.833 -0.1695 -0.0986  0.1786
 7007W        W25211  13.781   4.511  12.277  0.2432 -0.0917  0.2771
 7008W        W25212   8.841   1.949   5.184  0.0253 -0.0033  0.2337
 7009W        W25213  16.904   7.737   3.343 -0.3803 -0.1860  0.3862
 7010W        W25214  12.119   4.167  12.217  0.1182 -0.0574  0.1839
 7011W        W25215   4.281   1.510  14.283  0.0475  0.0742  0.0435
 7012W        W25216   9.647  15.779  16.766 -0.0956  0.0293 -0.1624
 7013W        W25217  13.391   1.739   4.779  0.0595 -0.0695 -0.3091
 7014W        W25218   3.492   0.901  17.372 -0.0516 -0.0556  0.4562
 7015W        W25219  12.801  12.263  13.840 -0.1151  0.1618  0.0930
 7016W        W25220  12.339   3.347   5.025 -0.1326 -0.1275 -0.1535
 7017W        W25221  14.882   2.313  14.440  0.3961 -0.1531  0.1183
 7018W        W25222   7.716   9.514   4.242 -0.0571  0.2169  0.0048
 7019W        W25223  11.411  12.822   5.193  0.2145 -0.1019  0.0893
 7020W        W25224  11.130   7.090  13.017  0.0217 -0.0270 -0.2904
 7021W        W25225   2.546   5.584  15.930  0.0192  0.1815  0.0647
 7022W        W25226   1.677  15.416  17.258 -0.2275  0.1507  0.0762
 7023W        W25227   8.554  11.481  15.416 -0.1930  0.1380  0.1990
 7024W        W25228   0.384   7.297  15.519 -0.1278 -0.0960  0.1254
 7025W        W25229   2.321   5.900   2.124  0.0638 -0.1255  0.0490
 7026W        W25230  16.621   2.255  16.424  0.0189 -0.1326  0.0464
 7027W        W25231  10.578   4.638   2.057  0.2570  0.1116  0.1232
 7028W        W25232   4.662  14.600   3.202 -0.2812 -0.0598  0.1907
 7029W        W25233   6.874   0.450  16.273  0.2642 -0.2838 -0.0293
 7030W        W25234  15.637  11.194  15.539 -0.1115  0.3947  0.0074
 7031W        W25235   9.145  15.692  14.690 -0.2170 -0.1354 -0.1285
 7032W        W25236   6.160   9.595  16.712 -0.1670 -0.0885 -0.1246
 7033W        W25237   4.630  12.365   4.323  0.0068 -0.6226  0.3753
 7034W        W25238  15.454  15.559  13.577 -0.2671  0.1347 -0.7365
 7035W        W25239  14.760  12.162   2.073 -0.1625  0.3122 -0.0802
 7036W        W25240  15.258   3.657  15.238  0.0066  0.0540  0.2171
 7037W        W25241   8.162  10.384  14.560  0.2420 -0.0852 -0.0486
 7038W        W25242   7.092   9.832  16.326 -0.0694 -0.0201  0.1030
 7039W        W25243   7.991  16.158  12.322  0.0169  0.3236  0.1982
 7040W        W25244   3.210  15.251   3.642  0.3323 -0.0907  0.1373
 7041W        W25245   8.728   8.515   2.090  0.0702  0.1240 -0.4001
 7042W        W25246  11.337  11.074  12.301  0.0732  0.1441  0.0765
 7043W        W25247  16.694   7.291   1.082 -0.1668 -0.3044  0.2101
 7044W        W25248   3.578   0.945  12.170 -0.0558 -0.2495 -0.1198
 7045W        W25249   4.430   2.612  14.849  0.0699 -0.1711  0.0577
 7046W        W25250  12.326  13.049  14.851 -0.0402  0.0184  0.1534
 7047W        W25251   5.216   6.729   4.644 -0.0001 -0.1148  0.1381
 7048W        W25252   1.474  11.855   5.528 -0.0052 -0.1413 -0.1144
 7049W        W25253   1.900   1.602   2.752  0.2273 -0.0112  0.1738
 7050W        W25254  13.566   5.334   1.539 -0.0692 -0.2374 -0.2563
 7051W        W25255  15.995  16.697   2.732  0.1044  0.3227  0.2425
 7052W        W25256   7.067  10.497   3.568  0.2975  0.0103 -0.1189
 7053W        W25257   2.985   5.819   4.762  0.2590 -0.1001 -0.0654
 7054W        W25258   0.540   1.733  14.960 -0.2557  0.2639 -0.1027
 7055W        W25259   6.028   8.165   1.072  0.0650 -0.1408 -0.0373
 7056W        W25260  13.994  14.243  14.085 -0.0992 -0.1435 -0.1062
 7057W        W25261   4.306  16.886  15.999  0.0591  0.2358  0.4052
 7058W        W25262  14.641  15.809  13.538  0.2411  0.0635  0.0762
 7059W        W25263  16.200   7.303  16.906 -0.0352 -0.0284 -0.0829
 7060W        W25264   9.128   0.701   4.268  0.0359  0.5547  0.2863
 7061W        W25265   4.814   9.527   3.771 -0.1041 -0.3079  0.2168
 7062W        W25266  16.715   8.650  15.184 -0.1015  0.1518  0.0339
 7063W        W25267   6.265  12.604   0.292  0.1498  0.1244 -0.0119
 7064W        W25268  15.611   0.830  15.539  0.0278  0.0569  0.0370
 7065W        W25269  11.093   4.586   0.846  0.0523 -0.0282 -0.0312
 7066W        W25270   0.816  11.901  13.640 -0.2192  0.0428 -0.1313
 7067W        W25271   7.676   2.110  11.812 -0.0733 -0.1653  0.1016
 7068W        W25272   0.399  13.657  15.513  0.2680 -0.1219 -0.1885
 7069W        W25273   1.814  15.957   4.935  0.0778 -0.0583 -0.1436
 7070W        W25274  14.022   3.679   4.511  0.1302  0.1415  0.2401
 7071W        W25275  14.916   1.009  13.225  0.1552  0.2458 -0.2133
 7072W        W25276  10.483  17.290   2.182  0.0499  0.0511  0.1221
 7073W        W25277  15.415   9.602  16.549  0.0962 -0.0179 -0.0307
 7074W        W25278  16.459  16.921  16.808 -0.1209  0.0179 -0.1930
 7075W        W25279  12.448   0.611   2.473 -0.2066 -0.1093  0.3313
 7076W        W25280  13.688  16.328   3.977 -0.2460  0.1087 -0.1026
 7077W        W25281  12.071   4.579   4.576  0.2118  0.1905  0.0177
 7078W        W25282   5.864   4.799   4.303 -0.0058 -0.0467  0.0384
 7079W        W25283  15.390  10.737  16.553 -0.0225  0.0893 -0.2286
 7080W        W25284   5.771   9.566   3.902 -0.0033 -0.2520  0.0587
 7081W        W25285   9.025   1.923   0.636  0.0303  0.0120 -0.0957
 7082W        W25286   2.709  15.526   0.029 -0.1568  0.1513 -0.1665
 7083W        W25287   5.895   1.802   3.988 -0.0880 -0.1019 -0.0909
 7084W        W25288   7.603  10.233  14.396  0.3764  0.1933 -0.1857
 7085W        W25289  10.480  10.464  14.741  0.0864  0.0344  0.0145
 7086W        W25290   7.475  16.032  13.528  0.1872  0.1602 -0.2457
 7087W        W25291  15.861   2.402  15.120 -0.1083  0.0321  0.0079
 7088W        W25292   7.536  14.836  14.901 -0.1959  0.0702 -0.0374
 7089W        W25293   5.999  11.241   4.077  0.0421  0.1914  0.1320
 7090W        W25294  12.594  14.453   0.850  0.2172 -0.0814 -0.0322
 7091W        W25295  11.380  13.319  12.929 -0.3011  0.0452 -0.0540
 7092W        W25296  12.333  15.100  12.783 -0.3024  0.0993  0.0635
 7093W        W25297  10.570   9.392  12.178  0.2891  0.2210  0.1768
 7094W        W25298   6.461  15.090   3.884  0.0404 -0.1705 -0.0740
 7095W        W25299  16.891   1.888  16.753 -0.1000  0.0237 -0.0041
 7096W        W25300   1.417  13.887   3.791  0.1868  0.0639  0.2054
 7097W        W25301  14.248  14.654   4.373 -0.0762  0.4265  0.2685
 7098W        W25302   8.904   6.756  14.644  0.2053 -0.1920 -0.0859
 7099W        W25303  10.870   0.252   4.898 -0.3815  0.1583 -0.1901
 7100W        W25304  17.177  12.557   5.423 -0.0438  0.0785  0.0832
 7101W        W25305  14.066   7.749  13.115  0.0937 -0.5065 -0.1352
 7102W        W25306   5.695   1.886  17.407 -0.2714  0.1017 -0.2639
 7103W        W25307   6.328  10.482  13.045  0.1036  0.1472  0.0064
 7104W        W25308   7.407   6.286   2.714 -0.2272  0.0413  0.1603
 7105W        W25309  16.594  15.355   0.866 -0.1173  0.2624 -0.2312
 7106W        W25310   5.787   5.342   3.576 -0.1092  0.1555  0.2524
 7107W        W25311  15.022  17.091   2.895 -0.1132  0.3640  0.1616
 7108W        W25312  13.821  16.998   3.211 -0.0885 -0.1236 -0.0368
 7109W        W25313   1.185   1.441  17.204 -0.0865  0.0619 -0.0752
 7110W        W25314   3.018  13.816  16.119  0.1811  0.0575 -0.1064
 7111W        W25315  16.409   8.934   4.431 -0.3414 -0.2334 -0.0045
 7112W        W25316  11.542  16.939   2.530 -0.2916 -0.0107 -0.1690
 7113W        W25317   1.033   1.278   3.161 -0.0584 -0.1005 -0.0429
 7114W        W25318  13.708   6.098  13.662  0.0990  0.1765  0.0218
 7115W        W25319  10.908  14.758  12.110  0.3030  0.0484  0.0577
 7116W        W25320  15.133   2.939  16.191  0.1220  0.0684 -0.0669
 7117W        W25321   4.039   6.593  12.018  0.0985 -0.2282 -0.0826
 7118W        W25322  11.394   7.722  12.218 -0.1537  0.3580  0.1045
 7119W        W25323   4.827   1.838  17.057  0.0490 -0.1294 -0.1691
 7120W        W25324   6.777  16.091   3.591  0.1330 -0.3654 -0.0880
 7121W        W25325   3.934   0.671   2.664 -0.1941  0.1349  0.0600
 7122W        W25326  12.343  10.811  14.912 -0.1985 -0.1007  0.0566
 7123W        W25327   6.118   3.170   4.602 -0.1575  0.1335  0.1722
 7124W        W25328  16.617  16.202  15.852  0.0974  0.0654 -0.1513
 7125W        W25329   3.752   1.672   0.896 -0.2940  0.1055 -0.0080
 7126W        W25330  14.676  10.182  12.616 -0.2360 -0.2284 -0.1017
 7127W        W25331   5.926   2.893   2.927  0.2604 -0.0068  0.1405
 7128W        W25332   6.652   9.330   4.168 -0.2496  0.2640  0.1113
 7129W        W25333  14.394  14.298   5.489 -0.3414  0.1385  0.3368
 7130W        W25334  13.614   7.826   0.951  0.3998 -0.0373 -0.3582
 7131W        W25335   3.751   0.417  12.463 -0.0362 -0.3918  0.3015
 7132W        W25336  16.866   4.080  12.881 -0.0607 -0.1744  0.1421
 7133W        W25337   0.349  10.642   4.657 -0.0885 -0.1347 -0.0035
 7134W        W25338   7.893  14.588  12.445 -0.0653 -0.0639 -0.2011
 7135W        W25339  16.363   5.330  13.396 -0.0865 -0.0482  0.0689
 7136W        W25340  13.399   5.554  13.993 -0.2367  0.3735  0.0429
 7137W        W25341   4.214  12.477  14.521  0.2611  0.0211  0.2435
 7138W        W25342   5.931   5.633  15.998  0.0073 -0.1292 -0.2612
 7139W        W25343   7.850  11.002  17.165  0.2450  0.1750  0.0942
 7140W        W25344  16.260  15.213  12.815 -0.2018 -0.0065  0.0376
 7141W        W25345   8.600  15.462  13.670 -0.0385  0.0162  0.1591
 7142W        W25346   3.714  13.721  14.223 -0.0877 -0.1182  0.3610
 7143W        W25347  10.286   3.924   1.881 -0.1018 -0.2215  0.0530
 7144W        W25348  10.361  16.729  17.183  0.2255  0.1461 -0.0604
 7145W        W25349   8.698   7.600  11.061  0.0573  0.1157  0.3871
 7146W        W25350   8.954   1.036   4.678 -0.0884 -0.0015 -0.1092
 7147W        W25351   6.692   3.026  12.496  0.0617  0.1311 -0.1403
 7148W        W25352   7.649  15.543  17.476  0.2499  0.2807 -0.1917
 7149W        W25353   1.740  12.235  14.032 -0.3186 -0.2214  0.2225
 7150W        W25354  12.703   6.913   3.507 -0.0964 -0.2368 -0.1611
 7151W        W25355  11.180   6.630  14.917  0.1114 -0.1346 -0.1321
 7152W        W25356  10.070   9.931  13.982  0.1517  0.0532 -0.0482
 7153W        W25357   7.399   7.805  13.630  0.1469  0.0911  0.1523
 7154W        W25358   3.188   3.452  12.312  0.1380 -0.2099 -0.2637
 7155W        W25359   6.390  12.265   1.698  0.0851 -0.0144  0.3737
 7156W        W25360  13.486  13.367   2.912  0.0346  0.0073  0.3787
 7157W        W25361  11.756   6.853   0.942  0.0749  0.1875  0.4297
 7158W        W25362   4.507   0.898  15.203  0.2534  0.0733 -0.0337
 7159W        W25363  13.112   1.128  17.275 -0.3445 -0.0633 -0.0714
 7160W        W25364  14.608  13.374  12.457  0.1629 -0.1388  0.2039
 7161W        W25365  15.882   0.534  14.643  0.2024 -0.2732 -0.0643
 7162W        W25366   0.037  14.724   1.516  0.1597 -0.4830  0.0980
 7163W        W25367   0.453   2.377  13.366 -0.3072  0.0959 -0.1208
 7164W        W25368   9.220   1.151   1.072  0.0221 -0.1034 -0.2048
 7165W        W25369   5.811   5.954  13.694  0.0133  0.0545 -0.1633
 7166W        W25370  16.010   1.549  14.880  0.0006 -0.2001  0.3140
 7167W        W25371  15.428   4.925   3.717  0.1478 -0.0793 -0.0530
 7168W        W25372  15.355   0.768   5.218  0.0764  0.3053  0.0553
 7169W        W25373   9.518   3.031  12.132 -0.0438  0.1389 -0.1267
 7170W        W25374  14.810   4.684  15.632 -0.0569  0.0154  0.0480
 7171W        W25375  11.733   2.987   2.822  0.1209 -0.0720 -0.0301
 7172W        W25376  10.724  11.525  14.707 -0.1244  0.2711 -0.3303
 7173W        W25377  12.442   9.420   2.628  0.1499 -0.1997  0.0716
 7174W        W25378   1.162   9.697  15.413  0.4477 -0.0661 -0.2966
 7175W        W25379   6.509  11.096   5.628  0.1964  0.3308  0.0131
 7176W        W25380  16.270   6.938   4.674  0.0149 -0.2094  0.0712
 7177W        W25381   7.813   7.720   2.929  0.1147  0.1362 -0.4562
 7178W        W25382  16.802   3.380   3.437 -0.1203 -0.1045 -0.2007
 7179W        W25383   8.148   4.198   2.788 -0.1255 -0.2469 -0.1742
 7180W        W25384   6.340  12.805   4.348 -0.1055 -0.2782  0.1491
 7181W        W25385  14.141   0.765   2.761 -0.0633  0.0928  0.1482
 7182W        W25386  10.704  10.836  17.108  0.2580  0.0239  0.0275
 7183W        W25387  11.453  15.159  15.922 -0.0199  0.1920  0.0116
 7184W        W25388  12.473   7.854   2.853 -0.0409 -0.2251 -0.2635
 7185W        W25389   1.344   3.216  14.010 -0.0484 -0.0870  0.4669
 7186W        W25390  16.919   4.633   3.425  0.2062  0.0987  0.0340
 7187W        W25391  10.782   6.367  15.065 -0.0982 -0.2019 -0.1564
 7188W        W25392   3.268  16.563  14.736  0.2095  0.3943 -0.3131
 7189W        W25393   6.428  11.304   3.354  0.3259  0.1946  0.5507
 7190W        W25394   1.989   8.738  15.875 -0.2148 -0.2227 -0.1507
 7191W        W25395   1.848   3.254   5.263 -0.0804 -0.0947 -0.0845
 7192W        W25396  14.310  14.942  16.980  0.0597  0.1580  0.1958
 7193W        W25397  14.231   4.533  11.972  0.1222  0.2979 -0.0959
 7194W        W25398  13.602   7.866  16.452  0.0601 -0.1315 -0.0828
 7195W        W25399   6.425   6.645   5.899  0.1638 -0.4680 -0.3790
 7196W        W25400  17.075  13.113  17.187  0.1380 -0.1095 -0.0495
 7197W        W25401   1.319   5.782   0.731  0.0489 -0.1861 -0.3174
 7198W        W25402  10.217  12.862   5.632  0.1184  0.0644 -0.2397
 7199W        W25403   6.810   6.874  13.988 -0.0311  0.0700 -0.1443
 7200W        W25404   6.414  12.095   1.099  0.0232 -0.2225  0.1459
 7201W        W25405  12.173   3.164  12.718 -0.0403 -0.1058  0.3669
 7202W        W25406  16.304  11.756  14.081  0.1924  0.0009 -0.0256
 7203W        W25407   1.133  13.971   6.031  0.1093  0.0893 -0.1047
 7204W        W25408   2.246   8.735   0.765  0.0512  0.0823 -0.1192
 7205W        W25409   6.833  12.009   1.460  0.1141 -0.1177  0.1073
 7206W        W25410  10.568  12.077  13.652 -0.0804 -0.1149  0.1317
 7207W        W25411  16.198   3.671   3.201 -0.0039 -0.1142  0.0823
 7208W        W25412   8.354  11.926  17.351 -0.0721 -0.2115  0.0039
 7209W        W25413  11.496   3.323  14.054 -0.0234 -0.2839 -0.2153
 7210W        W25414  15.776  16.032  12.932  0.1484  0.0462  0.1491
 7211W        W25415  16.158  14.439  12.773  0.1162  0.0631  0.3344
 7212W        W25416   5.933   2.945   1.469  0.0593  0.2100 -0.0028
 7213W        W25417   1.031  14.288   0.048 -0.0533 -0.0159 -0.0400
 7214W        W25418  12.114  14.906   2.010  0.1071  0.0545  0.0528
 7215W        W25419  13.548   9.698  16.892 -0.0232  0.1829  0.3384
 7216W        W25420   3.368  16.748   5.155  0.1819  0.0172  0.0093
 7217W        W25421   1.214   9.448   4.545 -0.1519  0.1266  0.3237
 7218W        W25422   8.944   8.456   6.092 -0.1719 -0.2005  0.1524
 7219W        W25423   2.296   5.804   4.019 -0.1385  0.1640 -0.1160
 7220W        W25424   8.012  10.500   0.510 -0.0355  0.0707  0.0213
 7221W        W25425  16.152   7.409  11.394 -0.1327  0.2414  0.1822
 7222W        W25426   8.426  12.610  16.024 -0.0790  0.0757  0.1302
 7223W        W25427   4.868   7.514  17.312 -0.2853  0.0057  0.0537
 7224W        W25428  10.076   0.762   4.484 -0.0545 -0.1578 -0.1660
 7225W        W25429  14.390  15.823   4.534 -0.4111 -0.1407 -0.0734
 7226W        W25430  14.609  15.211   2.915  0.3808  0.0855 -0.1218
 7227W        W25431   2.234  16.014  15.840 -0.1958  0.0487  0.0535
 7228W        W25432   1.979   2.349   1.454  0.1032  0.0316  0.0787
 7229W        W25433  11.598   4.482   4.370 -0.2292 -0.2221  0.0945
 7230W        W25434   7.559   2.870  15.976  0.0485  0.0816 -0.1587
 7231W        W25435   8.633   4.070  12.138  0.0095 -0.0075  0.0240
 7232W        W25436  14.104   1.609  12.347  0.0527  0.1989 -0.2862
 7233W        W25437   3.397   2.091   0.263  0.4465  0.1946  0.4512
 7234W        W25438   9.431  13.763  13.792 -0.1029  0.0728  0.3295
 7235W        W25439   3.785   3.150  15.525 -0.4849 -0.0632  0.2639
 7236W        W25440  12.522  10.868  13.672 -0.0225 -0.1142  0.1776
 7237W        W25441   3.394   1.872  14.382  0.3707  0.0067 -0.2006
 7238W        W25442   2.569   0.388   0.216 -0.1088 -0.0914  0.2706
 7239W        W25443  14.430   3.326   0.835 -0.0360  0.1217 -0.0047
 7240W        W25444   1.721   2.807  16.135 -0.2642  0.3181 -0.2338
 7241W        W25445  10.672   2.914   1.702  0.0662  0.0267 -0.2784
 7242W        W25446  13.397  14.327   4.715 -0.3176 -0.0995  0.3150
 7243W        W25447   2.794   7.265   0.960  0.1078  0.0361  0.0957
 7244W        W25448  16.546   2.779   2.892 -0.2558  0.0878  0.4190
 7245W        W25449   3.748  12.089   4.644  0.1593  0.1852 -0.0843
 7246W        W25450  11.779   6.671  12.493 -0.0372  0.1677 -0.0794
 7247W        W25451  16.767   9.457   0.481 -0.2189 -0.1551  0.1076
 7248W        W25452   4.605  16.258   4.757 -0.2397  0.4396 -0.0501
 7249W        W25453   3.376  16.042  13.901  0.2449  0.0372  0.5193
 7250W        W25454   2.954   1.328   1.411  0.0220 -0.3553  0.1406
 7251W        W25455  10.287   8.396  15.565 -0.0711  0.0604 -0.0728
 7252W        W25456   5.162  15.571   2.149  0.2697  0.0331 -0.3881
 7253W        W25457   0.142   4.356   2.932 -0.0319 -0.1814 -0.1461
 7254W        W25458  11.853   9.094   1.593 -0.0969 -0.1113  0.0559
 7255W        W25459  13.802   6.803  13.650 -0.1234 -0.2269 -0.2399
 7256W        W25460   8.468   7.911   1.189 -0.0852  0.0940  0.0312
 7257W        W25461   6.663   6.160  11.090  0.0839  0.0052  0.2650
 7258W        W25462   8.358   2.628  15.136 -0.0880 -0.1515  0.0339
 7259W        W25463   4.504  14.369   0.944 -0.0661  0.1571 -0.1998
 7260W        W25464   6.061   9.758   2.530 -0.2325  0.3006  0.3961
 7261W        W25465   2.179   9.462   2.844  0.1717  0.0930  0.0092
 7262W        W25466  10.784  12.552   1.976 -0.3186  0.1599  0.2034
 7263W        W25467  17.289  12.614  12.565  0.3035 -0.1216 -0.1125
 7264W        W25468   6.975  13.552   3.058  0.0680  0.2836 -0.0086
 7265W        W25469   1.011   6.936  14.446  0.0278 -0.0822  0.0900
 7266W        W25470   0.691   2.185  16.209  0.0074  0.1837 -0.0475
 7267W        W25471   8.265   5.111  12.883 -0.1125 -0.0710  0.1900
 7268W        W25472   6.415  14.286  12.307  0.1166 -0.1024  0.2276
 7269W        W25473   7.279  15.317   0.276 -0.1308  0.0421 -0.2180
 7270W        W25474   3.812   3.414   0.583 -0.0179  0.0375 -0.0565
 7271W        W25475  10.252  13.269  13.878 -0.0935 -0.1851  0.1422
 7272W        W25476   7.633  14.087  13.618  0.0741  0.0227 -0.1880
 7273W        W25477  11.692  16.797   5.345 -0.0115  0.0427 -0.2231
 7274W        W25478   9.815  14.580   4.435 -0.0072  0.0208 -0.1073
 7275W        W25479  13.983   5.493   0.765 -0.0511 -0.0042 -0.0224
 7276W        W25480   4.575   5.477   0.790  0.2091  0.0834 -0.2965
 7277W        W25481  10.544   8.455   2.349  0.1418 -0.0868  0.0780
 7278W        W25482  11.601  14.655   4.020  0.0965  0.2890 -0.1494
 7279W        W25483  14.304   1.731  16.228 -0.0674  0.1129  0.2617
 7280W        W25484  10.990  10.322  14.702  0.0900 -0.0375  0.0701
 7281W        W25485   9.907  16.653  11.329 -0.3043  0.1907 -0.1683
 7282W        W25486   3.930   1.726  16.497 -0.3101 -0.3061  0.0258
 7283W        W25487  13.713   8.946   2.967  0.0364 -0.1275  0.0491
 7284W        W25488   0.092  11.936  12.867 -0.2344  0.2152 -0.0506
 7285W        W25489   1.464  14.465   1.306 -0.0117 -0.1565  0.0535
 7286W        W25490  10.752   0.142  16.116 -0.1305 -0.2501  0.1772
 7287W        W25491   7.267   4.169  16.767 -0.1689  0.0307 -0.0296
 7288W        W25492  12.954   6.435  15.516 -0.1882 -0.3468  0.2413
 7289W        W25493  11.698   2.950   3.786  0.1524  0.0366 -0.0582
 7290W        W25494  11.815   7.093  12.217  0.0111  0.0814  0.3646
 7291W        W25495  14.926   5.073   2.438  0.2103  0.2438  0.0979
 7292W        W25496  14.706   9.880   5.540  0.0975  0.0827  0.0997
 7293W        W25497   4.256  16.351  12.924  0.0211 -0.1940  0.0367
 7294W        W25498   5.096  11.415  16.462 -0.3423 -0.0770 -0.0289
 7295W        W25499   6.526   8.761  16.063  0.1688  0.2534  0.1061
 7296W        W25500  11.252   6.922   6.030  0.1893 -0.1706 -0.0109
 7297W        W25501   0.191  12.263  16.116 -0.1770  0.0185 -0.3386
 7298W        W25502  11.437   4.267   1.153 -0.1826 -0.1915  0.1624
 7299W        W25503   7.946  11.124   1.256  0.0824 -0.1233  0.2259
 7300W        W25504   0.585   2.974   2.371  0.1028  0.1147  0.2306
 7301W        W25505   4.719  15.308   0.867  0.1824  0.0214  0.1154
 7302W        W25506   5.498   4.446   2.206  0.0501  0.2348  0.3947
 7303W        W25507  11.147  13.577  14.169  0.2230 -0.2065  0.1659
 7304W        W25508   9.472  17.231  15.673  0.1533 -0.0946 -0.0192
 7305W        W25509  11.124   1.796   3.089  0.0233 -0.0946 -0.1533
 7306W        W25510   9.896  17.240  15.956 -0.0697 -0.3006  0.2026
 7307W        W25511   6.853   2.833  14.932 -0.1264  0.2487  0.1678
 7308W        W25512   0.872   0.630  14.780  0.3865 -0.1625  0.0998
 7309W        W25513   4.787  14.872   4.524 -0.2616 -0.2598 -0.1572
 7310W        W25514   0.113   2.859   6.394 -0.5222 -0.3540 -0.3277
 7311W        W25515   3.795   8.757  12.820  0.4583  0.2002  0.0387
 7312W        W25516   2.807   9.293  14.065 -0.0456 -0.0439  0.2248
 7313W        W25517   5.237  12.299  13.406 -0.1373 -0.0841  0.0856
 7314W        W25518   2.309   6.795  13.240 -0.2905  0.2407  0.0923
 7315W        W25519  15.686   7.834  14.312 -0.2548  0.0938 -0.2625
 7316W        W25520   5.605   2.206  13.151 -0.1053 -0.3139 -0.0026
 7317W        W25521   7.643   8.007  14.109 -0.2089 -0.0382 -0.0814
 7318W        W25522   3.435  10.885  13.374  0.2987 -0.1500  0.2144
 7319W        W25523   8.812  13.881  17.227  0.0572 -0.0195  0.1204
 7320W        W25524   6.866   2.191   4.123  0.2089  0.0758 -0.1798
 7321W        W25525   5.702   7.362  13.138 -0.3186  0.0250  0.0518
 7322W        W25526  12.197  13.654  16.207 -0.0639  0.1072 -0.1195
 7323W        W25527   3.681   5.504  13.383 -0.0452  0.2875  0.2283
 7324W        W25528  11.566   1.622   1.372 -0.1691  0.2650  0.1467
 7325W        W25529  16.196  13.254   4.388 -0.2343 -0.3009 -0.1247
 7326W        W25530   1.839  13.865  15.283 -0.1406 -0.1152 -0.1080
 7327W        W25531   0.376  12.991   4.061  0.2051  0.0906 -0.2493
 7328W        W25532   0.987   7.764   4.693  0.1780  0.0286  0.3443
 7329W        W25533  10.936  13.526  14.593  0.1858  0.0540 -0.0984
 7330W        W25534  13.369   3.664  14.648  0.1206  0.0816 -0.0348
 7331W        W25535   1.564  13.620  17.136 -0.0247  0.0854 -0.0442
 7332W        W25536  13.827  12.975  15.031  0.0376 -0.1197 -0.1561
 7333W        W25537   0.948   6.893   3.773 -0.1410  0.1130  0.0538
 7334W        W25538   0.257   6.975   4.591 -0.2735 -0.2480  0.0022
 7335W        W25539  13.584   5.332  14.673  0.0492  0.1696  0.1335
 7336W        W25540   0.420  10.156  15.816 -0.2455 -0.5358 -0.1641
 7337W        W25541   7.342  14.925   4.576 -0.3935  0.0922  0.0372
 7338W        W25542   1.595  17.174   2.571 -0.2915  0.0561 -0.0153
 7339W        W25543  16.129  10.297  16.405 -0.3209 -0.2454 -0.1738
 7340W        W25544   1.228   9.905   1.550 -0.2348  0.0221 -0.0120
 7341W        W25545   0.344  16.249  15.776  0.2680 -0.0087 -0.1466
 7342W        W25546  14.918  14.608  16.533 -0.2963  0.0159  0.2698
 7343W        W25547   9.678  11.948   2.677 -0.2090 -0.1441  0.1103
 7344W        W25548  16.338   2.095   2.801 -0.1639  0.2325 -0.2400
 7345W        W25549   8.458  15.587   3.247 -0.2447 -0.0613 -0.1062
 7346W        W25550   4.770  13.240   2.849  0.0791 -0.1108  0.1531
 7347W        W25551  10.261   8.193  16.116  0.2346  0.0815  0.1808
 7348W        W25552  11.630  14.801  13.487  0.0768  0.0786 -0.2750
 7349W        W25553  16.397  15.122   2.164  0.0224 -0.2037 -0.0681
 7350W        W25554  13.242  13.701  15.480 -0.0736 -0.1351  0.1176
 7351W        W25555   1.762   9.191  15.921  0.1072  0.1047  0.0526
 7352W        W25556   8.946  14.575   5.110 -0.0442 -0.0219 -0.1126
 7353W        W25557  16.414  16.950   2.876 -0.0545 -0.1425  0.0562
 7354W        W25558  10.961  15.197  12.568 -0.0378  0.2551 -0.2322
 7355W        W25559   3.311   4.961  14.301 -0.2687 -0.0262  0.1530
 7356W        W25560   8.957   6.448   4.418  0.1937 -0.3292 -0.0680
 7357W        W25561  14.323   6.670   2.193 -0.0783  0.3228 -0.1501
 7358W        W25562  16.340  12.642  12.786  0.1298  0.1378 -0.0358
 7359W        W25563  13.059   7.789   3.247 -0.0097 -0.1834 -0.2274
 7360W        W25564   7.740   3.176   0.716  0.2275  0.1757  0.0815
 7361W        W25565   0.001  11.470   3.446  0.1258 -0.1100 -0.2554
 7362W        W25566   7.240  16.335  16.463  0.0250 -0.1681 -0.0668
 7363W        W25567   1.234   5.008  16.994  0.0558  0.1019 -0.0312
 7364W        W25568  13.509  10.906   1.711  0.0170  0.1166  0.2242
 7365W        W25569  11.407   7.348  13.915 -0.1343 -0.1479  0.0428
 7366W        W25570   8.789   5.323  16.733  0.2887  0.3368  0.0040
 7367W        W25571   3.150  11.593   1.790 -0.0173  0.2497 -0.1210
 7368W        W25572   2.243   3.760   1.190 -0.0606  0.1022 -0.2398
 7369W        W25573   9.804  11.188   3.237 -0.1469 -0.1228  0.1043
 7370W        W25574  12.959  13.431   0.737  0.0294  0.2830 -0.1445
 7371W        W25575  15.644   3.534  15.583 -0.1136 -0.2181 -0.0338
 7372W        W25576   5.291  12.081  15.191  0.1047  0.2878 -0.1632
 7373W        W25577  12.308   4.322  13.676  0.1860  0.0355 -0.0448
 7374W        W25578   6.495  15.543   4.111 -0.1098 -0.0180 -0.1516
 7375W        W25579  15.343  13.305  13.685 -0.2480  0.1430 -0.0179
 7376W        W25580   0.690   5.205  14.125  0.0668  0.0499 -0.1455
 7377W        W25581  10.202   6.875   2.571 -0.0905 -0.1550  0.3104
 7378W        W25582  15.729  13.521   3.097 -0.1211 -0.0399  0.1522
 7379W        W25583   6.849   1.342   4.643 -0.0731  0.1419 -0.4461
 7380W        W25584  10.697   1.073  16.900  0.0851 -0.1629  0.0443
 7381W        W25585  14.561   9.627   2.782 -0.1742  0.1401  0.0549
 7382W        W25586  14.579   8.077  15.700 -0.0669 -0.0921 -0.1899
 7383W        W25587   2.044  13.404  17.131 -0.1623 -0.0527 -0.1647
 7384W        W25588   1.307  15.468  14.297  0.2370 -0.1341  0.1772
 7385W        W25589   3.766  16.450  11.284 -0.0456 -0.0134 -0.1809
 7386W        W25590   6.680   2.428   2.694 -0.0812 -0.0373 -0.1789
 7387W        W25591   3.515  12.589   3.242 -0.1034 -0.2012 -0.0002
 7388W        W25592   2.877  12.924  15.717  0.0041  0.1741  0.2826
 7389W        W25593   2.567   2.114   2.369  0.0341  0.1618  0.0105
 7390W        W25594   6.639   1.219   2.738  0.1774  0.1935  0.1545
 7391W        W25595  12.300   1.635   0.626  0.0349  0.0576 -0.0646
 7392W        W25596   5.193   3.296  15.707  0.0209  0.0124 -0.2207
 7393W        W25597   6.184  13.345   0.960 -0.1735  0.2272  0.3927
 7394W        W25598   6.648   5.614  15.252  0.1689 -0.0615  0.0932
 7395W        W25599  12.943   8.054   2.836 -0.2421  0.0736  0.2998
 7396W        W25600  10.316   3.080  11.932 -0.0142 -0.3158 -0.0226
 7397W        W25601   6.603  14.390  13.539 -0.2031  0.0638 -0.0864
 7398W        W25602  16.057   5.769  16.220  0.3150  0.0612 -0.1966
 7399W        W25603   3.969   1.469   3.110 -0.0276  0.2805  0.1628
 7400W        W25604  13.115   9.826   0.917  0.0493  0.1556  0.1503
 7401W        W25605   1.006  12.523  17.135 -0.1405  0.1767 -0.1269
 7402W        W25606   6.898   1.417   5.148  0.4026  0.1152 -0.1978
 7403W        W25607   7.310  10.446   4.502 -0.0968 -0.1202  0.0337
 7404W        W25608   4.319   0.784  15.822 -0.1362 -0.0032 -0.1520
 7405W        W25609  15.803  16.520   4.819 -0.1383 -0.0730  0.0908
 7406W        W25610   7.771  13.871   5.469 -0.3983  0.1637  0.2042
 7407W        W25611  11.290  10.117  15.531  0.3601 -0.1413 -0.1491
 7408W        W25612  13.581   2.480   1.643  0.1454  0.0860  0.2808
 7409W        W25613  11.040   3.156   3.590  0.1571  0.2270  0.0198
 7410W        W25614  15.835   0.767   5.137 -0.1701  0.1011  0.1257
 7411W        W25615  15.150  16.451   1.248  0.0867  0.1390  0.0418
 7412W        W25616   9.805   0.633   1.080  0.0510 -0.1459  0.0404
 7413W        W25617  11.511  14.934   1.595  0.1144  0.0315  0.1647
 7414W        W25618   1.965  15.568  14.084  0.1634 -0.1210  0.1300
 7415W        W25619  14.755  15.421  16.456  0.2334 -0.0282 -0.1332
 7416W        W25620  16.176   6.357  13.976  0.2820  0.0366 -0.0848
 7417W        W25621  15.959  12.282  13.361 -0.1708  0.2103 -0.0006
 7418W        W25622   4.342   9.750   4.660 -0.0571  0.0913 -0.2114
 7419W        W25623  16.157   4.448  17.194 -0.2746  0.0412 -0.1335
 7420W        W25624  16.764   3.971   4.831  0.2048 -0.4142 -0.1364
 7421W        W25625   2.199  10.319  12.956  0.0428  0.1360  0.0812
 7422W        W25626   1.801   7.765  14.481  0.2301  0.0263 -0.0577
 7423W        W25627   5.222  16.657   3.248  0.0768  0.1615  0.1271
 7424W        W25628   4.767  13.177   0.651  0.2082 -0.2358 -0.1711
 7425W        W25629   2.525   8.091   1.356  0.0278 -0.1266 -0.1846
 7426W        W25630  14.766   7.933  13.469  0.1082 -0.1039 -0.2332
 7427W        W25631  13.327  11.995   4.449  0.0609  0.0981 -0.1224
 7428W        W25632  16.785   3.595   6.329 -0.2473 -0.0550 -0.0409
 7429W        W25633   7.517  11.295  17.383  0.1352  0.0988  0.2825
 7430W        W25634   4.406   9.992   3.767 -0.0282 -0.1451  0.0526
 7431W        W25635   7.088   5.927   2.955  0.2710  0.1523  0.2591
 7432W        W25636  10.088  11.081   0.939  0.0913  0.0102 -0.0677
 7433W        W25637  13.427   5.234  13.156  0.2989  0.0072  0.0448
 7434W        W25638   4.271   5.695  13.003  0.0932  0.4602 -0.2540
 7435W        W25639   6.433   9.605  14.500  0.0362 -0.1688 -0.0601
 7436W        W25640  13.889  10.462  15.258  0.2047  0.0243  0.1103
 7437W        W25641   3.110   5.272  14.677  0.0586 -0.1952  0.0789
 7438W        W25642   1.116   6.122   3.024  0.1466 -0.1598  0.0614
 7439W        W25643   5.158  15.948   4.040  0.0170 -0.0593  0.0022
 7440W        W25644  13.475   4.683  14.162 -0.1626 -0.0062 -0.2005
 7441W        W25645  13.255   3.057   2.346 -0.5263 -0.2685 -0.2041
 7442W        W25646   4.311   3.899  16.714  0.1315  0.1896  0.0423
 7443W        W25647   3.657   4.261  15.671  0.0543 -0.1443  0.2803
 7444W        W25648  13.124   1.468   5.166 -0.0393 -0.1120 -0.1025
 7445W        W25649   1.239  14.904   3.382 -0.0551  0.0464 -0.2111
 7446W        W25650   6.595   1.647  12.442 -0.4215 -0.0856  0.1660
 7447W        W25651  14.780   6.010  12.436  0.2567 -0.2764 -0.0722
 7448W        W25652   6.040  16.474   4.378 -0.1275 -0.3907  0.0488
 7449W        W25653  13.678   8.568  17.124  0.0430 -0.1926 -0.0769
 7450W        W25654  12.003  12.950   1.534 -0.1840 -0.0235 -0.3244
 7451W        W25655  17.056   2.905   2.869  0.0605  0.2838  0.2473
 7452W        W25656   0.949   8.845   1.713 -0.1307 -0.1350 -0.0541
 7453W        W25657  15.383   0.106  14.056 -0.1710 -0.0177  0.0330
 7454W        W25658   9.493   5.313  14.940 -0.2363  0.1203  0.1428
 7455W        W25659   4.421  12.567   5.589 -0.0142 -0.1446  0.0135
 7456W        W25660  11.355  15.234   3.715 -0.1565  0.1172 -0.0593
 7457W        W25661   6.216   5.339   3.796  0.2378  0.2471 -0.1049
 7458W        W25662   3.352   7.827  12.316  0.0365  0.0134 -0.1625
 7459W        W25663  16.916  10.084   4.735  0.0745  0.1739 -0.0679
 7460W        W25664   0.354  13.228   0.838 -0.0745  0.3174 -0.2224
 7461W        W25665   6.771  13.389  15.222 -0.1873 -0.1246 -0.0682
 7462W        W25666  16.382  13.179  17.501  0.1999  0.1082  0.0582
 7463W        W25667   8.237   7.046   3.808 -0.0264  0.0255 -0.1188
 7464W        W25668  12.714  13.331  14.731 -0.0668  0.4300 -0.3327
 7465W        W25669   9.953   1.398  17.480  0.1044 -0.0433  0.1781
 7466W        W25670   1.961   9.983  16.743  0.0033 -0.2720 -0.2834
 7467W        W25671  10.507  14.031  12.582 -0.0355 -0.0943 -0.0069
 7468W        W25672   8.787   7.208  16.355  0.0542  0.0291 -0.1721
 7469W        W25673  15.304   9.507  14.147  0.1818 -0.1649  0.2131
 7470W        W25674  16.242  11.616  17.085  0.0749  0.2763  0.0699
 7471W        W25675  16.860   4.918   5.608  0.0294  0.1122  0.0265
 7472W        W25676   4.160   3.835   0.137  0.2078 -0.0591  0.0522
 7473W        W25677   8.991  14.351  17.477 -0.1163  0.1120 -0.1433
 7474W        W25678  17.105   6.013  11.357 -0.0951  0.0073 -0.1062
 7475W        W25679   8.661   0.279  14.301  0.2140 -0.3828  0.0761
 7476W        W25680   8.729   5.082  14.527  0.1419 -0.1134 -0.0594
 7477W        W25681   1.431   4.707   1.952 -0.1861  0.0526  0.1711
 7478W        W25682  12.232  16.965   2.932  0.2826 -0.1057  0.4609
 7479W        W25683   9.070  11.243  13.626  0.0885  0.0696  0.0967
 7480W        W25684  15.372  11.443  15.944  0.2994  0.2209  0.1935
 7481W        W25685  13.543   5.367   0.424 -0.1620  0.2753 -0.2343
 7482W        W25686  11.425  15.957  12.525 -0.2156 -0.0449  0.1959
 7483W        W25687  12.157   1.560   4.755  0.1067  0.2005 -0.0128
 7484W        W25688   4.295  17.168  16.631  0.1066 -0.0005  0.1496
 7485W        W25689   0.463   0.872  16.346  0.1240  0.0904 -0.0584
 7486W        W25690  16.111  12.377  16.258  0.2273 -0.1200 -0.1573
 7487W        W25691  13.208  14.534  15.066 -0.0870 -0.0668  0.2045
 7488W        W25692   3.327   6.563   1.350  0.1491 -0.1098 -0.0935
 7489W        W25693  15.696   2.879  15.035  0.0819 -0.1941 -0.0292
 7490W        W25694   5.887  11.643  12.502  0.0396 -0.2100  0.0177
 7491W        W25695   8.758   8.022  14.464 -0.0416 -0.1900  0.2825
 7492W        W25696  12.307   3.571   2.199 -0.3359 -0.0960 -0.2318
 7493W        W25697   5.740   4.473   1.671 -0.2530  0.2404  0.1056
 7494W        W25698   4.753  16.327   3.863  0.1117  0.3066  0.3415
 7495W        W25699   3.497  15.981  14.449  0.1429  0.2576  0.0239
 7496W        W25700   9.044   9.006  15.409  0.0378 -0.0769  0.0207
 7497W        W25701  11.523   5.396   0.665 -0.0550 -0.1668 -0.1295
 7498W        W25702  17.160  14.582   6.059 -0.0934 -0.2109  0.1152
 7499W        W25703  11.739  13.595  16.932 -0.0176  0.0006  0.1901
 7500W        W25704  16.443   4.017  16.081  0.0183  0.0628 -0.1127
 7501W        W25705  11.374  15.875   1.319 -0.0649  0.2184 -0.1885
 7502W        W25706   7.873   2.685   2.674 -0.4091 -0.1237 -0.2187
 7503W        W25707  15.530  16.835   0.881  0.0124 -0.0494  0.1074
 7504W        W25708   0.838  17.224  12.910  0.0243  0.1413  0.0393
 7505W        W25709   2.889  10.952  17.397  0.0955 -0.1957 -0.1827
 7506W        W25710   6.280   1.411  16.996  0.1318 -0.1839  0.0416
 7507W        W25711   9.186   7.380   4.125 -0.0808 -0.1901 -0.3179
 7508W        W25712   0.167   2.681  17.415  0.3004  0.1075  0.0586
 7509W        W25713   8.615  16.030   1.395  0.1081 -0.2772  0.1151
 7510W        W25714   7.674   6.591   5.034 -0.0298  0.0677  0.1292
 7511W        W25715   9.960   5.771   4.178 -0.0980 -0.0935  0.2284
 7512W        W25716   3.182   9.527   5.199 -0.1415  0.0500 -0.0625
 7513W        W25717   3.676  17.241   2.280 -0.0444  0.0210 -0.1200
 7514W        W25718  11.957  11.464  13.132  0.1882 -0.5981 -0.0257
 7515W        W25719   6.284  16.139   3.556  0.1242 -0.2255 -0.0421
 7516W        W25720  15.936  16.091   1.406 -0.0252  0.0821  0.0971
 7517W        W25721  14.453  16.282  17.311 -0.1980  0.0170 -0.0094
 7518W        W25722  10.263   1.924  13.338 -0.1454 -0.1327  0.0770
 7519W        W25723   9.241   6.738  11.286  0.0773 -0.0005  0.0238
 7520W        W25724  11.368  11.507  14.698  0.0772  0.1203 -0.0255
 7521W        W25725  14.711  10.923  16.138  0.1860  0.3407  0.0765
 7522W        W25726   1.991  16.155   0.484  0.2671  0.2415  0.1824
 7523W        W25727  14.558   1.100   0.016  0.3036 -0.0453  0.0956
 7524W        W25728  13.386   3.559  16.251  0.0119  0.4229 -0.1212
 7525W        W25729  10.028   0.659  16.029 -0.0214  0.0517 -0.1180
 7526W        W25730  14.333  16.245   4.962 -0.0066  0.0860 -0.1664
 7527W        W25731  12.983  12.708   2.128  0.0845  0.6714  0.0926
 7528W        W25732  11.051   8.301   4.989 -0.0320  0.0003 -0.0630
 7529W        W25733  14.159   5.967  13.500 -0.0629  0.0897  0.0931
 7530W        W25734  10.710   4.308  12.640 -0.0875  0.1362  0.0181
 7531W        W25735  13.014  15.945   1.843 -0.4360  0.1156 -0.0321
 7532W        W25736   7.207   9.529  13.387  0.0508 -0.1091 -0.0095
 7533W        W25737   7.771  11.299   4.498 -0.3136  0.1093 -0.0058
 7534W        W25738   0.797   2.237   0.076 -0.0334  0.1747  0.0789
 7535W        W25739   3.503   3.586   3.558 -0.1204  0.1480  0.1607
 7536W        W25740  10.192   2.386   3.005  0.1615  0.0300  0.0001
 7537W        W25741   4.255  16.553   6.160  0.2322  0.0256  0.4133
 7538W        W25742   4.490   6.287   1.535 -0.1308  0.1190 -0.0349
 7539W        W25743  16.327  11.114   0.507  0.0299  0.0623  0.0254
 7540W        W25744  10.038  13.638  14.245 -0.3293  0.1969 -0.1485
 7541W        W25745   6.621  11.344  12.836 -0.2561  0.1612  0.1260
 7542W        W25746   4.080  16.988   0.146  0.0946  0.0163 -0.0111
 7543W        W25747  11.783  15.725  12.823 -0.0298  0.1229 -0.1163
 7544W        W25748   7.939  13.702  12.694  0.0123  0.2001 -0.1043
 7545W        W25749   3.178   7.043  17.242 -0.0840  0.0675 -0.1847
 7546W        W25750   4.702  12.382   1.035 -0.0245 -0.0157  0.1403
 7547W        W25751   0.842   4.131   2.958  0.0996 -0.3866  0.2377
 7548W        W25752   5.835   2.213  17.049 -0.0328  0.0203  0.1251
 7549W        W25753   8.199  15.015   1.926  0.1312 -0.0245 -0.2802
 7550W        W25754   4.630   7.321  13.664 -0.1316  0.1784 -0.0109
 7551W        W25755  13.561  12.532  14.096 -0.0875 -0.0033 -0.2623
 7552W        W25756   5.389  17.110  12.501  0.0471 -0.0724 -0.2328
 7553W        W25757  11.309   8.678  14.144  0.0471 -0.2887  0.1920
 7554W        W25758   2.987  16.408   3.520 -0.1676 -0.1894 -0.0317
 7555W        W25759   1.605   8.587  13.777 -0.0952  0.2000 -0.0342
 7556W        W25760   8.962  15.289  16.228  0.1891 -0.3148 -0.0963
 7557W        W25761  11.501   3.847  13.911  0.3694 -0.3015  0.2212
 7558W        W25762   9.580   2.251   3.414  0.0961 -0.0108  0.0230
 7559W        W25763   1.308  11.519  14.474  0.0741  0.1986  0.1271
 7560W        W25764   9.912  13.059  15.518 -0.2149 -0.2276 -0.0129
 7561W        W25765   2.485  13.426   1.974  0.0542  0.2177 -0.1594
 7562W        W25766  14.909   2.588   2.329 -0.3268 -0.0560 -0.2427
 7563W        W25767  15.273   0.064  13.530  0.0418 -0.0431 -0.1306
 7564W        W25768  12.888  11.336   5.174  0.1836 -0.1084  0.0124
 7565W        W25769   4.406  10.895  15.039 -0.0155 -0.2534 -0.0792
 7566W        W25770   3.735   7.027   1.079 -0.2649  0.0866 -0.2729
 7567W        W25771  16.787  11.945   5.065 -0.1093  0.2984 -0.0954
 7568W        W25772  12.146  10.027  17.090 -0.1936  0.2252  0.0796
 7569W        W25773   2.193   7.740  15.377 -0.2267 -0.0688  0.3457
 7570W        W25774   3.894  13.460   4.532 -0.2903  0.2880  0.0121
 7571W        W25775  14.095   0.585   5.131  0.0375 -0.1579 -0.0293
 7572W        W25776  16.460   7.602   4.343 -0.1016 -0.0366  0.0292
 7573W        W25777   8.992  15.957   5.230 -0.0366 -0.1183  0.1142
 7574W        W25778   9.212  16.836  16.562  0.1404 -0.1905 -0.1542
 7575W        W25779  10.610   5.652   2.415 -0.2679  0.1790 -0.0088
 7576W        W25780   2.203  12.259   0.912  0.1573 -0.0751  0.2774
 7577W        W25781  12.428  10.373   1.769 -0.3782  0.3076  0.0488
 7578W        W25782  15.823   8.978   2.133 -0.0664 -0.0761 -0.1127
 7579W        W25783  12.370   2.324   4.329  0.0389 -0.1258  0.0056
 7580W        W25784   3.181  14.971   0.382  0.1592  0.2419 -0.2147
 7581W        W25785  10.006   9.370  14.382 -0.0518 -0.0926  0.1947
 7582W        W25786   2.563   0.804  12.766 -0.3673 -0.1677 -0.3988
 7583W        W25787  10.113  14.592  15.661  0.1398 -0.0792  0.0166
 7584W        W25788   7.439  12.204  14.633 -0.0702  0.1548 -0.0792
 7585W        W25789  12.499  15.446  13.283  0.0582 -0.0864  0.0660
 7586W        W25790   7.988   9.401   3.812  0.1633 -0.1681 -0.0186
 7587W        W25791  17.044   6.429  14.821  0.1394  0.1981  0.0309
 7588W        W25792   5.757   2.211   3.780 -0.1593  0.0466 -0.1748
 7589W        W25793   2.685  16.534   3.905 -0.4284  0.0931  0.0633
 7590W        W25794   1.484   9.739  16.734  0.0665 -0.0738 -0.0963
 7591W        W25795  10.744  11.523  11.709 -0.2108 -0.0481  0.3127
 7592W        W25796  14.882   6.546   2.263 -0.1082 -0.3110 -0.1053
 7593W        W25797   2.859   5.482   2.808  0.1736 -0.0149 -0.1629
 7594W        W25798  14.091  15.743  15.713 -0.0847  0.1686  0.0186
 7595W        W25799   2.239   2.634  14.548  0.1595  0.0451  0.0769
 7596W        W25800   4.480  12.746   1.859  0.3348 -0.0513  0.1085
 7597W        W25801   2.774  16.880   2.004  0.1635 -0.0511 -0.0410
 7598W        W25802   5.586   6.808  13.999  0.1174 -0.1167  0.0285
 7599W        W25803   9.064   4.201   0.027 -0.1887  0.2697  0.0785
 7600W        W25804   9.863   6.315  15.584  0.1556 -0.4388 -0.1343
 7601W        W25805  14.549   4.661   3.938  0.0824  0.1937 -0.1399
 7602W        W25806  13.879   0.759   4.107 -0.2399  0.1598  0.2467
 7603W        W25807   8.421   7.814   4.585  0.4723  0.0501 -0.0990
 7604W        W25808   4.943   9.200   2.102 -0.2045 -0.0468 -0.1690
 7605W        W25809  11.794  13.422  16.061  0.0641  0.0554 -0.2815
 7606W        W25810   8.584   9.474  14.990  0.2956  0.4313 -0.2545
 7607W        W25811   7.469   0.622  17.357 -0.0017 -0.2188 -0.2042
 7608W        W25812   1.430   8.826   4.825  0.2443  0.0989 -0.1156
 7609W        W25813  14.599   0.520   2.392  0.0399 -0.4716 -0.3016
 7610W        W25814   2.873   1.977  15.872  0.2971 -0.2878 -0.1540
 7611W        W25815   2.949   6.600  13.557  0.0917 -0.0988 -0.1474
 7612W        W25816   0.844   2.237   4.090  0.0307  0.2089 -0.2824
 7613W        W25817   6.612   3.140   4.392  0.0283 -0.1385  0.1469
 7614W        W25818   4.388  11.305   1.663 -0.1475  0.0378  0.3817
 7615W        W25819  17.108   7.873  16.041  0.1183 -0.0216  0.2865
 7616W        W25820   4.539   7.752   0.067 -0.1900 -0.1233 -0.2257
 7617W        W25821  12.590   8.704  17.035 -0.0075 -0.0005  0.0912
 7618W        W25822   7.311   6.959   1.251  0.0878 -0.1495 -0.0405
 7619W        W25823   4.932  15.558  15.258 -0.2470 -0.0611  0.0805
 7620W        W25824  13.115   7.871   0.119 -0.0411 -0.1164  0.0561
 7621W        W25825   2.008  12.477  16.275 -0.4022 -0.1607 -0.1980
 7622W        W25826   1.241  12.090   3.526 -0.2978  0.0185  0.2628
 7623W        W25827  11.340   9.953   1.361  0.0189  0.1555 -0.0960
 7624W        W25828   4.755   5.689   2.254 -0.1040 -0.0530 -0.0751
 7625W        W25829  14.346  11.574   1.944  0.1377  0.1019  0.1087
 7626W        W25830   4.328   5.838   1.287  0.3181 -0.4731  0.1562
 7627W        W25831   1.062  14.097  16.107 -0.1442 -0.0522  0.2713
 7628W        W25832   9.971  14.290   0.199  0.3746  0.1773  0.1239
 7629W        W25833   7.642  10.413  12.364  0.2188 -0.0123 -0.1015
 7630W        W25834  16.332  10.838   3.312 -0.1065 -0.0051 -0.1788
 7631W        W25835  12.696   0.332  16.610  0.1226 -0.2149 -0.3570
 7632W        W25836  14.900   2.853   0.134 -0.0793  0.2623 -0.0669
 7633W        W25837  17.080  15.731  14.053 -0.3459  0.0134 -0.2622
 7634W        W25838   1.956   8.841   1.184 -0.2663 -0.1657 -0.1135
 7635W        W25839   0.224   5.998   5.239 -0.0420  0.0225 -0.2483
 7636W        W25840  16.237  15.451   4.283 -0.2254 -0.3744 -0.0116
 7637W        W25841  13.900  14.249   1.833 -0.0224  0.0261 -0.0184
 7638W        W25842   8.883  16.418   2.735  0.0612  0.3104 -0.0854
 7639W        W25843   2.458   5.284  16.457 -0.3684 -0.3069  0.2688
 7640W        W25844   3.789   4.948   3.457  0.2278  0.3655 -0.1688
 7641W        W25845   2.131   2.218   3.498  0.0078 -0.2101  0.1346
 7642W        W25846   4.212   2.959  13.591 -0.3051  0.0603 -0.1309
 7643W        W25847  13.152  14.380  16.706  0.0317  0.0540 -0.1537
 7644W        W25848   6.214   8.001   0.620  0.3793 -0.2557 -0.2533
 7645W        W25849   2.717  16.640   2.997 -0.0173  0.3096 -0.0051
 7646W        W25850   6.303  13.981   4.672  0.2454  0.0236 -0.0750
 7647W        W25851  15.924  11.773  12.828  0.1054 -0.3044  0.0353
 7648W        W25852   6.429   4.705   2.475 -0.0265 -0.0388  0.1466
 7649W        W25853   7.881   3.874  12.464  0.1778  0.0592  0.0763
 7650W        W25854   7.417  16.140   4.773 -0.1219 -0.0746  0.0124
 7651W        W25855   4.296   9.221   3.890 -0.2911 -0.0782 -0.3441
 7652W        W25856   8.171   9.522   4.532 -0.0768  0.1793 -0.2785
 7653W        W25857   8.479   0.041   1.145 -0.1062  0.2212 -0.0594
 7654W        W25858   8.285   7.257   1.721  0.1492  0.0918  0.0438
 7655W        W25859   3.946   6.335   4.982 -0.0328  0.2026  0.1308
 7656W        W25860  13.150   1.378   4.045 -0.2444  0.0715 -0.0336
 7657W        W25861   3.805  10.705  15.862 -0.0296 -0.5148 -0.2543
 7658W        W25862   2.408   9.761   0.083  0.2399 -0.0834  0.2050
 7659W        W25863   3.494   0.037  14.056  0.1542  0.2415 -0.1046
 7660W        W25864   2.139  17.250  14.624  0.2790 -0.0444  0.0723
 7661W        W25865  10.472   7.082  12.006  0.1317  0.0650 -0.3660
 7662W        W25866   8.234   0.720  14.583  0.4587  0.0832 -0.3438
 7663W        W25867  12.563   8.570   1.510  0.1227 -0.2152 -0.0168
 7664W        W25868  17.009   9.121   2.121  0.3130 -0.0063  0.1146
 7665W        W25869  11.990  15.655  13.913  0.2004 -0.3629  0.2322
 7666W        W25870   6.207  16.326  14.441  0.0447  0.1409 -0.2472
 7667W        W25871   1.526  17.159   1.752  0.2824 -0.2683 -0.1309
 7668W        W25872   3.591   3.061   0.175  0.1703  0.1017 -0.0362
 7669W        W25873  13.021   0.625   1.495  0.1110  0.0703  0.1729
 7670W        W25874   0.078  15.123  14.962  0.1100 -0.3173 -0.0791
 7671W        W25875   4.629  14.252   0.418 -0.0202 -0.0483 -0.3381
 7672W        W25876   4.466   3.901  13.554  0.1185  0.2774  0.3647
 7673W        W25877  10.196   3.220  15.738 -0.0543 -0.2570 -0.1101
 7674W        W25878  17.230   6.924   3.664 -0.2898 -0.1845 -0.3551
 7675W        W25879  11.685   9.479   2.003 -0.2024 -0.0127  0.3155
 7676W        W25880   1.329   4.541   3.959  0.1319  0.1587 -0.1206
 7677W        W25881  11.320  14.274  12.763 -0.0746  0.2245 -0.3139
 7678W        W25882   7.679   6.076  11.947  0.5169 -0.4979  0.2874
 7679W        W25883  10.910  11.228   2.043  0.0517 -0.2348  0.1625
 7680W        W25884   2.755   5.558   0.899 -0.1612 -0.1970 -0.2477
 7681W        W25885   0.057  13.343   3.887 -0.1181  0.0398 -0.1100
 7682W        W25886  16.657   8.870   2.852 -0.2225  0.0896  0.1194
 7683W        W25887   0.741   7.212   0.730  0.2301  0.1217  0.1404
 7684W        W25888   8.223  16.374   3.527 -0.4164  0.1421 -0.1070
 7685W        W25889   8.793   8.783   1.054  0.1991  0.2028  0.2929
 7686W        W25890   5.126   6.512   1.439  0.1069  0.2943  0.0890
 7687W        W25891   5.658  13.350   0.539 -0.0871 -0.0411 -0.1478
 7688W        W25892  16.629   8.125   0.867 -0.1739 -0.2572 -0.1050
 7689W        W25893  13.577  14.537   1.549 -0.2071 -0.2190 -0.3854
 7690W        W25894  15.637   5.581  16.623  0.0025  0.0820 -0.2234
 7691W        W25895  14.416   7.680  17.299 -0.0226 -0.0662 -0.1619
 7692W        W25896  12.761   8.572   2.841 -0.2123 -0.0972  0.3061
 7693W        W25897   4.673   3.642  13.064  0.0063 -0.0470  0.0770
 7694W        W25898   9.337   4.255   3.426 -0.2111 -0.0445  0.4117
 7695W        W25899   3.445   5.123  13.005  0.1012 -0.1531  0.0179
 7696W        W25900   5.965   6.378  14.618  0.1799 -0.1142 -0.0450
 7697W        W25901  12.474   9.238   5.547  0.0937 -0.1026 -0.1122
 7698W        W25902  13.305   7.703   0.515 -0.1666  0.0563 -0.3000
 7699W        W25903   6.273   5.626   4.227 -0.2989  0.1725  0.1983
 7700W        W25904   6.752  13.307  16.072 -0.0587  0.0497 -0.0613
 7701W        W25905   1.477   7.932   0.175  0.0410  0.0693 -0.1609
 7702W        W25906  14.208   0.682  17.464  0.0830  0.1092 -0.0350
 7703W        W25907   7.585   1.125  17.099  0.1096  0.1238 -0.1347
 7704W        W25908  11.217  15.300  17.363  0.1494 -0.0584  0.1956
 7705W        W25909   9.734   3.894   1.053 -0.2089  0.3395  0.2734
 7706W        W25910   4.256   6.802   1.071  0.0042 -0.0939  0.0573
 7707W        W25911   1.650   9.863  17.420 -0.4336 -0.0105 -0.2889
 7708W        W25912   7.606   5.804   0.988  0.2375 -0.2555  0.0442
 7709W        W25913   8.289   8.649  12.565  0.0828  0.0236 -0.0256
 7710W        W25914   7.236   9.356   5.012 -0.2834 -0.0046 -0.1517
 7711W        W25915  13.287   4.585  11.951 -0.2975 -0.0235  0.1185
 7712W        W25916   0.954  12.696   5.312 -0.2445  0.1944  0.0440
 7713W        W25917   5.392   8.323   5.275  0.0230  0.0969  0.0131
 7714W        W25918   4.045  14.199  14.297  0.0725  0.1532 -0.0030
 7715W        W25919  11.474   9.864   4.368  0.1553  0.1773 -0.1707
 7716W        W25920   3.992   9.149  13.116 -0.0584 -0.0373  0.1581
 7717W        W25921   6.046  11.837   5.319 -0.1218 -0.4167  0.0413
 7718W        W25922  12.840  11.861  16.590 -0.0632 -0.1387 -0.0246
 7719W        W25923   5.200  12.347   2.481  0.1266 -0.0276  0.0547
 7720W        W25924   5.464  15.765  14.599 -0.0097  0.0380  0.1890
 7721W        W25925  16.757   5.712   5.507 -0.0580 -0.0052 -0.0013
 7722W        W25926  16.259  16.686  13.729 -0.2461  0.1322  0.0604
 7723W        W25927   3.059   3.459  13.672  0.2094 -0.2851  0.2099
 7724W        W25928   9.014   4.304   1.448 -0.1221  0.1699  0.0682
 7725W        W25929  15.225  13.787  13.301  0.2031 -0.1821  0.4572
 7726W        W25930   7.474   0.300   1.156  0.1556  0.0720 -0.1610
 7727W        W25931  12.215   3.872  15.019  0.0222  0.2611  0.0473
 7728W        W25932  16.555  13.841   4.914 -0.1975 -0.0595 -0.2079
 7729W        W25933  16.340   6.469   4.861 -0.0038  0.2044  0.3915
 7730W        W25934   1.305   1.815  12.294  0.2120 -0.0180 -0.0959
 7731W        W25935  11.923  11.767   3.761  0.1061  0.0195 -0.0353
 7732W        W25936  13.443   9.743  16.359 -0.3821 -0.2480 -0.1491
 7733W        W25937  15.098  10.594  16.142  0.1568 -0.1755 -0.1995
 7734W        W25938   6.314  12.801  13.986  0.2007  0.4369  0.2019
 7735W        W25939  11.360   7.344   3.498  0.1230 -0.0629 -0.1702
 7736W        W25940  13.162   1.079   2.776  0.0274 -0.1334 -0.0675
 7737W        W25941  16.280   3.278  17.063 -0.0250 -0.1280  0.1656
 7738W        W25942  16.175   2.542   1.067  0.2971 -0.0782 -0.0358
 7739W        W25943   7.611   6.850   0.741  0.4035 -0.1082  0.2004
 7740W        W25944   8.012  13.185  16.552  0.2428 -0.2435 -0.1237
 7741W        W25945  10.371  12.159   4.882  0.2549  0.3799 -0.0380
 7742W        W25946  15.019  14.034   4.935 -0.0044 -0.2810  0.0765
 7743W        W25947  14.089   9.784   2.870 -0.0328 -0.2879  0.1298
 7744W        W25948   9.692   2.108  17.020 -0.0389 -0.2597 -0.0864
 7745W        W25949   0.998   6.889   3.262 -0.0748  0.0575 -0.0331
 7746W        W25950  12.196  14.651   1.313 -0.2922 -0.0165 -0.2421
 7747W        W25951   0.066  16.737  16.443  0.0734 -0.7115  0.2504
 7748W        W25952   4.167   2.260   2.660 -0.0255  0.2962 -0.1415
 7749W        W25953   7.342   4.109  11.140 -0.0745 -0.3467  0.1583
 7750W        W25954   7.007  16.260  13.818  0.0129 -0.1501  0.0806
 7751W        W25955   9.554   2.465  14.258  0.1526 -0.0567  0.2624
 7752W        W25956   6.971  15.451  14.229 -0.2324 -0.2022 -0.0726
 7753W        W25957  15.900   2.035   1.033 -0.0008  0.1218 -0.0318
 7754W        W25958  14.691  13.878   5.356 -0.1986  0.2360 -0.1583
 7755W        W25959   9.425  15.475  13.995  0.1909 -0.4430 -0.0957
 7756W        W25960  16.215   6.529  14.569 -0.2086  0.1944 -0.0912
 7757W        W25961  11.042  11.117  13.491 -0.2489  0.0180 -0.1074
 7758W        W25962   2.050  14.199   4.814 -0.0175  0.1586  0.0415
 7759W        W25963  15.759  11.778   3.896 -0.2539 -0.2501 -0.3129
 7760W        W25964   7.642   0.402   3.707  0.0800  0.0466 -0.0193
 7761W        W25965   6.786   2.246  14.799 -0.2542 -0.1655 -0.1764
 7762W        W25966  10.978  11.920   4.298 -0.3208 -0.1697  0.2038
 7763W        W25967   0.165   5.019   1.531  0.1046 -0.1478 -0.0121
 7764W        W25968   3.293   1.879   3.109 -0.1460  0.2920  0.1507
 7765W        W25969   9.438   2.511  17.277 -0.1957  0.3063  0.0306
 7766W        W25970  13.687  14.601   3.356  0.1438 -0.0612  0.0943
 7767W        W25971   2.561   3.530  14.061 -0.2758  0.0893 -0.1502
 7768W        W25972   7.294   2.803  12.136  0.1807  0.2557 -0.0756
 7769W        W25973   8.733  16.777  16.311 -0.0383  0.0383 -0.1012
 7770W        W25974  16.524   5.513   4.523  0.0224  0.2703  0.2645
 7771W        W25975   8.017   3.710   3.754  0.1555  0.1017  0.1639
 7772W        W25976   1.528  13.073   0.353  0.1921  0.0042 -0.2201
 7773W        W25977   6.789  12.434   2.741  0.3078  0.1569  0.2190
 7774W        W25978   7.394  12.615   5.009 -0.2612 -0.1453 -0.2235
 7775W        W25979  13.887   6.792   5.036 -0.1708  0.0363 -0.0172
 7776W        W25980   9.589  15.827   2.395 -0.0459 -0.1580 -0.0063
 7777W        W25981   2.387   0.645   6.136  0.1358 -0.0764  0.0652
 7778W        W25982  16.243  11.549   1.880 -0.0014 -0.0438 -0.2001
 7779W        W25983   3.218  15.493  14.505 -0.4063 -0.0483  0.0627
 7780W        W25984   1.738   9.924  15.901 -0.0021  0.2945  0.1021
 7781W        W25985  16.857  15.814  13.501 -0.0766  0.0457  0.1119
 7782W        W25986   7.354  11.083  14.540  0.0172 -0.0819  0.2020
 7783W        W25987   8.956   8.373  13.282  0.1077  0.0035 -0.1898
 7784W        W25988   9.683   5.690   3.323 -0.1525 -0.0986  0.4115
 7785W        W25989   0.544  10.556  13.217  0.0972  0.3260 -0.1559
 7786W        W25990   2.068  13.383  12.750  0.2810  0.0529 -0.0171
 7787W        W25991   8.568   1.247   4.334  0.3026 -0.4218  0.2308
 7788W        W25992   6.253   3.217  12.601 -0.1413 -0.2007  0.1028
 7789W        W25993  12.759  12.809   5.470  0.1575 -0.1437  0.3051
 7790W        W25994   7.064   8.807  15.977 -0.3375 -0.0925 -0.0635
 7791W        W25995  13.927   3.472   0.641  0.0993  0.3331  0.0989
 7792W        W25996  14.908   5.468  17.261 -0.0576  0.0342 -0.1124
 7793W        W25997  11.986   4.166   1.370  0.0847 -0.0432  0.2438
 7794W        W25998  14.686   5.446   3.212  0.0741  0.0320 -0.2605
 7795W        W25999   1.649  12.355   5.657 -0.0363 -0.0676  0.0333
 7796W        W26000   9.745   1.102  17.064  0.0229 -0.1250  0.0219
 7797W        W26001   6.721  11.764  13.996  0.0379 -0.2655 -0.4364
 7798W        W26002   5.363   1.057   2.286 -0.2876 -0.0591 -0.3942
 7799W        W26003  13.699   5.624  17.473 -0.0178 -0.0777  0.2117
 7800W        W26004   0.140  16.611  13.999 -0.0602  0.0110 -0.0486
 7801W        W26005   3.511   9.561  13.449  0.0542 -0.2080  0.1278
 7802W        W26006   7.823   4.220  15.459  0.2270  0.2561 -0.2254
 7803W        W26007   6.258   4.376  12.099 -0.2599  0.2066  0.2743
 7804W        W26008   9.135  14.096  12.234 -0.1106  0.4254  0.1454
 7805W        W26009  10.831   8.559  16.622 -0.2778  0.3691 -0.0806
 7806W        W26010  16.731   8.975  16.806  0.0776  0.0096  0.1211
 7807W        W26011  14.454   2.771   1.009 -0.0919  0.0298 -0.1364
 7808W        W26012   6.672   2.406  16.007 -0.4161 -0.1638  0.3154
 7809W        W26013  11.969   3.345  16.624  0.0877  0.2439 -0.0648
 7810W        W26014  15.424   7.633   1.970  0.0733  0.2615  0.0295
 7811W        W26015   7.607   9.568  17.053  0.0208  0.1941  0.1742
 7812W        W26016   3.509   2.274  12.254  0.0618  0.0461  0.0686
 7813W        W26017  15.628  10.515   0.987  0.4658  0.0842 -0.2348
 7814W        W26018  15.783   5.440  15.162 -0.1190  0.0191 -0.1435
 7815W        W26019  14.442   3.799   1.201 -0.2030  0.2844 -0.0083
 7816W        W26020   2.468   8.591   1.217 -0.2263  0.2017  0.1616
 7817W        W26021  12.334  12.446   2.590 -0.2735 -0.0657 -0.0339
 7818W        W26022  12.141  15.734   0.654 -0.0620 -0.1987 -0.2642
 7819W        W26023  15.282  16.523  13.946  0.0804  0.1954 -0.1416
 7820W        W26024  13.315   3.346   4.663  0.0796  0.0298 -0.1394
 7821W        W26025  17.019   9.756   0.770 -0.5411  0.0114 -0.1186
 7822W        W26026  13.366   3.826  15.229 -0.2055 -0.1670 -0.1078
 7823W        W26027  16.660  10.847  13.792  0.0837  0.0255  0.3816
 7824W        W26028   6.956  12.174  13.315 -0.2231  0.3654  0.1534
 7825W        W26029   8.425   6.078  14.342 -0.0673  0.3876 -0.0167
 7826W        W26030  11.592   6.324  14.909 -0.1542  0.1254  0.0483
 7827W        W26031   8.316  13.787   2.582 -0.0610  0.2514 -0.0456
 7828W        W26032   0.275  16.596   2.191  0.3230 -0.1053 -0.2736
 7829W        W26033   8.747   8.869  13.919  0.0260  0.2079 -0.1209
 7830W        W26034  16.696   1.386   2.474  0.5302  0.1793 -0.1527
 7831W        W26035   5.528   2.064  16.007 -0.3180  0.1797 -0.3674
 7832W        W26036  13.781   6.472   0.263 -0.1647  0.1199 -0.0364
 7833W        W26037  16.550  14.303  14.405  0.0884  0.1853 -0.1337
 7834W        W26038  12.663   3.726  14.835 -0.0148  0.0982 -0.0571
 7835W        W26039  10.266   0.027  12.946  0.1455 -0.1020  0.1365
 7836W        W26040  10.385  10.938   0.446 -0.2004 -0.1978 -0.2045
 7837W        W26041   7.654   4.482  16.853  0.3846  0.1088 -0.0864
 7838W        W26042   8.218   1.991   4.548 -0.2365 -0.1843 -0.3857
 7839W        W26043  10.358  15.514   0.372 -0.2306  0.1570 -0.1301
 7840W        W26044   4.321   7.735  12.493  0.1448  0.0907 -0.1806
 7841W        W26045   8.808   7.819   4.227  0.0032 -0.0187 -0.0277
 7842W        W26046  14.016   7.378  15.665  0.2862 -0.2079  0.1133
 7843W        W26047   7.405   2.908  16.461  0.2744 -0.1291  0.3982
 7844W        W26048  14.730   5.843   1.128  0.0014 -0.0432 -0.0845
 7845W        W26049  12.550  16.435   1.045  0.2412  0.1102 -0.0876
 7846W        W26050  12.503  16.813  15.401 -0.1143 -0.1045 -0.2088
 7847W        W26051  15.958  10.374  15.900  0.1668  0.0509 -0.1047
 7848W        W26052   5.407  14.497  13.795  0.2722 -0.1798  0.3325
 7849W        W26053   4.299   3.824   1.516  0.1054  0.4933 -0.0484
 7850W        W26054   1.399  16.657  15.180 -0.0756 -0.2773 -0.0383
 7851W        W26055  10.784   4.729   0.376  0.2607  0.2361 -0.1047
 7852W        W26056   5.944   1.813  12.015  0.0183 -0.1221 -0.0879
 7853W        W26057  11.790   7.254  17.319 -0.2547  0.0291 -0.3844
 7854W        W26058  15.684  17.169   5.659 -0.2188  0.0468  0.2834
 7855W        W26059  13.481   4.311   2.520 -0.0285 -0.2132  0.0611
 7856W        W26060   6.321   9.649   3.935  0.0420  0.0789  0.1038
 7857W        W26061  16.068  12.813  14.644 -0.3601  0.1856 -0.1504
 7858W        W26062   0.462  14.197   4.820 -0.0040 -0.0849  0.1860
 7859W        W26063   5.703   5.842   4.439  0.3025 -0.0802  0.0796
 7860W        W26064   5.041  17.144  15.925 -0.1605 -0.0833  0.0191
 7861W        W26065   4.094  13.112  16.335  0.2250  0.3246  0.0565
 7862W        W26066   2.783   9.290   5.378 -0.2101 -0.0154 -0.0826
 7863W        W26067   3.486   0.206  14.961  0.1793  0.1044 -0.1666
 7864W        W26068  13.770   6.146   4.512  0.1647 -0.2099  0.3145
 7865W        W26069   7.279   2.314  14.397 -0.1962 -0.0232 -0.0545
 7866W        W26070   5.853   5.322   4.245  0.3221  0.1256 -0.2013
 7867W        W26071  16.729   8.062   0.001  0.0785  0.2165 -0.1467
 7868W        W26072  13.691   6.886  11.349 -0.1720  0.1634 -0.1524
 7869W        W26073  16.196   7.888  15.250  0.0775  0.1087  0.1204
 7870W        W26074   5.982   0.651   3.666 -0.0976 -0.0382  0.1011
 7871W        W26075  15.933  10.896   2.434 -0.1562  0.0964 -0.1393
 7872W        W26076  15.369   9.927  13.826 -0.0589  0.3309  0.3611
 7873W        W26077  11.761  10.313  13.778 -0.1362  0.0440 -0.0433
 7874W        W26078   9.369   7.992   3.322 -0.0491  0.2035 -0.0507
 7875W        W26079   0.063   2.526  16.902  0.2168  0.1571 -0.0105
 7876W        W26080   2.175   9.805  12.842  0.4490  0.2946  0.0817
 7877W        W26081  14.449  16.545  12.562 -0.0464  0.4137 -0.0670
 7878W        W26082   2.709  12.085   1.023 -0.1776 -0.1046  0.2465
 7879W        W26083  15.059   3.893   5.038 -0.4228  0.0770  0.2523
 7880W        W26084   9.587  14.270   2.827  0.2702 -0.0263  0.2111
 7881W        W26085  13.087   2.836   1.362  0.0369 -0.0448 -0.1503
 7882W        W26086   3.728   4.148  13.082 -0.1472 -0.0179 -0.3510
 7883W        W26087  12.407   3.046   2.110 -0.1991  0.0075 -0.2073
 7884W        W26088   1.213  14.536  16.335  0.3830  0.1653 -0.2719
 7885W        W26089   9.514   2.369  15.030 -0.0418  0.1580  0.0084
 7886W        W26090   0.626   2.437  13.864 -0.1514 -0.0137 -0.1796
 7887W        W26091   8.881   3.984  16.296 -0.1338  0.1461  0.2861
 7888W        W26092  17.303  13.977   5.161  0.0763 -0.2435 -0.1258
 7889W        W26093   3.850   5.464   5.186 -0.1057 -0.2369 -0.1879
 7890W        W26094  11.834   8.447   4.715 -0.0700 -0.1958 -0.1940
 7891W        W26095  14.453  11.249   4.502 -0.0393  0.1382  0.3026
 7892W        W26096   4.038  11.942   0.475  0.4472 -0.2117  0.0330
 7893W        W26097   8.510  16.254   4.050  0.1821 -0.2131  0.3024
 7894W        W26098   2.551   7.982   2.270  0.0281 -0.2800 -0.2824
 7895W        W26099   6.404  10.822   5.214  0.0762  0.0815  0.2257
 7896W        W26100   3.308   9.423  14.207 -0.2340  0.0568  0.0158
 7897W        W26101   9.460  15.190  14.578 -0.0966 -0.0828 -0.1916
 7898W        W26102   4.524   8.189  16.101  0.3167 -0.1774 -0.4319
 7899W        W26103   5.637   6.570  16.750 -0.1097 -0.1079 -0.1419
 7900W        W26104  15.665  13.706   5.042 -0.0788  0.4059  0.1036
 7901W        W26105  11.625  11.404   3.754  0.1799  0.0044  0.5700
 7902W        W26106   2.654   5.190   1.963 -0.1142 -0.0224  0.0613
 7903W        W26107   9.890  15.674   5.197 -0.1203  0.0715 -0.1796
 7904W        W26108   3.400  16.897  14.187 -0.1132 -0.0960  0.2483
 7905W        W26109   9.812   5.609   0.014  0.1896 -0.0217  0.2409
 7906W        W26110   0.773   3.339   0.141 -0.0163 -0.3407  0.0295
 7907W        W26111   2.885  14.106  11.999  0.0670 -0.0810 -0.2918
 7908W        W26112   9.380   1.176  11.282  0.1145  0.4199  0.2624
 7909W        W26113  12.076   5.871  12.192 -0.0256 -0.1368 -0.1112
 7910W        W26114  10.881   4.547   2.491 -0.2079  0.2015 -0.1365
 7911W        W26115  13.478   2.673  12.787  0.2145  0.2803  0.0199
 7912W        W26116  12.918  12.307   0.915  0.1841  0.0376  0.0624
 7913W        W26117   7.475  11.362  11.908  0.0422 -0.1680 -0.1240
 7914W        W26118   4.845  10.802  17.265 -0.0353  0.2732  0.2637
 7915W        W26119   1.497  16.371   1.058  0.4090 -0.3059  0.0175
 7916W        W26120  11.812  12.901  15.927 -0.0214 -0.1628  0.0402
 7917W        W26121  11.784  17.266   2.853 -0.2823  0.3915 -0.0819
 7918W        W26122  15.105  15.056  16.383  0.1593  0.3062 -0.2664
 7919W        W26123   9.671   9.449  12.693  0.2499 -0.1923 -0.1820
 7920W        W26124   2.846   8.761   2.092 -0.0997  0.3475  0.1713
 7921W        W26125   4.189  10.064   0.688 -0.0746  0.1195  0.0338
 7922W        W26126  12.673   3.557   0.853  0.3595  0.2963  0.1379
 7923W        W26127   9.658  12.791   0.546  0.1969  0.0536  0.3858
 7924W        W26128   9.955  13.347   5.760  0.0754 -0.0645 -0.1094
 7925W        W26129  10.750   5.905  15.302 -0.1779 -0.1760  0.1640
 7926W        W26130   0.041  17.221   1.454  0.1331  0.1538 -0.1705
 7927W        W26131  11.732  13.831   3.194 -0.0006 -0.0695  0.1393
 7928W        W26132  15.929  15.063   3.164  0.1232  0.0810 -0.3490
 7929W        W26133   4.700  12.137  17.363 -0.2046  0.1281 -0.0720
 7930W        W26134  16.031   0.451  12.944 -0.0805 -0.1357  0.1360
 7931W        W26135   8.136   3.377   0.027  0.0149  0.1501 -0.2813
 7932W        W26136  10.203  11.504  14.974 -0.4975  0.2751 -0.2276
 7933W        W26137   8.720   3.403  13.152 -0.2185  0.2805 -0.0174
 7934W        W26138   2.919   4.401   5.040  0.1353  0.1571 -0.1502
 7935W        W26139   4.014  13.266   4.070  0.0750  0.1225 -0.0263
 7936W        W26140   9.878   6.602   4.725  0.0859  0.0042  0.3107
 7937W        W26141  16.178  15.640   1.479  0.2475 -0.0065 -0.0639
 7938W        W26142   1.935  10.103   3.648  0.1011  0.3184  0.0150
 7939W        W26143   4.861   3.982   6.229 -0.3102  0.0930 -0.0659
 7940W        W26144  16.931   2.478  15.563 -0.1320  0.0435 -0.1095
 7941W        W26145  11.163   6.178   1.078  0.0147 -0.2537  0.3829
 7942W        W26146   6.754   8.964   2.053  0.0244 -0.0332 -0.1564
 7943W        W26147  17.246   8.475   0.486  0.0567  0.0373  0.2940
 7944W        W26148   1.253   8.585   0.817  0.0148  0.3137 -0.0887
 7945W        W26149   7.201  15.511   1.480 -0.0177 -0.0838 -0.2245
 7946W        W26150   2.295   3.818  14.852 -0.2806 -0.1221 -0.0924
 7947W        W26151  10.575  17.108  12.316  0.0329 -0.2646 -0.2432
 7948W        W26152   9.742   2.132   2.059  0.0034  0.1711 -0.1246
 7949W        W26153  14.158   9.600  15.918  0.0224  0.0043 -0.0687
 7950W        W26154   0.971   5.334   2.381  0.0465 -0.3151 -0.1592
 7951W        W26155   3.974  11.069   0.811 -0.2450  0.2003 -0.0683
 7952W        W26156   2.059   2.909  12.977 -0.3171 -0.1163 -0.0942
 7953W        W26157   4.629  12.190   2.628  0.0216 -0.2034 -0.1383
 7954W        W26158   4.051   4.657  17.372  0.0153 -0.1545 -0.0078
 7955W        W26159   2.944   5.840   1.299 -0.2915 -0.0251  0.3312
 7956W        W26160  15.147   6.046   3.426  0.2073 -0.0329  0.0332
 7957W        W26161   7.532  14.187   3.987 -0.4956 -0.0495  0.1524
 7958W        W26162  15.323   7.641  13.026  0.2136 -0.0375  0.0680
 7959W        W26163   3.766  16.058  12.151  0.0056 -0.0249 -0.2521
 7960W        W26164   6.146   9.923   2.954 -0.3745 -0.0779  0.0756
 7961W        W26165  16.888  10.994  17.460  0.2108 -0.0784  0.0236
 7962W        W26166   8.767   1.065   3.898  0.0104  0.1694 -0.1365
 7963W        W26167   2.916   3.647  15.780  0.2019  0.0509 -0.0500
 7964W        W26168  14.127   6.597  14.541  0.2753  0.0905  0.1911
 7965W        W26169   4.496   1.658   4.340 -0.0773 -0.2462 -0.2895
 7966W        W26170  11.879   2.712  12.326  0.1130  0.1015  0.2437
 7967W        W26171   4.228   0.690   5.357  0.0454 -0.0353  0.1893
 7968W        W26172   9.978  12.498  14.163 -0.0209 -0.2164 -0.1560
 7969W        W26173   8.851  10.062   5.444 -0.0686  0.1394  0.1539
 7970W        W26174   3.254  15.866   0.788  0.1096 -0.1780  0.6616
 7971W        W26175  12.429   6.164  14.772 -0.4239 -0.1446 -0.1419
 7972W        W26176   6.853  14.670   3.256 -0.1495  0.0981  0.0686
 7973W        W26177  14.298   6.863  13.558  0.2063  0.2469 -0.1233
 7974W        W26178   6.965   4.088  15.782  0.0411  0.0339  0.1213
 7975W        W26179   1.132  14.489   3.030 -0.1148  0.1280 -0.0359
 7976W        W26180  16.303  12.940  13.811 -0.2024 -0.1610  0.1128
 7977W        W26181  12.317   3.031  16.993 -0.0792  0.0415  0.1357
 7978W        W26182   7.537  17.281  14.932 -0.1127 -0.1311  0.2280
 7979W        W26183  16.646  13.863   3.607  0.0065 -0.0475  0.2073
 7980W        W26184   7.913   7.775   2.330 -0.0598 -0.1015  0.1787
 7981W        W26185  10.419  17.219   1.365  0.1924 -0.0894 -0.1687
 7982W        W26186  15.400  12.052  15.012  0.1017 -0.2271  0.0389
 7983W        W26187   2.897  16.901  12.706 -0.0264 -0.1346  0.0091
 7984W        W26188   0.315  10.157  15.121 -0.0152  0.0835 -0.0587
 7985W        W26189   9.774   2.386  12.296 -0.0398 -0.0617 -0.1429
 7986W        W26190  11.650  16.765  11.802  0.0485 -0.3001 -0.1069
 7987W        W26191  14.963  13.068   4.918 -0.2745 -0.2207 -0.0620
 7988W        W26192  11.726   3.351   0.273  0.1317 -0.1082  0.2072
 7989W        W26193  11.755   2.710   1.935  0.2498 -0.0748 -0.2055
 7990W        W26194   5.370  14.846   0.839 -0.1442 -0.2312 -0.0515
 7991W        W26195  13.010   0.977   0.810  0.2227  0.1814 -0.1996
 7992W        W26196  13.111  11.516  14.894 -0.0291 -0.1456  0.0927
 7993W        W26197  13.698   2.846  14.940 -0.1125 -0.0287  0.1150
 7994W        W26198  15.173   8.283  14.609  0.3086  0.0033 -0.0249
 7995W        W26199  14.019  17.117   1.969 -0.0434  0.2072 -0.0014
 7996W        W26200  15.692   3.677  13.560  0.1031  0.1444  0.3356
 7997W        W26201  11.530   1.174   0.995 -0.2705  0.1380  0.0426
 7998W        W26202   7.868  14.738  11.896  0.0935  0.0220 -0.0384
 7999W        W26203   3.986   2.427  12.949 -0.2675  0.2715  0.0460
 8000W        W26204  12.573  12.539   1.196  0.2017 -0.1775  0.1572
 8001W        W26205  13.425   8.990  14.612 -0.3183  0.0127 -0.2693
 8002W        W26206  13.761  14.410  17.503 -0.1445 -0.0874 -0.0142
 8003W        W26207  10.558   3.665   2.872 -0.0960  0.2861  0.0284
 8004W        W26208  15.027   6.736  12.927  0.1594  0.0841  0.4141
 8005W        W26209   3.870   7.811  13.030  0.2746  0.0747  0.0763
 8006W        W26210   6.435   0.303   0.633 -0.0623 -0.1053  0.1069
 8007W        W26211  12.318  12.728   5.183  0.0447 -0.1036  0.1590
 8008W        W26212   1.791  11.384   2.249 -0.1111 -0.3665 -0.0155
 8009W        W26213   6.408   2.706   4.579 -0.2129  0.1134  0.0281
 8010W        W26214  16.302  10.515   1.606 -0.0037  0.0290  0.0773
 8011W        W26215   6.729  15.687  13.433  0.0724 -0.0279  0.2941
 8012W        W26216   0.490  16.678  16.700  0.0516 -0.0527 -0.0021
 8013W        W26217  12.065   2.216  13.068 -0.1239  0.4385 -0.0080
 8014W        W26218   8.576   0.981   0.152  0.3678  0.2798 -0.1333
 8015W        W26219  15.267   4.567  17.167 -0.0640  0.2027  0.2119
 8016W        W26220  14.611   5.396   2.114  0.2570 -0.2546  0.0411
 8017W        W26221   6.580   8.280   0.101 -0.3572  0.1143 -0.1593
 8018W        W26222  10.196   3.198   1.367  0.2456 -0.1031  0.1165
 8019W        W26223   5.782   7.629   4.615  0.0286  0.1387 -0.0815
 8020W        W26224   1.071   8.454  16.598  0.1383 -0.2426  0.0192
 8021W        W26225  14.225  10.186  16.651  0.2118 -0.1869 -0.1295
 8022W        W26226   5.486   5.823   3.573 -0.1273 -0.0590 -0.1132
 8023W        W26227  14.832   4.706  13.676  0.1296 -0.1278 -0.0659
 8024W        W26228  17.259   2.870  15.941 -0.2924 -0.1334  0.4070
 8025W        W26229   4.337   8.466   2.395 -0.1839  0.1805  0.2487
 8026W        W26230  12.364   7.055   1.563  0.1695  0.0121 -0.0698
 8027W        W26231  14.964   8.104   3.047  0.2951 -0.0605 -0.2237
 8028W        W26232   8.794   1.579   3.823 -0.1809  0.1284 -0.0348
 8029W        W26233  11.454   8.410   5.311  0.0543 -0.1660  0.1899
 8030W        W26234   7.090   7.888  15.054  0.1811 -0.2099  0.0441
 8031W        W26235  16.629  14.163  17.215  0.0869 -0.2360 -0.0984
 8032W        W26236   2.803   6.703  14.581 -0.1629 -0.3747  0.0651
 8033W        W26237  12.739  10.095  17.087  0.1915 -0.0181  0.2467
 8034W        W26238   6.807   2.890  11.116  0.0500 -0.0040  0.0475
 8035W        W26239   6.648  16.972  16.840 -0.3110  0.0803  0.2167
 8036W        W26240  11.799   9.805   1.574  0.0034 -0.1337 -0.1986
 8037W        W26241   2.339   4.499  16.656  0.4272 -0.1121 -0.0453
 8038W        W26242  15.502  10.286   1.647  0.2961 -0.1943  0.1041
 8039W        W26243   7.574  13.540   0.502  0.2513 -0.1899  0.0598
 8040W        W26244   3.749  10.264  17.222  0.0586  0.0047  0.0879
 8041W        W26245  10.236   5.231  17.251  0.2612 -0.0509  0.1433
 8042W        W26246   3.871  15.876   3.984  0.1532  0.0100  0.0116
 8043W        W26247   3.562   5.134  14.770 -0.3667  0.0699  0.4518
 8044W        W26248  14.994   4.908  16.528 -0.0464  0.2248 -0.0736
 8045W        W26249  10.479   9.811  13.661 -0.2156 -0.2988 -0.2731
 8046W        W26250  14.672   7.060  13.851  0.1509  0.0991 -0.1774
 8047W        W26251   9.160  11.475   0.709 -0.0131  0.0659  0.0829
 8048W        W26252  14.838   4.250  16.472  0.0589  0.0234  0.0024
 8049W        W26253   8.085   5.353   1.521 -0.0405  0.2762 -0.2257
 8050W        W26254   5.668  15.126   0.576  0.0622 -0.1761 -0.0395
 8051W        W26255  10.437  15.548   2.861  0.2623  0.1263  0.1476
 8052W        W26256  16.777   0.041  14.258 -0.0141  0.2604  0.0933
 8053W        W26257   6.790   0.298  12.443 -0.1821  0.0040  0.0660
 8054W        W26258   5.768  15.264  16.352 -0.4004  0.0088 -0.2219
 8055W        W26259  15.171  14.843   5.589 -0.1910 -0.1522 -0.0893
 8056W        W26260   0.648  12.994   2.345  0.0127 -0.0282 -0.0567
 8057W        W26261  16.801  16.319  12.062 -0.2321  0.0009  0.1264
 8058W        W26262   0.017   6.967  12.641  0.1747 -0.0861  0.4984
 8059W        W26263  13.054  11.784   1.120 -0.2922  0.0161  0.1689
 8060W        W26264   5.676  13.370   1.066 -0.2611  0.1605  0.3169
 8061W        W26265   4.116  13.075   1.646  0.3638  0.0302 -0.1232
 8062W        W26266   4.035  10.068   3.081  0.1017 -0.0674 -0.1821
 8063W        W26267   2.006   3.083  16.915  0.0803 -0.0412  0.0791
 8064W        W26268   1.359  15.275   2.391 -0.0895  0.3619 -0.2455
 8065W        W26269  12.871   5.244  12.922  0.0979 -0.0426 -0.0592
 8066W        W26270   9.030  17.130  16.953  0.3257 -0.1004 -0.1435
 8067W        W26271   5.382   3.512  17.066 -0.1405  0.0643 -0.1418
 8068W        W26272   5.737   9.866  16.544  0.0528 -0.3364 -0.3479
 8069W        W26273   4.030   0.165  17.491 -0.4573  0.0249 -0.0105
 8070W        W26274  15.127  14.424   5.249 -0.0837 -0.1681  0.0019
 8071W        W26275  11.259   8.533  13.253  0.0569  0.2508 -0.2585
 8072W        W26276  14.005   0.947  14.594 -0.3515  0.0940  0.0631
 8073W        W26277  14.986  15.977   4.584  0.0946  0.0303  0.0314
 8074W        W26278   6.978  14.145  14.115 -0.2044  0.1698 -0.2657
 8075W        W26279   2.241  14.996   4.617 -0.0805 -0.1750  0.1119
 8076W        W26280  16.922  16.739  16.719  0.2409 -0.0325  0.3091
 8077W        W26281  11.078   7.615  14.817  0.0779  0.0481 -0.3408
 8078W        W26282   5.173   4.591  12.644 -0.1276  0.0798  0.1036
 8079W        W26283  17.051   7.678  12.500  0.2922 -0.3048  0.0767
 8080W        W26284  15.532   1.110   0.103  0.0938  0.0455  0.0912
 8081W        W26285   4.018  16.086   1.829  0.0842 -0.1169 -0.0747
 8082W        W26286   9.568  12.099  14.726  0.1036  0.3363 -0.0406
 8083W        W26287   3.466  14.463  12.393  0.0947  0.3186 -0.1892
 8084W        W26288   8.274   5.124  14.827  0.2713 -0.1329 -0.0289
 8085W        W26289   5.883   0.620   2.383  0.0235  0.1066  0.2611
 8086W        W26290   0.925  10.629  14.590  0.3086 -0.0009 -0.2292
 8087W        W26291  11.215   5.911  17.017  0.0104  0.1907 -0.1068
 8088W        W26292  10.580   9.410  17.171  0.3079  0.0393  0.0024
 8089W        W26293   0.272   4.259  14.910  0.1327 -0.0021  0.1000
 8090W        W26294  11.282   3.999  17.476 -0.0160  0.0894 -0.0682
 8091W        W26295   6.390   9.255   1.781 -0.0400  0.0316  0.1984
 8092W        W26296   0.496   2.643  14.718  0.2363  0.0415  0.1060
 8093W        W26297   9.684  10.999  13.171  0.2895 -0.0233  0.1634
 8094W        W26298  12.993   7.439   0.817 -0.3851  0.3936  0.3693
 8095W        W26299  10.756   6.878  13.270 -0.3036 -0.1635 -0.0744
 8096W        W26300  15.764  16.289   0.302 -0.1951 -0.0424 -0.2004
 8097W        W26301  14.393   5.125   0.510  0.1863 -0.0788 -0.1605
 8098W        W26302   1.862  16.520  13.593 -0.1215 -0.1659  0.0015
 8099W        W26303  11.968  16.541  15.323  0.0750  0.0877 -0.1106
 8100W        W26304   9.018   4.317  12.757 -0.1953  0.1481 -0.2954
 8101W        W26305  13.041  10.424   2.276  0.0161  0.1840  0.0118
 8102W        W26306   6.944   6.564  16.352  0.0495 -0.1007  0.0437
 8103W        W26307  15.054  16.647   3.601 -0.0459 -0.0199 -0.0844
 8104W        W26308  12.436  12.562   0.716  0.0695  0.0090 -0.0691
 8105W        W26309  16.599  15.899  17.425 -0.1033 -0.2806 -0.2131
 8106W        W26310   2.209  12.994   1.860 -0.3946 -0.3267  0.2547
 8107W        W26311  17.140  11.559  16.682 -0.2523  0.1973  0.4661
 8108W        W26312   7.661  14.441   4.492 -0.4906 -0.1802 -0.2935
 8109W        W26313  12.294  16.526  12.422 -0.0131 -0.0382  0.0911
 8110W        W26314   6.980   4.262  12.568  0.3051  0.0773  0.1466
 8111W        W26315   1.347   5.353   0.530  0.0054 -0.1568  0.2087
 8112W        W26316   0.346   5.513  14.829  0.2435  0.0962  0.0390
 8113W        W26317  15.283  14.125  15.923 -0.2795 -0.1302 -0.2216
 8114W        W26318   9.094   3.413  12.150 -0.0502 -0.2333 -0.0444
 8115W        W26319  13.545   3.227   1.039  0.2295 -0.2136 -0.1421
 8116W        W26320  11.677  12.253   0.336 -0.1437 -0.2823 -0.2006
 8117W        W26321   5.851  12.986   4.512 -0.1128  0.2246 -0.2356
 8118W        W26322   2.694  13.998  12.483 -0.1569  0.0889  0.0330
 8119W        W26323   8.966   9.138   4.830 -0.0729  0.1654  0.1560
 8120W        W26324   5.134  15.929  16.682  0.0041 -0.1072 -0.0867
 8121W        W26325  11.013   9.097   3.799 -0.0278  0.0897  0.0550
 8122W        W26326   6.328   3.291   1.409  0.2206  0.1908  0.3110
 8123W        W26327  14.951   3.795  16.733 -0.3408 -0.0204  0.1263
 8124W        W26328  14.566  10.653   3.052  0.1254 -0.3499  0.0052
 8125W        W26329   6.362   2.542  14.961 -0.2274 -0.0113 -0.0830
 8126W        W26330   9.159  13.343   2.946 -0.2530 -0.0729  0.0708
 8127W        W26331   1.302   3.692   5.145  0.0493 -0.0968 -0.1424
 8128W        W26332   2.275  10.826   4.756  0.0427  0.0911 -0.2766
 8129W        W26333  15.703  10.522  14.559 -0.1954  0.2013  0.0304
 8130W        W26334  10.694  13.179  17.249 -0.0045 -0.1625 -0.0240
 8131W        W26335   9.618   7.133  14.137  0.0011  0.1482 -0.1232
 8132W        W26336   1.984   2.397   2.936 -0.1887  0.0591 -0.1595
 8133W        W26337   3.727  15.238  16.170  0.2190 -0.2501  0.0539
 8134W        W26338   4.098   0.398  13.472  0.0919 -0.0573  0.2070
 8135W        W26339  13.385   0.279   1.292 -0.0665 -0.2722  0.1719
 8136W        W26340  11.253  16.789   1.234 -0.1559  0.1185  0.0006
 8137W        W26341   0.505  16.487  16.186 -0.1123 -0.0563  0.0814
 8138W        W26342  12.660   4.451   3.482 -0.1682  0.0857 -0.4363
 8139W        W26343   3.112  14.258  13.950 -0.0977 -0.2000 -0.0997
 8140W        W26344  10.682   4.151   3.627 -0.0561  0.2121  0.0082
 8141W        W26345   2.520  12.409   2.786  0.0198 -0.3783 -0.3324
 8142W        W26346  16.252   4.541  14.165 -0.1737  0.1305 -0.2523
 8143W        W26347   0.419  12.671  13.387 -0.2311  0.3799 -0.0046
 8144W        W26348   7.916  10.604  16.233 -0.2052  0.0333  0.1540
 8145W        W26349  13.033   0.970  15.294 -0.2149  0.1624 -0.0491
 8146W        W26350  16.553  11.508  16.662  0.3931  0.0893 -0.2984
 8147W        W26351   5.821   1.980  14.513 -0.0554  0.3331  0.1105
 8148W        W26352  15.023   1.924  17.186 -0.0849  0.1881 -0.0001
 8149W        W26353  13.345   0.277   2.598 -0.0179  0.0209  0.1166
 8150W        W26354   5.190   9.381  17.059 -0.0091 -0.3293  0.1219
 8151W        W26355   4.804  11.911  13.539  0.0360 -0.0571  0.1568
 8152W        W26356   5.779  12.790   0.387  0.1300 -0.0078 -0.2094
 8153W        W26357  10.786   3.316  17.425  0.1780  0.0015  0.1365
 8154W        W26358  13.374   2.268  13.711  0.1929  0.2468 -0.2397
 8155W        W26359   8.092  12.122  15.739  0.0394  0.0868  0.0391
 8156W        W26360   7.413  11.311  12.518 -0.1120 -0.0027 -0.2154
 8157W        W26361  15.162   8.799  12.569  0.1513 -0.0279 -0.0307
 8158W        W26362  11.418  14.983   5.775 -0.0579 -0.2417 -0.2788
 8159W        W26363   8.481   7.759   5.121 -0.1479  0.0843 -0.0099
 8160W        W26364  11.221   7.685   3.860 -0.0595 -0.1542 -0.0277
 8161W        W26365   0.190  10.463   0.569  0.0290 -0.1814  0.3530
 8162W        W26366  16.921   0.572   2.983  0.0216 -0.0141  0.2795
 8163W        W26367   4.610  16.649  12.589 -0.0825 -0.0460  0.0387
 8164W        W26368  16.023   2.121   3.213 -0.1439  0.0788  0.1669
 8165W        W26369  10.407  11.670   5.067  0.1167  0.0100  0.0728
 8166W        W26370  13.085   1.551  16.960 -0.2062 -0.2882  0.1937
 8167W        W26371  14.423  16.860   3.626  0.0952 -0.1057  0.1148
 8168W        W26372   2.035   7.480  16.401 -0.1284  0.1261 -0.3381
 8169W        W26373   9.859   7.948   3.237  0.2467  0.2118 -0.2262
 8170W        W26374  11.084   9.930   2.372  0.1676  0.0438  0.2425
 8171W        W26375  13.223   5.612   2.653 -0.0710  0.2350 -0.0777
 8172W        W26376  10.588  12.612   4.408  0.0926  0.0536  0.0710
 8173W        W26377   4.989   0.169  14.267  0.0404  0.0183 -0.0190
 8174W        W26378   1.204  13.238  12.338 -0.1449 -0.1006  0.1860
 8175W        W26379   5.352   0.365   1.145  0.0886 -0.0521 -0.1305
 8176W        W26380   7.483   7.119  17.074 -0.4345 -0.0743 -0.2262
 8177W        W26381   1.830   7.360   3.690 -0.3089  0.0561 -0.3060
 8178W        W26382  14.989   2.602   0.861  0.1643 -0.0914 -0.3126
 8179W        W26383  10.028  10.167   2.018  0.2791 -0.0774 -0.0445
 8180W        W26384  12.173   5.041   4.795  0.2148  0.0677  0.2302
 8181W        W26385   8.451   3.837  13.335  0.2360 -0.1820 -0.0538
 8182W        W26386   6.811   4.486  16.640  0.3276 -0.0011 -0.0239
 8183W        W26387  14.359   4.455  17.189 -0.0200  0.1773  0.5121
 8184W        W26388   6.471  15.486  14.280  0.1121 -0.1061 -0.0699
 8185W        W26389  12.320   5.700   3.932  0.2469 -0.1640  0.2378
 8186W        W26390   0.984   6.807   1.616  0.0993  0.2298 -0.1708
 8187W        W26391   8.569   7.619  13.618 -0.0774  0.4598 -0.0191
 8188W        W26392   9.976   7.478   3.395 -0.0057  0.0057  0.0301
 8189W        W26393   5.758   8.946  12.046  0.1661 -0.1135 -0.0115
 8190W        W26394   3.066  10.798   3.817  0.4269 -0.2023  0.0940
 8191W        W26395   7.768  11.598   1.143 -0.0026 -0.0526  0.0181
 8192W        W26396  12.689  12.598   0.128 -0.0620  0.0830  0.1421
 8193W        W26397   6.487   1.439  14.250  0.2052  0.0428 -0.1234
 8194W        W26398   2.862   6.972  12.554  0.1073 -0.0587 -0.0393
 8195W        W26399  11.686  13.678   2.739  0.0892  0.3325  0.0048
 8196W        W26400  13.265  16.003   4.229  0.0059 -0.0038  0.4205
 8197W        W26401  14.399  10.234   5.325  0.0947  0.0817  0.1661
 8198W        W26402  16.972   7.439   5.100 -0.0905  0.1990 -0.3628
 8199W        W26403  13.462   8.981  13.961 -0.3529 -0.2835  0.0027
 8200W        W26404  14.380   9.016   5.901 -0.2608 -0.0257 -0.1198
 8201W        W26405   1.637   7.435  16.112 -0.1125  0.0620  0.1235
 8202W        W26406   8.222   2.758   1.287 -0.0288  0.1412 -0.1114
 8203W        W26407   1.037  11.360   4.318  0.5349 -0.0072  0.0286
 8204W        W26408   4.066   5.026   2.130  0.1934 -0.5357 -0.1900
 8205W        W26409   1.559  15.004  13.318  0.2786 -0.0906 -0.0635
 8206W        W26410   8.315   4.048  15.612  0.2647  0.2554 -0.0261
 8207W        W26411   7.279   0.281   1.753  0.0802 -0.2640 -0.0744
 8208W        W26412  16.828  14.601  16.237  0.2537  0.1510 -0.3570
 8209W        W26413   4.089   3.301  11.839  0.2326  0.3379 -0.1117
 8210W        W26414  15.172   4.343  13.529  0.4578  0.2841  0.2498
 8211W        W26415  14.405  10.882  15.761 -0.0942 -0.1644  0.0231
 8212W        W26416   4.005   1.449   4.368 -0.1277  0.1678  0.0418
 8213W        W26417   0.638   7.187   1.508  0.0613  0.0390 -0.2198
 8214W        W26418   9.807   6.736   2.791 -0.1636  0.3223 -0.0948
 8215W        W26419   8.212  10.040  13.657  0.2844 -0.0204  0.4186
 8216W        W26420   1.696  10.546   3.863 -0.1598  0.0846  0.1759
 8217W        W26421   6.020   3.911  15.043  0.0239  0.3247 -0.0688
 8218W        W26422  16.603   1.006   3.016 -0.1322  0.2600 -0.0928
 8219W        W26423  10.568   2.407   4.632  0.1141 -0.0269  0.2854
 8220W        W26424  14.717   7.360   2.917  0.0026 -0.0515 -0.1301
 8221W        W26425  11.934   9.560  14.380  0.0771 -0.2958 -0.1818
 8222W        W26426  11.715  14.175  14.607 -0.2984  0.2558 -0.0025
 8223W        W26427   4.304   8.106  14.541 -0.0649  0.0621 -0.1927
 8224W        W26428   0.475   4.767   1.917  0.3307  0.3442  0.3698
 8225W        W26429  14.776  16.268  14.603  0.1200  0.1349 -0.0788
 8226W        W26430  11.634   5.643  12.061 -0.1981 -0.2516 -0.1711
 8227W        W26431   8.878   1.386   0.852 -0.1519 -0.0469  0.1802
 8228W        W26432  14.753  13.845  15.669  0.0994  0.1834 -0.1051
 8229W        W26433  12.788   4.191   1.708 -0.2373 -0.0679  0.0492
 8230W        W26434  13.813  11.473  12.738  0.1150  0.2463 -0.1812
 8231W        W26435  15.033  13.423   4.093 -0.1147 -0.2302 -0.0924
 8232W        W26436   0.320   9.154  16.027  0.0010  0.1827 -0.1743
 8233W        W26437  10.503   3.632  13.067 -0.1647 -0.2915  0.0885
 8234W        W26438   8.451  11.218  14.757  0.2861 -0.0008  0.3193
 8235W        W26439  14.366  16.169   0.596 -0.1186 -0.3957  0.0795
 8236W        W26440   4.294   2.474   3.116 -0.0602 -0.0478  0.0464
 8237W        W26441  10.910  12.319  15.066 -0.0406  0.0947 -0.0500
 8238W        W26442   3.899   7.198   5.185  0.0181  0.2335  0.0510
 8239W        W26443  15.374   9.389  17.075  0.4447 -0.0264  0.2517
 8240W        W26444   5.809  11.728   6.637 -0.1058 -0.1994  0.3552
 8241W        W26445  11.598   1.304   3.390 -0.1907  0.1750 -0.3405
 8242W        W26446  14.310   7.999   2.554 -0.0467 -0.0267  0.3360
 8243W        W26447   7.670   0.837  14.790  0.0105  0.2065 -0.1731
 8244W        W26448   0.453   5.456   4.189  0.3005 -0.0746 -0.2006
 8245W        W26449   2.201   9.066   4.536 -0.2319  0.2688  0.0752
 8246W        W26450  10.199  13.414   1.027  0.1233  0.1160 -0.0276
 8247W        W26451  15.251   7.202  16.326 -0.2963 -0.0080 -0.0449
 8248W        W26452   1.061   2.135   3.558  0.0417 -0.4093 -0.2125
 8249W        W26453   3.691  16.839   4.058  0.1560  0.0255 -0.0917
 8250W        W26454  14.995   3.740  12.709  0.1233 -0.1019 -0.1853
 8251W        W26455   6.029   0.898   4.089 -0.0337  0.1817  0.0536
 8252W        W26456  12.300  17.175   4.713 -0.1336  0.1957  0.0208
 8253W        W26457  17.186   8.346  13.635  0.1231  0.1283  0.0534
 8254W        W26458  12.339   5.973  15.210 -0.2353 -0.0635 -0.2306
 8255W        W26459  12.753  13.247  14.160  0.0277 -0.0349  0.0466
 8256W        W26460   5.803   8.586   0.717 -0.1230  0.2231 -0.0865
 8257W        W26461  17.162   5.356  13.396 -0.1058 -0.3728 -0.1019
 8258W        W26462  12.982   1.595   3.601 -0.2027 -0.0625 -0.0091
 8259W        W26463  12.381   3.710  16.592 -0.3037  0.1419 -0.0808
 8260W        W26464   5.730   3.055  12.671  0.1602  0.2961 -0.2050
 8261W        W26465  10.687  10.599  16.615 -0.0075  0.1441  0.0358
 8262W        W26466   8.537  15.764  13.166 -0.2100  0.1757  0.2378
 8263W        W26467   5.283  15.037   1.939  0.1056 -0.0092 -0.0250
 8264W        W26468   8.352   3.275   3.776  0.2306  0.2279 -0.1949
 8265W        W26469  12.161   0.413   4.345 -0.1449  0.1277 -0.0350
 8266W        W26470   7.824   5.442  12.978 -0.1329  0.3002 -0.0506
 8267W        W26471   5.895   0.934   4.574 -0.0949 -0.0219 -0.2934
 8268W        W26472   6.636   0.608  17.060 -0.2561 -0.0347  0.0557
 8269W        W26473   5.771  14.529   3.991 -0.1318 -0.4809  0.1267
 8270W        W26474   0.222   8.776   4.882 -0.0048 -0.1994  0.0298
 8271W        W26475   0.883   3.851  15.999 -0.0524  0.1237  0.1409
 8272W        W26476   7.033   7.487  12.509  0.0619 -0.0363  0.3136
 8273W        W26477   0.673  12.274  16.886 -0.0439 -0.0122  0.1533
 8274W        W26478  14.026   0.206   3.385 -0.0452  0.3426 -0.2106
 8275W        W26479   2.592   2.411   3.673 -0.0646  0.0715  0.3630
 8276W        W26480   0.182  12.215  13.406  0.1357  0.0072  0.0933
 8277W        W26481  12.713  12.245  12.792 -0.0227 -0.0149 -0.1959
 8278W        W26482   2.013   3.366   1.485  0.4801 -0.1526 -0.1231
 8279W        W26483   1.438  16.284  15.759 -0.1057 -0.0299 -0.1415
 8280W        W26484   7.090   6.921   0.418 -0.0791 -0.2114 -0.0414
 8281W        W26485   4.314   9.314  15.574  0.0230 -0.0515 -0.0472
 8282W        W26486  13.134  14.405   0.273 -0.0366 -0.0357 -0.2994
 8283W        W26487   1.755  13.681   4.118  0.1204 -0.1405  0.0707
 8284W        W26488   4.710  12.267   4.903  0.2282  0.1052 -0.0417
 8285W        W26489   0.076  10.219   2.613  0.2246  0.0585 -0.2368
 8286W        W26490   0.096   7.996   1.793 -0.2222  0.0639  0.2547
 8287W        W26491   3.580   9.878  14.216 -0.0648  0.0327  0.3314
 8288W        W26492   2.444  14.316   1.660 -0.2611 -0.1021  0.0269
 8289W        W26493  15.333  10.416   2.078 -0.1585  0.0533 -0.0690
 8290W        W26494   4.679   1.391  13.707  0.0066  0.1808  0.3573
 8291W        W26495   2.729   7.449   2.662  0.1157 -0.0181 -0.1406
 8292W        W26496   2.649   1.024   0.971  0.0121 -0.1209  0.2164
 8293W        W26497  17.173   7.514  14.000  0.2169 -0.0653  0.1027
 8294W        W26498   3.806   7.435   2.428 -0.1172  0.0943 -0.1658
 8295W        W26499   3.155   2.032  15.438  0.1776  0.1633  0.2303
 8296W        W26500   8.768  16.892   5.303 -0.2170 -0.0537  0.0435
 8297W        W26501  17.237   1.803   3.270  0.2363  0.0311  0.0539
 8298W        W26502  16.923   2.848  13.191 -0.2781  0.0810 -0.0123
 8299W        W26503  13.678   0.065   2.232 -0.0628 -0.3524  0.0902
 8300W        W26504   4.165   1.002   4.901 -0.0989  0.1645 -0.0395
 8301W        W26505   5.106  10.922  12.723  0.1155 -0.1697  0.1921
 8302W        W26506   9.627   3.770   4.308 -0.0286 -0.0669 -0.0694
 8303W        W26507   7.130  12.165  12.076 -0.1945 -0.2081 -0.4056
 8304W        W26508   0.361  15.650  13.137  0.0156 -0.0274 -0.0270
 8305W        W26509   3.047   4.067  14.318 -0.2544 -0.1338 -0.0715
 8306W        W26510  13.792   8.099  14.512 -0.0753 -0.1583 -0.1316
 8307W        W26511   0.348  15.757   3.384  0.0485  0.0358  0.3947
 8308W        W26512   6.610  15.293  16.150  0.0249 -0.0705 -0.0806
 8309W        W26513  14.115  10.705  13.437 -0.0827  0.2999 -0.2685
 8310W        W26514  15.473   0.609   0.132 -0.1321  0.2194  0.1087
 8311W        W26515   1.109   0.776   0.847 -0.4541 -0.0030  0.0613
 8312W        W26516  11.989   1.641   2.124  0.0803  0.0887 -0.3338
 8313W        W26517   5.591   4.641  16.302  0.1095 -0.1216  0.0893
 8314W        W26518   5.517   3.098  17.317  0.1130  0.2026  0.0724
 8315W        W26519   5.874   6.459  15.108  0.0229 -0.0875  0.2428
 8316W        W26520   9.895  15.294  17.176  0.3732  0.1834 -0.1574
 8317W        W26521  14.144   2.244   4.406 -0.0432  0.3899 -0.2424
 8318W        W26522  13.785   5.581   3.779  0.0868 -0.0766  0.1861
 8319W        W26523  14.842  15.033   5.060 -0.1101 -0.0816 -0.1562
 8320W        W26524  11.812   3.717   2.230 -0.4186 -0.3098  0.1391
 8321W        W26525  14.577   7.843   3.049  0.1900 -0.2629  0.0437
 8322W        W26526  17.046  15.213  16.942  0.1996 -0.0883 -0.0688
 8323W        W26527   3.163  15.968   4.505  0.2040 -0.0148  0.0935
 8324W        W26528   8.909   7.933   4.832  0.1466 -0.1333 -0.2483
 8325W        W26529  11.664  13.951   1.060 -0.1233  0.0720 -0.0202
 8326W        W26530  12.515   7.604   4.154 -0.0522  0.1127  0.2064
 8327W        W26531  17.134   8.322  12.320  0.3300  0.1583 -0.1460
 8328W        W26532   7.654   2.159   2.936  0.1405 -0.0204  0.6240
 8329W        W26533   7.465   5.791  13.947 -0.2205  0.1141  0.1620
 8330W        W26534  10.396   6.977   2.993 -0.2487  0.1373 -0.0458
 8331W        W26535  16.400  12.653  15.531 -0.1515  0.2562 -0.1883
 8332W        W26536   8.349   4.400  15.056  0.0932  0.1073  0.2245
 8333W        W26537   4.006  13.318  17.273 -0.3504  0.2260  0.3522
 8334W        W26538  14.996  11.297   4.507 -0.0737 -0.2590 -0.0841
 8335W        W26539  11.845   9.592   3.557  0.1361  0.0315  0.2761
 8336W        W26540   1.425   0.580  13.367 -0.0717 -0.4258 -0.1566
 8337W        W26541   3.310   3.322   0.631  0.2099 -0.0722  0.0718
 8338W        W26542  10.555   0.687   1.727  0.0824 -0.0551  0.1777
 8339W        W26543  13.282  16.953  13.693 -0.3032 -0.0862 -0.2518
 8340W        W26544   1.772  14.593   4.559 -0.1803 -0.3042  0.1171
 8341W        W26545   1.686  14.395   0.809  0.1976 -0.0399  0.0730
 8342W        W26546  12.297   8.342   2.769  0.2375  0.0792  0.2950
 8343W        W26547   5.405   1.615   1.310  0.2166 -0.0302 -0.0959
 8344W        W26548   2.164   7.409  14.615 -0.0293  0.0828 -0.0407
 8345W        W26549   8.591   8.020  15.317  0.2672  0.2287 -0.1547
 8346W        W26550  14.974   6.791  13.389  0.0727 -0.3692 -0.0610
 8347W        W26551   0.009  14.828   0.842  0.1016 -0.2618  0.0091
 8348W        W26552   5.877   8.328  14.289  0.0558 -0.0007 -0.0106
 8349W        W26553   0.375   9.840  12.687 -0.3152 -0.0513  0.1909
 8350W        W26554   9.828   7.034  12.695 -0.3761  0.1531  0.0622
 8351W        W26555  10.041   4.151  13.494  0.0901  0.0353 -0.3366
 8352W        W26556   8.598  12.732  16.775 -0.1294  0.0923  0.1547
 8353W        W26557  14.808   0.733  13.854 -0.3841  0.1597 -0.2866
 8354W        W26558   5.157  16.348   2.088  0.2019 -0.0688 -0.0492
 8355W        W26559   7.903   5.779   1.384 -0.1582  0.2015  0.0306
 8356W        W26560  15.019   8.533  15.017 -0.1081 -0.4455  0.1521
 8357W        W26561  11.139  11.099   3.649 -0.2041  0.0049  0.0508
 8358W        W26562   4.089  14.426  15.299  0.0084  0.0576  0.0179
 8359W        W26563   2.135   9.565   4.295 -0.2132  0.0985  0.0782
 8360W        W26564   5.403  13.633  13.459  0.0963 -0.2232  0.1174
 8361W        W26565   2.338  10.824  12.992 -0.2131  0.0681  0.2070
 8362W        W26566  17.163   8.045  16.509  0.0384  0.2388 -0.1943
 8363W        W26567   7.799  11.441   3.124  0.1222  0.0008 -0.1514
 8364W        W26568  13.071  13.024  15.962 -0.2174 -0.0229 -0.1610
 8365W        W26569   3.160   1.020   0.903 -0.0014  0.1777 -0.0749
 8366W        W26570  10.043   0.338  15.020  0.1472  0.1436  0.0306
 8367W        W26571  10.803   0.199  16.637  0.1042 -0.2759  0.0355
 8368W        W26572  10.266   0.977  13.492  0.2021  0.2419  0.0522
 8369W        W26573  16.587   2.713  14.035 -0.0401 -0.1053  0.0818
 8370W        W26574   8.878   5.722   1.638 -0.0115  0.3741 -0.2447
 8371W        W26575   2.225  10.508   3.811  0.1998 -0.1147  0.0750
 8372W        W26576  17.142   8.519  14.095  0.2205  0.0203 -0.2641
 8373W        W26577  13.012  16.179   3.854  0.2087 -0.0419 -0.2175
 8374W        W26578   0.774   8.456   2.484 -0.0720 -0.0500  0.0985
 8375W        W26579  16.865  11.282   5.779  0.1849 -0.1374 -0.1342
 8376W        W26580   5.285  13.778   2.246  0.0102 -0.0114 -0.2164
 8377W        W26581   0.062   7.005   0.654  0.0045  0.1127  0.1049
 8378W        W26582   7.624   1.630  12.882 -0.0941  0.1168  0.0210
 8379W        W26583  10.524   1.572  13.571  0.2215  0.0661 -0.1506
 8380W        W26584  13.540  13.956  13.982  0.2369 -0.0075  0.1057
 8381W        W26585  16.690   6.721   1.146  0.0990 -0.0194 -0.1394
 8382W        W26586  13.715   7.474   0.415  0.0998 -0.0485 -0.1790
 8383W        W26587  15.564   0.701   4.144  0.2062 -0.2540  0.0590
 8384W        W26588   0.022   3.500  17.053 -0.1849  0.0423  0.0910
 8385W        W26589   7.407   9.398  14.139  0.0009 -0.0062 -0.0014
 8386W        W26590   8.202   8.354  17.324  0.0263  0.2993  0.2126
 8387W        W26591  13.417   7.037  14.997  0.0336  0.1757 -0.0792
 8388W        W26592   0.522   2.619   2.747  0.0166 -0.2684 -0.1898
 8389W        W26593   8.941  17.061   4.344 -0.0067 -0.1239 -0.1090
 8390W        W26594  14.261  11.588   0.265 -0.0548 -0.2597 -0.1703
 8391W        W26595  10.797  16.971  17.010 -0.0210  0.0323  0.1609
 8392W        W26596   9.307   2.847  13.546  0.4105 -0.2080  0.2084
 8393W        W26597   7.223  16.336  14.261 -0.5137  0.0717 -0.1104
 8394W        W26598  16.108   4.913  15.068  0.0158  0.0984  0.1813
 8395W        W26599   9.122   6.623   3.542 -0.3558 -0.0595  0.0726
 8396W        W26600  10.694  14.972  14.920 -0.3508  0.0448 -0.1236
 8397W        W26601   9.392   8.252  16.086  0.2187 -0.3830 -0.0198
 8398W        W26602  11.890  14.928  14.452  0.2506 -0.1003  0.2344
 8399W        W26603   2.047   2.118  13.965 -0.2784  0.0200  0.0552
 8400W        W26604   9.061   1.811   3.030 -0.1725  0.0218 -0.0125
 8401W        W26605   9.629  13.360   3.161 -0.0421  0.0581  0.1740
 8402W        W26606   5.510  17.302  16.104 -0.0200  0.1125 -0.0950
 8403W        W26607   4.321   3.316   0.662  0.2119 -0.2680 -0.0745
 8404W        W26608   2.806  12.720   5.120 -0.2270 -0.2869  0.1219
 8405W        W26609   4.182   5.287  16.141 -0.1495 -0.1573 -0.1577
 8406W        W26610   1.512   6.340  13.357 -0.1912 -0.0358  0.0251
 8407W        W26611   9.867  10.310   2.601 -0.1736 -0.1158  0.0222
 8408W        W26612   9.100   9.662   5.225  0.1244 -0.2394  0.3945
 8409W        W26613   2.692   8.885  14.318  0.0650 -0.0298 -0.4827
 8410W        W26614  15.294   5.872   1.718  0.1461  0.1271  0.1207
 8411W        W26615  11.094   4.103  13.743  0.0798 -0.1586 -0.0175
 8412W        W26616   2.478   0.496  16.792  0.0829  0.0062 -0.1982
 8413W        W26617   9.400   3.810   3.130 -0.0287 -0.0682  0.0568
 8414W        W26618  14.020   9.349  12.540  0.2926  0.3574 -0.3569
 8415W        W26619   6.438  11.793  12.584  0.1071 -0.0633 -0.0228
 8416W        W26620  16.064   7.278   1.150 -0.0973  0.1927 -0.1420
 8417W        W26621   6.370   5.296   1.721 -0.1752 -0.0481  0.2336
 8418W        W26622  15.753  12.114   2.597 -0.0556  0.0668  0.0761
 8419W        W26623   7.356  13.723  13.304  0.0489 -0.2842  0.1602
 8420W        W26624   8.027   1.678  14.303  0.2245 -0.0403 -0.0774
 8421W        W26625   0.392  11.902  14.712 -0.0150  0.1025  0.0680
 8422W        W26626   2.186  10.994   0.580 -0.0211 -0.1512 -0.0137
 8423W        W26627  14.742  13.387  15.890  0.0891  0.0051  0.2570
 8424W        W26628   5.056  16.480   4.842  0.4273 -0.0561 -0.0193
 8425W        W26629  12.667   3.471   0.332  0.0379  0.1857  0.0960
 8426W        W26630   1.804   6.767  12.439  0.0045 -0.0192  0.0802
 8427W        W26631   9.180   2.107   2.071  0.0879 -0.1225 -0.0164
 8428W        W26632   1.384  11.600   5.964 -0.0575 -0.0201 -0.2257
 8429W        W26633  16.853   3.162   5.223 -0.2142 -0.0540 -0.0281
 8430W        W26634   5.454   9.899  13.513  0.0311  0.0356  0.1184
 8431W        W26635  12.873   0.144   2.570 -0.0088 -0.1667 -0.2858
 8432W        W26636   6.408  12.344   3.112 -0.1872 -0.0209  0.3438
 8433W        W26637   8.006  10.668   4.285 -0.0985 -0.4191  0.3037
 8434W        W26638   1.451   6.056   3.795 -0.0368  0.2091  0.0703
 8435W        W26639   9.174   8.077   6.362 -0.4968 -0.0056 -0.0423
 8436W        W26640   3.108   0.623  13.282  0.1136 -0.3602  0.3003
 8437W        W26641   8.445  10.202  17.325  0.2523  0.0200 -0.0245
 8438W        W26642   2.907   5.485  17.055  0.2313 -0.1055 -0.0543
 8439W        W26643   3.541   1.399  17.258 -0.2145 -0.0118 -0.0624
 8440W        W26644  13.984   0.747   1.819 -0.0339 -0.1108  0.1154
 8441W        W26645   8.370   3.199   6.019  0.4189  0.1191 -0.2490
 8442W        W26646   9.460   6.414  16.258 -0.1096  0.0842 -0.0266
 8443W        W26647   6.335  11.314  12.412  0.0110  0.0508 -0.1267
 8444W        W26648  16.905   7.118  13.258  0.0249 -0.0584  0.1066
 8445W        W26649  17.121  10.726  16.421 -0.2220 -0.0470 -0.0201
 8446W        W26650  15.931   2.916   2.057 -0.0071  0.0309 -0.0196
 8447W        W26651   0.756   3.437  11.475  0.0579  0.0142 -0.2744
 8448W        W26652   3.810   1.767   4.752  0.0886  0.0573  0.2891
 8449W        W26653   7.391  12.058  12.455  0.0771  0.1223  0.1034
 8450W        W26654  16.767   4.914   2.161  0.0440  0.1119 -0.2133
 8451W        W26655   8.539  15.757   5.237 -0.1895  0.0479  0.2034
 8452W        W26656   8.390   3.511   4.611  0.4539  0.3273 -0.0412
 8453W        W26657   0.420   9.585  15.591 -0.0790  0.1670 -0.0843
 8454W        W26658   5.174  12.538   3.765 -0.1698 -0.2558  0.1956
 8455W        W26659  16.464   9.577   5.769 -0.0326  0.0397 -0.1502
 8456W        W26660  13.154  17.094  17.452 -0.0612  0.2178  0.2382
 8457W        W26661  16.575  16.195   4.335  0.1258  0.0012  0.2801
 8458W        W26662  11.479  13.879   4.967  0.1616 -0.2213 -0.1753
 8459W        W26663  15.009   0.492   0.364 -0.1171  0.0095  0.0048
 8460W        W26664  11.213   2.240  14.908  0.0021  0.4025 -0.0714
 8461W        W26665  13.297   3.774  13.573  0.2110  0.2239  0.2002
 8462W        W26666   5.568   5.177   2.847  0.0001  0.1260 -0.2825
 8463W        W26667  11.540   4.505  15.067 -0.0247  0.3392  0.0400
 8464W        W26668   5.544  15.735  13.099 -0.0474  0.0359  0.3921
 8465W        W26669   2.699  11.979   5.505  0.1724  0.0425 -0.3094
 8466W        W26670   6.434   9.969   2.236 -0.0372  0.1019 -0.2441
 8467W        W26671   7.432   6.239   3.221 -0.2882 -0.0540  0.0852
 8468W        W26672   0.098  11.942   3.298  0.0549 -0.2941  0.0020
 8469W        W26673   4.690   9.971  12.860 -0.1133 -0.0273  0.1592
 8470W        W26674  14.720   4.722   0.433 -0.2713  0.3674  0.0991
 8471W        W26675   9.449   2.711   3.216 -0.1682  0.1691 -0.0572
 8472W        W26676   6.841   4.118  17.120 -0.0044  0.1706 -0.1489
 8473W        W26677   1.772  13.497   0.124 -0.0059 -0.1651  0.0328
 8474W        W26678   8.012   8.877   1.456  0.0219  0.0448 -0.1100
 8475W        W26679  15.542   1.832   1.343 -0.2313  0.3614 -0.2677
 8476W        W26680  13.059  12.288  17.318 -0.0916 -0.2285 -0.1637
 8477W        W26681  13.578   6.475   1.519  0.1568  0.0853 -0.1105
 8478W        W26682   1.994  12.274  14.505  0.0702 -0.2463  0.4010
 8479W        W26683   8.303  17.035   0.189  0.1395  0.0086 -0.2435
 8480W        W26684  14.014  12.299  15.804  0.1356 -0.2022  0.1963
 8481W        W26685  11.356   4.373   3.942  0.4316  0.2760  0.1831
 8482W        W26686   2.957  13.599   1.316 -0.1506 -0.3081 -0.1793
 8483W        W26687   9.155  16.894   4.809 -0.2256  0.0368 -0.0976
 8484W        W26688   0.680   9.233  16.413  0.1343  0.2305  0.0124
 8485W        W26689   2.464  11.611   3.587 -0.1257 -0.1145  0.2845
 8486W        W26690   9.669  12.596  12.553 -0.2948 -0.2795 -0.0625
 8487W        W26691   3.760   2.524   0.167  0.1402  0.0697 -0.0011
 8488W        W26692   2.083  12.215   3.001 -0.1862 -0.0086  0.1244
 8489W        W26693  13.218   6.836  14.535  0.1744 -0.0369  0.3618
 8490W        W26694   8.246   6.194   2.146  0.1026  0.1673 -0.0373
 8491W        W26695   6.010   7.081   1.336 -0.0828 -0.3632 -0.1265
 8492W        W26696  14.140   6.379   4.771 -0.3140  0.0184 -0.0571
 8493W        W26697  12.148  11.348  16.933 -0.0612  0.2645  0.0705
 8494W        W26698   4.230  15.667   1.995 -0.1070  0.3412 -0.2073
 8495W        W26699  11.731   7.322  15.236  0.2422  0.0699  0.3662
 8496W        W26700   0.311   6.764   0.199 -0.1727 -0.1420  0.1534
 8497W        W26701   4.502  10.510  17.451  0.2791 -0.1073  0.2053
 8498W        W26702   6.334   3.508  14.920 -0.1932 -0.0116 -0.1953
 8499W        W26703   2.431   3.375  12.559 -0.0673  0.1420  0.1562
 8500W        W26704   3.119   0.960   4.018 -0.0845  0.0111  0.1827
 8501W        W26705   0.822   3.687   2.763 -0.1483  0.1516 -0.0546
 8502W        W26706   5.108  13.331  13.162  0.2251  0.0008  0.2314
 8503W        W26707   2.703   5.724  13.160  0.0073  0.1622 -0.2718
 8504W        W26708  12.441   9.925  16.107 -0.0770  0.0301  0.2119
 8505W        W26709  12.030   9.162   3.966 -0.0412 -0.1528  0.0364
 8506W        W26710   9.909  13.249  16.534  0.0645  0.0861 -0.0669
 8507W        W26711  15.098   5.656  15.955  0.1758 -0.2781  0.1873
 8508W        W26712   2.736   4.803  16.428  0.1575  0.0802  0.2712
 8509W        W26713  13.830   9.541   3.553  0.0063 -0.2516  0.1962
 8510W        W26714  13.444   2.117  14.956 -0.0579 -0.1123 -0.0044
 8511W        W26715  13.675   8.139  14.983 -0.3336 -0.2774  0.4389
 8512W        W26716   1.966   3.148  12.550  0.2365  0.2099  0.2803
 8513W        W26717   1.019   2.302   1.889 -0.1481  0.1062  0.0921
 8514W        W26718   7.021   9.786   3.449 -0.4117 -0.1026  0.1379
 8515W        W26719  12.429   0.860   4.351 -0.1645 -0.2440 -0.0162
 8516W        W26720  16.491   7.697  14.885 -0.1423 -0.0964  0.2506
 8517W        W26721  14.482   2.906  11.946  0.0564 -0.3372  0.0693
 8518W        W26722   6.538   3.598  15.350 -0.0021  0.2443  0.2461
 8519W        W26723   5.812   8.461  15.036 -0.1302 -0.1062 -0.0496
 8520W        W26724   7.112  11.828   5.281 -0.1611  0.1366 -0.1502
 8521W        W26725  15.370   5.362   0.301 -0.0030  0.1378 -0.4263
 8522W        W26726  10.787  11.163   3.264  0.0922  0.3261 -0.0964
 8523W        W26727   2.820  11.262   0.655 -0.1268 -0.2170 -0.1094
 8524W        W26728   7.557   0.706  13.954  0.0594 -0.0410  0.1087
 8525W        W26729  16.414  10.449   6.254 -0.0759  0.0125 -0.1320
 8526W        W26730  16.127  11.791  13.399  0.1104 -0.2717 -0.0517
 8527W        W26731  10.696   3.710  14.554  0.1191  0.1382  0.0252
 8528W        W26732   3.429  12.690   4.156  0.0808  0.0951 -0.1892
 8529W        W26733  14.588  14.079   4.667 -0.1261  0.0443  0.1703
 8530W        W26734   3.665   5.105  16.136  0.3547  0.0018 -0.1775
 8531W        W26735  11.184  16.313   2.533 -0.0931  0.0740 -0.0243
 8532W        W26736  13.077  16.313   0.579  0.0577 -0.2787 -0.0290
 8533W        W26737   1.742  14.475   3.052  0.1720 -0.2064  0.0682
 8534W        W26738  16.919   1.385  14.942  0.0137 -0.0328 -0.0682
 8535W        W26739   8.341  13.975  15.531 -0.0926  0.1744  0.0974
 8536W        W26740   4.420  10.455   0.491  0.1241 -0.2025  0.1059
 8537W        W26741   5.933   5.438   0.898 -0.0821 -0.1336  0.1963
 8538W        W26742   9.515  15.644   4.318  0.2000  0.1622  0.1680
 8539W        W26743   4.480   0.203  17.148 -0.0258 -0.1850 -0.1964
 8540W        W26744   0.201  13.419  14.438  0.1393  0.2243  0.1286
 8541W        W26745  10.523   5.613   0.660 -0.0872 -0.4364  0.2065
 8542W        W26746  15.218   7.485  15.854  0.0859 -0.3613 -0.2013
 8543W        W26747  13.974   5.180   1.336 -0.0143  0.0044  0.1506
 8544W        W26748   4.393  12.065  14.336  0.1615  0.0499 -0.1273
 8545W        W26749   5.492  12.773  15.287 -0.0473 -0.0990 -0.0025
 8546W        W26750  10.936   7.493   2.393 -0.1707  0.0027 -0.0858
 8547W        W26751   6.331   6.584  15.237  0.1565 -0.1400  0.1531
 8548W        W26752  13.166  13.822   2.959 -0.1060 -0.0616 -0.1071
 8549W        W26753  13.807   6.893   2.632 -0.0008 -0.0937 -0.1153
 8550W        W26754   4.323   3.200   2.313 -0.1401  0.3859  0.2396
 8551W        W26755  14.167   9.680   0.431  0.1808 -0.1311  0.0616
 8552W        W26756   9.171   7.592  12.897  0.0931 -0.0358  0.1432
 8553W        W26757  14.895  16.339  16.932  0.0162  0.0514 -0.2884
 8554W        W26758   3.208   1.418  14.257  0.4423  0.3206  0.0550
 8555W        W26759  13.486   8.907   2.365  0.0856  0.0780  0.2020
 8556W        W26760   9.762   7.462  12.458  0.1170 -0.0817 -0.4721
 8557W        W26761   7.396   3.834  13.912  0.1164  0.0617  0.0040
 8558W        W26762  11.275   3.120   4.447 -0.0836 -0.0231  0.1470
 8559W        W26763  15.430   9.128   2.480  0.0153 -0.2285 -0.1716
 8560W        W26764   8.982   5.232   4.950  0.1559 -0.1832  0.0282
 8561W        W26765   2.643  15.908   5.099  0.1119 -0.0831 -0.3175
 8562W        W26766   7.445   8.358  12.467 -0.0811  0.0397 -0.0043
 8563W        W26767   6.986   9.699  14.787 -0.0036  0.1952  0.0503
 8564W        W26768  15.294  13.376   3.206  0.6616  0.0919 -0.0928
 8565W        W26769  11.070  10.365   1.042 -0.1223 -0.0764 -0.0033
 8566W        W26770  12.710  16.079  16.679  0.3699 -0.0938  0.0189
 8567W        W26771  16.336   7.747   1.098  0.0955 -0.0614 -0.0721
 8568W        W26772  13.865   6.197   3.927 -0.3578 -0.2542  0.1585
 8569W        W26773   4.799  14.802   1.902  0.1002 -0.2053 -0.0437
 8570W        W26774  16.178   8.060  12.334  0.0744  0.0113 -0.0642
 8571W        W26775   6.873  17.187   0.757 -0.0987 -0.4137 -0.1501
 8572W        W26776  16.783   8.838  16.256 -0.3310  0.0462  0.0705
 8573W        W26777  15.670   6.367  14.122  0.1097  0.0842  0.0208
 8574W        W26778  12.273  14.075   3.218 -0.3693 -0.3527  0.0628
 8575W        W26779  11.616   6.226   0.276  0.1596  0.0907 -0.1843
 8576W        W26780   0.921   5.660   1.345 -0.1722  0.0980 -0.4392
 8577W        W26781   5.657   7.968  12.728 -0.2411 -0.1187  0.0339
 8578W        W26782  12.461   9.199   3.163 -0.2008 -0.1526 -0.1369
 8579W        W26783  11.583   3.203  14.847 -0.0312  0.0604 -0.0749
 8580W        W26784   9.965  12.052  12.850 -0.0225 -0.1655  0.4061
 8581W        W26785  16.093  14.111  15.307 -0.1560 -0.0905 -0.2529
 8582W        W26786   8.194  13.047   5.036  0.1308  0.1676 -0.2388
 8583W        W26787   4.476  11.705  13.938  0.1906  0.1431 -0.0509
 8584W        W26788  11.161   5.244  15.325 -0.2246  0.0305 -0.1968
 8585W        W26789   5.946   0.949  13.831  0.1124 -0.1326 -0.1938
 8586W        W26790  15.439   1.851  13.182 -0.0385 -0.0839  0.0483
 8587W        W26791   9.035   1.841   4.271 -0.2397  0.0558 -0.1114
 8588W        W26792  10.465   3.841  17.101  0.1116 -0.1492 -0.0656
 8589W        W26793   0.773   0.932   5.432 -0.0156  0.1619  0.3563
 8590W        W26794   6.938   6.368   4.530  0.1495 -0.0224 -0.0785
 8591W        W26795   4.521   8.034   4.973  0.0108  0.0102 -0.0156
 8592W        W26796  12.369  12.888   2.939 -0.1374  0.0079 -0.0943
 8593W        W26797   6.689  15.403  13.842 -0.2406  0.0771 -0.0242
 8594W        W26798  17.190   5.463   2.047  0.1081 -0.0150  0.0297
 8595W        W26799  13.749   4.308   1.467 -0.0813 -0.0388 -0.0795
 8596W        W26800   6.445  16.108   4.630  0.1550 -0.0046 -0.0466
 8597W        W26801  14.257   2.575  13.384  0.0529 -0.5120  0.4133
 8598W        W26802  13.801   1.658   2.058  0.2118  0.2483  0.0599
 8599W        W26803  12.403  16.903  16.235  0.1475  0.1437 -0.1927
 8600W        W26804  15.529  12.675  14.462 -0.1338  0.1388  0.0718
 8601W        W26805   9.639   3.375   3.780  0.2599 -0.1884 -0.0011
 8602W        W26806  11.775  16.769   2.115  0.2494  0.1150 -0.1536
 8603W        W26807   7.951   5.667   5.229 -0.3057 -0.1413  0.0821
 8604W        W26808   3.904  13.644   0.325 -0.0371  0.3925  0.2057
 8605W        W26809   1.273  12.107  15.157 -0.1883  0.3390  0.0350
 8606W        W26810  17.038   5.328   1.189 -0.0587 -0.1437 -0.0955
 8607W        W26811   0.002   4.319   3.444  0.3081  0.0920  0.6217
 8608W        W26812  15.920   1.064  16.380 -0.2193  0.1659 -0.1598
 8609W        W26813  14.239  12.704   0.691 -0.0543 -0.0111 -0.0255
 8610W        W26814  14.420   6.343  14.180 -0.0634  0.1376  0.1199
 8611W        W26815   5.349  16.410   5.292 -0.2851  0.0767 -0.0893
 8612W        W26816   7.406   1.274  14.863 -0.0039 -0.2813 -0.4929
 8613W        W26817   4.708  13.701   1.546  0.1576 -0.0579  0.0769
 8614W        W26818   3.497   6.911   5.329  0.1191 -0.1214  0.0952
 8615W        W26819  10.467   7.460   2.107 -0.0400  0.0636  0.1762
 8616W        W26820   3.986  13.544   2.891  0.0555 -0.1240 -0.0320
 8617W        W26821   9.572   7.037  15.460  0.1275 -0.1006 -0.0587
 8618W        W26822  16.515   3.781  13.092  0.1577  0.0163 -0.0421
 8619W        W26823   9.796   1.170  14.216  0.2169  0.2055  0.0004
 8620W        W26824   6.454  11.295  16.907  0.4099  0.0812  0.0447
 8621W        W26825   4.969   0.795   5.545  0.2206 -0.0671 -0.0699
 8622W        W26826   6.411   9.475  15.018  0.0695 -0.0562 -0.3718
 8623W        W26827   3.175   9.217  12.596  0.0819  0.0733  0.0026
 8624W        W26828  10.542   6.747  13.669 -0.4266 -0.1341 -0.0259
 8625W        W26829   1.653  16.923   0.888 -0.0048 -0.2090  0.0996
 8626W        W26830   6.811   2.093  14.289  0.1517  0.0800 -0.0306
 8627W        W26831   0.860   7.732   5.352 -0.0697  0.0183 -0.1752
 8628W        W26832  14.385   3.582  14.956 -0.1619 -0.1806 -0.1678
 8629W        W26833   0.720  15.922  14.135  0.0430  0.0559  0.2217
 8630W        W26834  11.716  15.999   5.782  0.3074 -0.0202 -0.0776
 8631W        W26835   5.529   2.568  12.233  0.2310 -0.1919  0.1328
 8632W        W26836   8.310   2.314   0.930 -0.2920  0.1545  0.1272
 8633W        W26837  17.074  10.416  15.023 -0.0995  0.0773 -0.0241
 8634W        W26838   4.580  15.308  17.041 -0.0742  0.0167  0.1767
 8635W        W26839   8.854   5.245   3.216  0.3070 -0.0839  0.0725
 8636W        W26840  16.183   9.727  16.673 -0.1821  0.0777  0.0596
 8637W        W26841  10.257   4.957   4.918  0.0111 -0.3627 -0.1603
 8638W        W26842   3.158  17.245   2.106 -0.0149  0.0907  0.3066
 8639W        W26843   3.632  13.913   2.578  0.0708 -0.0072  0.2275
 8640W        W26844  15.603  10.010  15.710  0.2673 -0.1202 -0.0404
 8641W        W26845   9.272  11.068   2.346  0.1738  0.0664  0.2496
 8642W        W26846  10.771   7.368  15.125  0.1779 -0.0300  0.1324
 8643W        W26847   8.888   8.644   4.590  0.2979  0.0092 -0.1586
 8644W        W26848  11.152   8.615  14.629 -0.0068 -0.0244  0.0008
 8645W        W26849  16.634   3.282   2.951 -0.1193  0.0902  0.0142
 8646W        W26850   0.561   1.384   5.387  0.0680  0.0025 -0.0136
 8647W        W26851  11.114  13.850   5.292 -0.0848  0.1820 -0.1187
 8648W        W26852  11.352   2.750  12.596 -0.1591  0.4581 -0.0603
 8649W        W26853  15.829  13.193  16.751 -0.1672  0.0177  0.0029
 8650W        W26854  11.461   4.026  13.261 -0.0199 -0.1862  0.0389
 8651W        W26855  11.639   9.982  17.094 -0.0561  0.0680 -0.0463
 8652W        W26856   6.874   4.757   0.486 -0.3316 -0.0001  0.1387
 8653W        W26857  16.240   7.151  15.983 -0.0609 -0.0365  0.2680
 8654W        W26858   5.399   7.653  12.402  0.1322 -0.0869 -0.0190
 8655W        W26859   5.460   0.242   4.366  0.3472  0.0772 -0.1437
 8656W        W26860   8.559   8.420  14.165  0.1931 -0.1717  0.1672
 8657W        W26861   7.135  16.295  14.841  0.1528  0.0025 -0.0553
 8658W        W26862   9.201   1.935   4.717 -0.1242  0.0163 -0.3806
 8659W        W26863  14.641  17.075  17.206  0.0128  0.1738 -0.0832
 8660W        W26864  15.469  10.415  16.928  0.1347 -0.0978  0.0356
 8661W        W26865   7.668   5.774   4.139 -0.1963  0.0606  0.1203
 8662W        W26866  13.566   1.717  12.476  0.0188 -0.0344 -0.1871
 8663W        W26867  10.084   5.068  12.435  0.1076 -0.1351  0.0198
 8664W        W26868  14.327   1.663  14.457  0.0728  0.1818 -0.4553
 8665W        W26869  14.020   5.250  14.548 -0.1476  0.1186  0.0943
 8666W        W26870  15.066   8.165   0.313 -0.0568  0.4290 -0.0569
 8667W        W26871  17.181   0.064  15.413  0.2161 -0.2004  0.0196
 8668W        W26872  10.790  15.618   0.084  0.3399 -0.1059 -0.1006
 8669W        W26873   1.739  16.352  16.398 -0.0622 -0.2323  0.1301
 8670W        W26874  12.961   0.083  14.387 -0.1413  0.2561  0.2510
 8671W        W26875  17.258   7.800   5.471  0.2788  0.0217  0.0079
 8672W        W26876   4.754   8.022  16.504  0.0632 -0.1198 -0.0377
 8673W        W26877  11.718   1.636  12.774 -0.1974  0.0973  0.2094
 8674W        W26878  12.208   6.028  15.708 -0.3145  0.1849 -0.0113
 8675W        W26879   8.121   9.596   1.709 -0.0908 -0.2302  0.3604
 8676W        W26880   3.725   0.922  16.190  0.3205  0.4459  0.1570
 8677W        W26881  14.180   5.864   1.007 -0.1738 -0.2479 -0.0184
 8678W        W26882   2.991   2.982  14.673  0.1329  0.0674 -0.0599
 8679W        W26883  10.483   4.158  12.216 -0.0487 -0.1819 -0.0742
 8680W        W26884  14.427   3.012   0.134  0.2400  0.0156  0.0912
 8681W        W26885   8.754   6.395  17.339 -0.0817 -0.3504  0.1119
 8682W        W26886   5.807  14.744  12.973  0.0311 -0.0495  0.0087
 8683W        W26887   1.863   3.453  17.252 -0.0744  0.1510 -0.0999
 8684W        W26888  16.045   0.538  16.648 -0.3221  0.0581 -0.0455
 8685W        W26889  14.430   8.323   4.502 -0.2687  0.1410 -0.2022
 8686W        W26890   8.560  13.795   3.929  0.0326 -0.1877  0.0610
 8687W        W26891   3.753   8.589   4.934  0.0519  0.0461  0.0095
 8688W        W26892   8.878   8.324   1.262  0.2418 -0.0676 -0.2142
 8689W        W26893  15.631   2.298   2.626  0.0395 -0.0829  0.2017
 8690W        W26894  16.412   1.065  16.601 -0.2767  0.0725  0.0251
 8691W        W26895  11.057   3.472  15.655 -0.0355 -0.3616  0.0154
 8692W        W26896  16.613  14.606   2.025  0.0704  0.1683  0.0446
 8693W        W26897   0.095   0.476   3.779 -0.0478  0.2720 -0.0498
 8694W        W26898   8.928  13.749   4.240 -0.2258 -0.0725  0.1698
 8695W        W26899   4.991   4.499   2.299  0.1984  0.3003 -0.0036
 8696W        W26900   1.782   5.693   4.128 -0.3562 -0.1471  0.1178
 8697W        W26901   2.077   9.335  17.435 -0.0986  0.0444 -0.2855
 8698W        W26902  14.999  12.939  15.631 -0.3110  0.2421 -0.0692
 8699W        W26903   9.236  10.725   3.421 -0.1200  0.0089  0.2362
 8700W        W26904  15.675   4.062   3.764 -0.4591  0.0690  0.1464
 8701W        W26905   5.692  12.563   0.836 -0.2694  0.2983  0.3983
 8702W        W26906   8.731   7.372   1.453  0.1122 -0.1398 -0.0110
 8703W        W26907   1.410  10.758  15.669  0.1715  0.2699  0.2336
 8704W        W26908  16.904   5.182   4.743 -0.1046  0.0142 -0.0059
 8705W        W26909   4.281   9.623  16.615  0.0586 -0.0860  0.0519
 8706W        W26910   0.201   6.715  15.009  0.1022  0.3118 -0.0743
 8707W        W26911  14.510   5.468   4.964 -0.2393  0.1612 -0.0274
 8708W        W26912  17.089  16.210   0.522  0.2641 -0.0270 -0.2117
 8709W        W26913   3.060  16.525   4.373  0.0467  0.1231  0.1093
 8710W        W26914  16.503   0.665   3.803 -0.2164  0.3820 -0.3889
 8711W        W26915   7.139  16.417  13.319 -0.0550 -0.0013  0.2638
 8712W        W26916   2.984  12.776  13.702  0.2076  0.0060  0.1257
 8713W        W26917   1.095   4.204   1.844 -0.2201 -0.0657  0.0271
 8714W        W26918   4.481   6.090  15.902 -0.0046  0.2723  0.2478
 8715W        W26919  15.264   3.126  14.762 -0.2204 -0.2335  0.2295
 8716W        W26920   5.881   2.457  14.716  0.1247  0.0429  0.5145
 8717W        W26921  12.198   3.214   0.282 -0.1272  0.0129 -0.1268
 8718W        W26922  10.219  16.233  17.237 -0.1547  0.0798 -0.0828
 8719W        W26923   8.702  16.850   0.460 -0.1829 -0.2680 -0.0619
 8720W        W26924  16.117   3.551  13.791 -0.2827  0.0329  0.1809
 8721W        W26925   4.842   2.312  17.220  0.0480  0.1858 -0.0776
 8722W        W26926  12.378   5.767  14.119  0.3285 -0.2078 -0.0010
 8723W        W26927   9.886   4.661   1.424 -0.1817 -0.2418 -0.0320
 8724W        W26928  14.441   5.698  12.594  0.0989 -0.1360  0.0690
 8725W        W26929   0.931   0.648   1.796  0.1558  0.0368 -0.1628
 8726W        W26930   7.772   5.614   0.166 -0.0245  0.2012 -0.1447
 8727W        W26931  13.512   5.823   0.792  0.0420 -0.1664  0.0096
 8728W        W26932   3.937  13.627  16.830  0.1009  0.0901  0.1055
 8729W        W26933  10.550   4.253  11.685 -0.1856  0.1355  0.2703
 8730W        W26934  10.161   3.987  14.385  0.1609 -0.1621  0.1290
 8731W        W26935   7.277   6.049  13.556 -0.1433 -0.1852 -0.0983
 8732W        W26936   5.448  10.604   1.322  0.1970 -0.0845 -0.0791
 8733W        W26937   2.480  12.502   3.286 -0.0443  0.1740 -0.3384
 8734W        W26938   5.663  14.140  17.200 -0.2788 -0.3459  0.1090
 8735W        W26939  16.600   3.429   2.441 -0.1733 -0.5120  0.0106
 8736W        W26940   3.209  17.031  14.922  0.0863 -0.1889 -0.0652
 8737W        W26941   9.675   5.314  14.035  0.2936 -0.2695 -0.1736
 8738W        W26942   6.618   7.053   2.671  0.0111 -0.2131  0.1570
 8739W        W26943   9.549  10.099   4.501 -0.0807  0.2617  0.3115
 8740W        W26944   4.154   3.797   4.214  0.1562  0.1346 -0.1613
 8741W        W26945   8.754   7.192  13.790 -0.0301  0.0211  0.3674
 8742W        W26946  14.613  11.715   3.642 -0.0126  0.0149  0.3964
 8743W        W26947  14.625   6.328   3.330 -0.1728 -0.2102  0.4511
 8744W        W26948   5.336  12.015  16.879 -0.1381 -0.0453  0.0987
 8745W        W26949   6.632   8.662   3.362  0.4417 -0.0198  0.1694
 8746W        W26950  11.719  11.640   0.424  0.3286 -0.0379  0.0320
 8747W        W26951   9.063  10.191  13.889 -0.0115 -0.0470  0.1225
 8748W        W26952  12.053  15.433  13.142 -0.0036 -0.1133 -0.1937
 8749W        W26953  16.186   0.113   4.049  0.0563  0.1599  0.0396
 8750W        W26954  11.730  14.539  12.388 -0.1898  0.0738 -0.1384
 8751W        W26955  13.076   5.124   2.536 -0.0213  0.0291  0.3632
 8752W        W26956   5.088   2.868  15.929  0.1150 -0.1662 -0.0242
 8753W        W26957  13.021   4.058   3.239  0.0361 -0.2893  0.1137
 8754W        W26958   6.154   5.600  12.225 -0.0823 -0.0268 -0.1456
 8755W        W26959  10.285  11.597  12.925  0.0899  0.1664 -0.1186
 8756W        W26960  15.716   7.093   0.089 -0.0808 -0.0770  0.1116
 8757W        W26961  15.339   6.916   3.769  0.0791 -0.1669  0.0162
 8758W        W26962   0.874  11.846   2.218 -0.0339 -0.0684  0.1357
 8759W        W26963   0.562   1.046  14.532 -0.1532 -0.0538 -0.3113
 8760W        W26964   3.419   4.859   1.092 -0.0227  0.1773 -0.1160
 8761W        W26965  15.422   5.355  15.732 -0.0096  0.0247  0.1615
 8762W        W26966  14.231  11.167  12.099 -0.1788  0.0075 -0.0801
 8763W        W26967  10.410   0.667  12.462  0.1305  0.1163 -0.0563
 8764W        W26968  17.166  15.381   2.947 -0.2999 -0.2139 -0.4610
 8765W        W26969  14.632  13.631   1.110 -0.3323 -0.0367  0.0475
 8766W        W26970  14.981  12.365   3.056  0.3108  0.0686  0.0067
 8767W        W26971  15.961   0.289   5.850 -0.0477  0.2532  0.0819
 8768W        W26972   7.088   6.365   5.085 -0.3621 -0.0155 -0.1671
 8769W        W26973  14.024   6.051   2.449 -0.1332 -0.1284  0.3629
 8770W        W26974  11.327   4.456  16.883 -0.0114 -0.0835 -0.0878
 8771W        W26975  14.684   8.194  14.713  0.0455  0.1507  0.1610
 8772W        W26976   2.657  12.765   1.624  0.1179  0.0547 -0.1271
 8773W        W26977  11.887  10.860  14.586  0.0383  0.0139 -0.0424
 8774W        W26978   8.488   3.337   2.839 -0.0979  0.1083 -0.2591
 8775W        W26979  16.696   4.189  16.549 -0.0488  0.0334 -0.0182
 8776W        W26980   9.747   9.597   5.631 -0.0085 -0.0402 -0.0651
 8777W        W26981  15.797   9.823   1.616  0.2838 -0.1633 -0.0340
 8778W        W26982  10.753   0.102  14.939 -0.1098 -0.3712  0.2552
 8779W        W26983  13.254  13.589  12.862  0.0097 -0.1076  0.2267
 8780W        W26984   9.879  11.119   3.772  0.0807  0.1693 -0.1334
 8781W        W26985   4.246   5.526   3.102 -0.0070  0.3299  0.0530
 8782W        W26986   6.610   6.875   3.164 -0.0051 -0.2225 -0.0144
 8783W        W26987   5.640  10.954   3.848 -0.0051 -0.0338  0.1788
 8784W        W26988  12.207   6.984  15.214 -0.0121 -0.0624  0.0380
 8785W        W26989  12.405  14.126   4.622  0.2268  0.1539  0.0790
 8786W        W26990  10.055  13.210   4.756  0.1300 -0.2553 -0.0909
 8787W        W26991   3.148   1.110   2.805  0.0846  0.0226  0.2590
 8788W        W26992  11.938  12.773  14.943  0.4188  0.2443 -0.1432
 8789W        W26993   3.930   8.366  16.961  0.0836 -0.1008 -0.0944
 8790W        W26994   4.633   4.343  11.249  0.3206 -0.1950 -0.0304
 8791W        W26995  12.830   3.067  14.022 -0.1710 -0.0912 -0.0411
 8792W        W26996  16.522  15.370  15.323 -0.1572 -0.0271  0.1464
 8793W        W26997   4.084  11.679   3.402  0.1006 -0.2628 -0.0596
 8794W        W26998   2.969   6.069   3.053 -0.2523 -0.0434 -0.2538
 8795W        W26999   5.786   7.097   3.223  0.1682  0.1195  0.2163
 8796W        W27000  16.918   6.845   1.978 -0.0249  0.2889 -0.4262
 8797W        W27001   9.512  10.669   0.167 -0.0972 -0.1226  0.0070
 8798W        W27002   0.258   1.040   3.608 -0.0359  0.0578  0.0434
 8799W        W27003   2.491   4.939   1.153 -0.1948  0.1068 -0.1128
 8800W        W27004   7.709   0.102   4.284  0.0705  0.1482  0.1121
 8801W        W27005   5.619   3.062  14.576 -0.0814  0.1162 -0.0185
 8802W        W27006  16.189   0.356   3.610  0.0987  0.0083 -0.0385
 8803W        W27007  14.141   5.752   4.191 -0.0038 -0.0168  0.0401
 8804W        W27008  12.125   6.877  16.340  0.1459  0.1120  0.0947
 8805W        W27009  14.182   6.533  17.494 -0.1175 -0.0832 -0.1123
 8806W        W27010  13.775   6.869  16.975 -0.1713 -0.1315  0.1161
 8807W        W27011   8.236   5.600   3.802 -0.1154  0.0065 -0.1131
 8808W        W27012   5.650   8.418  13.286  0.0125  0.0731  0.0234
 8809W        W27013   9.959  15.008  14.449  0.3829 -0.0773  0.1788
 8810W        W27014  12.768  15.820  15.195 -0.4074  0.2061  0.1725
 8811W        W27015  15.414  10.839  12.719  0.0433 -0.0363 -0.1458
 8812W        W27016   1.168   2.566  12.718  0.0075 -0.0011 -0.0040
 8813W        W27017  15.870   5.818   0.450  0.0122  0.2656 -0.0448
 8814W        W27018  15.513  11.582   5.595 -0.2126  0.0620 -0.0617
 8815W        W27019  11.324  15.504  12.619  0.2542  0.0960  0.0770
 8816W        W27020  13.417  14.456  13.732 -0.3889  0.0669  0.2352
 8817W        W27021   4.206  14.791   5.095  0.0741  0.0380 -0.1853
 8818W        W27022  10.703  13.268  13.241  0.3184 -0.2342  0.0694
 8819W        W27023  14.425  16.740   4.470 -0.0183 -0.3383 -0.0470
 8820W        W27024  16.977  12.423  17.243 -0.3372  0.1886 -0.1112
 8821W        W27025  16.383   7.586   3.443 -0.0344 -0.3717  0.1244
 8822W        W27026   3.059  12.242  12.587 -0.1130 -0.1754 -0.2167
 8823W        W27027  15.484  16.347  15.678 -0.1270  0.1952  0.2333
 8824W        W27028   4.375  14.706   1.326 -0.0614  0.2477  0.0287
 8825W        W27029   5.762   3.835   5.098 -0.1571 -0.1995 -0.0883
 8826W        W27030   2.267   9.486  16.227 -0.0653 -0.2636 -0.0673
 8827W        W27031   8.254   0.389   4.400 -0.2707  0.3092  0.2810
 8828W        W27032  10.582   9.989   0.266 -0.0316 -0.1014  0.1704
 8829W        W27033  12.472   2.060  16.240  0.2556 -0.1514 -0.1311
 8830W        W27034  14.180   2.958   0.556  0.0959  0.1639 -0.1629
 8831W        W27035   8.896   0.435   1.825  0.1646  0.1141  0.1779
 8832W        W27036  13.773   1.265   3.933 -0.1631 -0.1795 -0.1805
 8833W        W27037   5.319   7.778   2.994  0.1323  0.1931 -0.1284
 8834W        W27038  13.912  15.293  14.536  0.0651  0.1068  0.0320
 8835W        W27039  16.271  14.011   4.061 -0.3435  0.1692  0.0091
 8836W        W27040   9.485   6.964   3.481 -0.1318 -0.2560 -0.0456
 8837W        W27041  16.489  14.088   0.184 -0.2564  0.2532 -0.1618
 8838W        W27042   5.253   5.596   1.420  0.1246  0.1415 -0.0610
 8839W        W27043  15.778   3.145  17.334  0.1486  0.1099  0.3029
 8840W        W27044  12.078   4.599  15.428 -0.0114 -0.0280  0.0635
 8841W        W27045  16.049   2.487   3.561 -0.0378  0.1960 -0.0345
 8842W        W27046  15.130   0.722  16.380 -0.0181  0.1381 -0.1583
 8843W        W27047  10.996   2.886  12.222  0.0518  0.2764  0.1673
 8844W        W27048   1.721  16.974  14.475  0.1819  0.1995 -0.0998
 8845W        W27049  12.595  15.615   0.470  0.0091  0.3630 -0.1290
 8846W        W27050  15.339  16.280   2.358  0.2653  0.0631  0.0657
 8847W        W27051  11.918   0.769  14.316 -0.0503  0.0087 -0.3286
 8848W        W27052   9.183   3.946   1.772 -0.1546 -0.3408  0.1764
 8849W        W27053   7.299  13.677  13.805 -0.2255  0.2701  0.1328
 8850W        W27054   1.743  12.821  16.511  0.1421 -0.1192 -0.4023
 8851W        W27055  16.949   1.533   0.811 -0.1828 -0.1352  0.0805
 8852W        W27056  13.488  12.768   0.438  0.0475  0.2135  0.2644
 8853W        W27057  12.353   8.215  13.270  0.1560 -0.2008  0.2359
 8854W        W27058  11.478   1.886  13.140 -0.2194  0.1663  0.0915
 8855W        W27059   4.063   6.569   1.495  0.3297  0.0920  0.0046
 8856W        W27060   7.213   0.926  13.021  0.0357  0.0697  0.2776
 8857W        W27061   5.025  14.031   4.453 -0.0300 -0.1713 -0.2527
 8858W        W27062   6.186  16.753   5.308 -0.0783  0.0772 -0.1923
 8859W        W27063   4.258  15.520   4.959  0.0612  0.0384  0.1440
 8860W        W27064   9.328   7.331  13.691 -0.1631  0.0292  0.0805
 8861W        W27065   0.406   8.369  12.956  0.2671  0.2823 -0.1898
 8862W        W27066  14.471   4.251   2.242 -0.2956  0.0950 -0.0199
 8863W        W27067   7.067   2.710  12.558  0.0332 -0.0643 -0.1187
 8864W        W27068   3.921   5.392  12.927 -0.4150 -0.0190 -0.1851
 8865W        W27069  15.963   8.929   0.671  0.0075 -0.2065  0.2059
 8866W        W27070   8.757  12.245   0.467  0.1058 -0.0932  0.2206
 8867W        W27071   7.180  11.886  13.689  0.0467  0.1379 -0.2097
 8868W        W27072  16.128   8.557  12.562  0.1678 -0.1081 -0.0011
 8869W        W27073  10.593  11.069  13.712  0.3403 -0.1908  0.0589
 8870W        W27074   6.675   7.957  16.164 -0.0677  0.5791  0.0695
 8871W        W27075  14.045   5.337  13.401 -0.1894 -0.3385  0.1004
 8872W        W27076  10.267   7.058  13.338  0.1223 -0.1911  0.1028
 8873W        W27077   2.004  10.704  17.511  0.1677  0.0904 -0.0633
 8874W        W27078  15.656   2.487   1.201  0.1806 -0.0026  0.0960
 8875W        W27079   1.385  10.934  13.842  0.3766  0.0996 -0.0763
 8876W        W27080  16.493  10.919   0.938 -0.2530 -0.1252  0.0352
 8877W        W27081   5.882   7.758   1.687  0.1959 -0.0881 -0.2478
 8878W        W27082   2.161   3.068   4.199  0.0655  0.0570  0.1133
 8879W        W27083  13.822   1.387  13.349  0.0608  0.1449  0.1198
 8880W        W27084  13.537  10.748   0.529 -0.0664 -0.1228  0.2412
 8881W        W27085   9.663  10.242   0.336 -0.0509 -0.1671  0.0845
 8882W        W27086   8.418   8.650   3.321  0.0496 -0.0630  0.1198
 8883W        W27087  10.176   1.378  13.180 -0.4667  0.1411 -0.0319
 8884W        W27088   9.025  12.871   3.827  0.0127  0.1844  0.1629
 8885W        W27089   9.462  15.878  15.455  0.1375  0.1277 -0.2581
 8886W        W27090   7.234   0.818   0.325 -0.1386 -0.2102 -0.1698
 8887W        W27091  16.778  13.949  14.900  0.1606  0.0222 -0.0670
 8888W        W27092  13.139   3.125   1.810  0.2303  0.2067 -0.1184
 8889W        W27093  11.312   0.776   3.181  0.0381 -0.0892  0.2413
 8890W        W27094   9.559  15.781  15.986 -0.3234  0.1562 -0.0160
 8891W        W27095  16.463   3.336   0.854  0.2357 -0.1649  0.0507
 8892W        W27096  13.613  13.700   3.225  0.0435  0.0593  0.0916
 8893W        W27097   0.965   4.954   1.284  0.1625  0.0306  0.0838
 8894W        W27098  15.606   6.934  13.992  0.0958  0.1822 -0.2673
 8895W        W27099   6.573   8.245  12.489 -0.1209 -0.3419 -0.0041
 8896W        W27100   4.327   9.336   5.391 -0.0499 -0.4508 -0.2305
 8897W        W27101   1.608   8.945  15.141  0.1010  0.0907  0.1600
 8898W        W27102   7.903   6.721   0.212  0.0725 -0.1715 -0.4268
 8899W        W27103   2.505  12.215  12.644 -0.2065 -0.1307  0.0855
 8900W        W27104   9.758   4.144  14.632 -0.0441  0.2267  0.1892
 8901W        W27105   0.415  15.536   4.310  0.0417 -0.0692 -0.0736
 8902W        W27106   0.651  16.436   4.045 -0.0190 -0.2132 -0.1032
 8903W        W27107  15.426   4.273   2.854  0.1019 -0.0517 -0.0772
 8904W        W27108   0.586  11.238   1.601 -0.2482 -0.3448  0.0279
 8905W        W27109  15.426   3.964  13.261  0.1983  0.1209  0.0931
 8906W        W27110  11.597   5.617  16.759  0.2893 -0.0509  0.1468
 8907W        W27111   7.617   8.020   1.658 -0.2816  0.0801  0.0236
 8908W        W27112   2.608   3.840  17.429  0.4586  0.1497 -0.2835
 8909W        W27113  12.431  15.861  14.833 -0.3106  0.4673 -0.2720
 8910W        W27114  12.663   6.999   3.018  0.2826  0.1637 -0.0181
 8911W        W27115   7.828   4.412   0.792 -0.1486 -0.0908 -0.0734
 8912W        W27116   1.735  12.227   0.770  0.0617 -0.2594  0.0819
 8913W        W27117   1.943  14.143   5.322  0.1553  0.1175  0.0501
 8914W        W27118  13.703  11.611  15.789 -0.0169  0.1130  0.1264
 8915W        W27119  10.427  16.578   4.557 -0.3746  0.0681 -0.0801
 8916W        W27120   2.986   4.303   1.882 -0.2230 -0.0496 -0.0014
 8917W        W27121  13.091   8.400  12.597 -0.0741  0.0657 -0.2991
 8918W        W27122   4.398  13.692  17.181  0.0384  0.0430 -0.4682
 8919W        W27123  10.373   6.297   4.696  0.1111  0.2615  0.3648
 8920W        W27124   9.856   6.162   0.921  0.3279 -0.1525  0.3810
 8921W        W27125  11.804   2.837  14.298  0.0917 -0.0683 -0.0073
 8922W        W27126   7.464   7.759   0.309 -0.3593 -0.1200  0.2230
 8923W        W27127   9.172  15.537   2.454 -0.3952 -0.0083 -0.2039
 8924W        W27128   9.210   6.925  15.082  0.2430 -0.0111  0.0211
 8925W        W27129   3.383  12.544  17.229 -0.2464  0.1421  0.1553
 8926W        W27130  11.015   4.742  12.734  0.1367 -0.1026 -0.2847
 8927W        W27131   9.937   5.783  13.393  0.0003  0.1322 -0.0108
 8928W        W27132   0.087   2.550   4.709 -0.3120  0.0515 -0.1309
 8929W        W27133   0.668   8.346   3.008 -0.2293 -0.1859 -0.0225
 8930W        W27134  11.355   9.920  13.263 -0.0555 -0.0556  0.0004
 8931W        W27135   2.400   0.807   2.937  0.1244  0.2922 -0.1724
 8932W        W27136  14.004  10.373   4.998  0.2243 -0.0787  0.0046
 8933W        W27137   7.823   9.321  17.504  0.0169 -0.0315 -0.0097
 8934W        W27138   2.064   3.005  17.456  0.0920 -0.0217 -0.3620
 8935W        W27139   7.960   2.869  13.502 -0.0492  0.1319 -0.0929
 8936W        W27140   1.799   5.340  14.818 -0.1056 -0.0027 -0.0766
 8937W        W27141   5.233   0.905   1.072 -0.0228 -0.0742 -0.1472
 8938W        W27142   5.402   7.948   3.491 -0.1462  0.2367 -0.1529
 8939W        W27143   1.368   4.184   5.272 -0.0841  0.0708 -0.3105
 8940W        W27144   2.724   3.771  12.469 -0.1053 -0.0269 -0.0104
 8941W        W27145   0.572  17.152   2.472  0.0089 -0.3323  0.0833
 8942W        W27146   0.482   4.814   1.172 -0.1448 -0.2234 -0.1556
 8943W        W27147   9.191   6.867  12.777  0.1989  0.0937 -0.0851
 8944W        W27148  15.370  17.200   3.772 -0.0504 -0.1317  0.2420
 8945W        W27149  10.810   1.289  13.249  0.0860  0.0574 -0.2324
 8946W        W27150   2.426   6.543   0.116 -0.0076  0.4447  0.0004
 8947W        W27151   8.742  14.145  15.746  0.2522  0.2110  0.0741
 8948W        W27152   5.373   1.128  14.256 -0.0408 -0.2135  0.2763
 8949W        W27153  10.593  15.116  12.891 -0.1385 -0.0980  0.0835
 8950W        W27154   8.082   4.791  16.935 -0.0087  0.1526 -0.1564
 8951W        W27155   4.532   8.284  14.095  0.0295  0.1417 -0.0007
 8952W        W27156  14.692   9.133   1.219  0.1626  0.0526 -0.0574
 8953W        W27157   5.318   2.114  17.117  0.1925 -0.1252  0.2581
 8954W        W27158   3.172   2.284  14.522 -0.3063  0.0345 -0.2232
 8955W        W27159  11.529   7.429  15.820  0.0105  0.1457  0.2927
 8956W        W27160   2.666  12.451  14.005 -0.1586  0.0762  0.1687
 8957W        W27161  12.352  10.002   0.806 -0.1756 -0.1622 -0.1183
 8958W        W27162   0.097   7.058   1.842 -0.2946 -0.1166  0.0975
 8959W        W27163  12.756   8.650  13.983  0.0627  0.2784 -0.0673
 8960W        W27164   5.513   8.476  14.602 -0.0647  0.0594  0.0695
 8961W        W27165  11.438   2.035  11.880  0.1138 -0.4392  0.1948
 8962W        W27166  11.222   6.444   4.581 -0.1503  0.0621 -0.1718
 8963W        W27167   7.607   3.611  17.423  0.0440 -0.1819  0.0976
 8964W        W27168   2.775  11.795  12.529  0.0929  0.0448  0.2509
 8965W        W27169  12.598   3.037  15.962 -0.1091  0.2567 -0.1720
 8966W        W27170   7.086   6.473  14.222 -0.2098 -0.1681 -0.1083
 8967W        W27171   4.377  16.241   0.647  0.1860  0.1719  0.0406
 8968W        W27172   9.793   1.793  16.220  0.0492 -0.2499 -0.1589
 8969W        W27173  13.723   9.389   4.901 -0.1845 -0.1318 -0.0100
 8970W        W27174   3.173  14.278  15.827  0.0638  0.1010  0.0050
 8971W        W27175   9.765  17.136   3.488  0.1436 -0.0379 -0.0441
 8972W        W27176   9.881   4.286   5.045  0.1652  0.1102  0.1198
 8973W        W27177   6.559   9.015   2.542 -0.0082  0.0615 -0.3085
 8974W        W27178   5.087  15.033  12.420 -0.4164 -0.0973  0.0663
 8975W        W27179   3.938   2.579   4.502 -0.1815 -0.1961  0.1958
 8976W        W27180   4.236   3.888  12.542 -0.1346 -0.2329 -0.3222
 8977W        W27181  15.347   6.625  14.403 -0.0312  0.0628 -0.2239
 8978W        W27182  12.624   6.297  15.869 -0.1843  0.1460 -0.0031
 8979W        W27183   6.150  16.160  12.633 -0.0516  0.1112  0.2627
 8980W        W27184   0.369  14.550  15.786  0.1343 -0.0840 -0.1013
 8981W        W27185  10.893   6.871   1.560 -0.0369 -0.0501 -0.0122
 8982W        W27186  10.134  14.847  17.380 -0.0678 -0.0079 -0.2342
 8983W        W27187   2.644   5.076  15.954 -0.0635 -0.0397  0.2497
 8984W        W27188  10.299   0.046  13.609  0.3488 -0.2731 -0.1766
 8985W        W27189   6.413  12.550  16.672 -0.1611  0.0684 -0.0860
 8986W        W27190   0.428  11.659   3.545  0.0093 -0.0108  0.0524
 8987W        W27191   4.380   0.427  16.716  0.2511  0.1436 -0.1445
 8988W        W27192   0.937   6.665   2.255 -0.0611 -0.0260 -0.2541
 8989W        W27193   8.174   9.386   1.277  0.0529 -0.0087  0.1068
 8990W        W27194   6.767  11.013   0.433  0.1815 -0.0664  0.0224
 8991W        W27195  15.374  13.048  14.145  0.1056 -0.3558 -0.0727
 8992W        W27196   8.092   3.301   1.466  0.0615 -0.2234 -0.1249
 8993W        W27197  11.039  16.333  13.970 -0.0966 -0.4171  0.0796
 8994W        W27198   0.461  14.853   3.427  0.0253 -0.2325  0.3906
 8995W        W27199  14.902  16.407  12.543 -0.2531  0.3988 -0.1419
 8996W        W27200  17.212  13.488  15.564 -0.0807 -0.2471  0.0311
 8997W        W27201  15.666   0.506  17.039 -0.2995  0.3695 -0.3672
 8998W        W27202  13.598   9.018   0.969 -0.1742 -0.1360  0.1623
 8999W        W27203   0.982   1.809   1.798  0.3004 -0.0618  0.0289
 9000W        W27204   4.515  13.636  14.397  0.4192  0.1502 -0.2282
 9001W        W27205   4.987  15.775  13.051 -0.1100 -0.0906 -0.0874
 9002W        W27206   4.691   0.327   0.205  0.2178 -0.0182  0.1921
 9003W        W27207  11.931  10.414   3.709 -0.1207 -0.1065 -0.1514
 9004W        W27208   2.562   4.489  13.141  0.0170  0.2903  0.2353
 9005W        W27209  11.145   8.560   1.144  0.0236 -0.1978  0.0500
 9006W        W27210   6.956   8.320  12.882 -0.0690 -0.1737 -0.1997
 9007W        W27211  15.036  17.171  16.874  0.0820 -0.3518  0.1082
 9008W        W27212   2.432  12.149   4.195  0.0816  0.3142 -0.0700
 9009W        W27213   6.507  15.936  14.521  0.1809  0.0341  0.0214
 9010W        W27214   0.268  10.288  12.914 -0.1471  0.1165  0.1429
 9011W        W27215   0.649  16.926   4.907 -0.0076 -0.4070 -0.2044
 9012W        W27216  16.417   4.206  14.626 -0.0742  0.3865  0.0976
 9013W        W27217  16.007   2.571   2.959 -0.0524  0.3795 -0.2402
 9014W        W27218   9.922   0.781   3.092  0.2150  0.0716 -0.1083
 9015W        W27219   3.329  11.143   0.039  0.0453 -0.2754 -0.0514
 9016W        W27220   7.695   7.857  15.696 -0.0982  0.0671  0.1981
 9017W        W27221  15.048   0.243   3.055  0.0617  0.2251  0.1497
 9018W        W27222   0.910  10.866  15.604  0.0367  0.3452  0.2879
 9019W        W27223   8.467   4.738  16.611  0.0091 -0.1840  0.1846
 9020W        W27224  15.867  11.448  17.478 -0.3119  0.0108  0.0854
 9021W        W27225   7.419  12.327   0.644  0.1026  0.2565 -0.1022
 9022W        W27226  11.945   8.029  17.412 -0.1642  0.2932 -0.2755
 9023W        W27227  15.285  10.862  13.833 -0.2717  0.0536 -0.1429
 9024W        W27228   2.315   8.935  11.476  0.1235 -0.2116  0.3213
 9025W        W27229   4.771  12.458   2.231  0.0222 -0.0062  0.1505
 9026W        W27230   5.009   5.122  13.044  0.1456  0.0211 -0.1153
 9027W        W27231   3.107   6.518   3.853 -0.0650  0.1332 -0.0540
 9028W        W27232  13.917   7.090  16.216  0.1452  0.1080  0.3234
 9029W        W27233  15.434   5.815  15.477 -0.1908  0.2916 -0.0655
 9030W        W27234   2.936  14.531   1.300 -0.4012  0.0740  0.2045
 9031W        W27235  10.333   9.105   2.770  0.1251  0.1861 -0.1666
 9032W        W27236  13.432  15.914  14.752 -0.3718  0.0606  0.3166
 9033W        W27237  15.776  10.892  13.549 -0.0761 -0.3645 -0.0571
 9034W        W27238   2.125   3.315  16.276 -0.0532 -0.0720  0.0403
 9035W        W27239   0.860  13.529  12.692 -0.0699  0.0182 -0.1339
 9036W        W27240   8.290   6.450   3.271 -0.2273 -0.0378 -0.2549
 9037W        W27241  12.806   4.232   0.781 -0.1499 -0.1478 -0.2530
 9038W        W27242   5.305  11.796  14.595 -0.0132 -0.0048  0.1293
 9039W        W27243  13.004   5.604  16.341 -0.1437 -0.0343 -0.1277
 9040W        W27244   3.505  11.559   3.763 -0.0662  0.0026  0.2906
 9041W        W27245   7.359   2.984   3.833 -0.1197  0.3451  0.0307
 9042W        W27246  12.871   6.108   3.337 -0.2829  0.0859  0.1524
 9043W        W27247  12.430  14.465   5.012 -0.0599 -0.2511 -0.0593
 9044W        W27248   5.763   3.482  14.879  0.0477  0.0381 -0.1889
 9045W        W27249  14.792  16.988  13.334 -0.1474 -0.4448 -0.0539
 9046W        W27250  13.418   8.148   2.992 -0.1965 -0.1790  0.4360
 9047W        W27251   8.162   8.873   3.851 -0.0474  0.3569  0.0593
 9048W        W27252  10.985   5.358  13.261  0.1007  0.1410 -0.0891
 9049W        W27253   2.114   8.565   5.354 -0.0394  0.3802 -0.1472
 9050W        W27254  12.168   3.176   4.038 -0.2032 -0.0643  0.1258
 9051W        W27255  13.394  11.705  13.026  0.0925  0.1275  0.0679
 9052W        W27256  17.130   3.644   1.725  0.1726  0.1770 -0.2669
 9053W        W27257   1.286  13.102  15.373 -0.0668  0.3037 -0.1152
 9054W        W27258   7.100  10.902  15.944  0.2342  0.1756  0.0854
 9055W        W27259   5.623  16.655  16.941 -0.1889  0.0278 -0.3881
 9056W        W27260   6.697  14.348  16.393  0.2534 -0.2948 -0.1667
 9057W        W27261  13.186  14.825  14.064  0.3142  0.1968 -0.0820
 9058W        W27262  11.956   3.305  12.233  0.1142  0.0824 -0.4280
 9059W        W27263  13.724   5.631   2.512  0.1467 -0.1084  0.1850
 9060W        W27264  12.731  15.054  15.803 -0.0569 -0.1677 -0.2521
 9061W        W27265  13.379   2.550   3.026  0.1832  0.0472  0.2165
 9062W        W27266  12.108   4.879   4.184  0.1654  0.2775 -0.3889
 9063W        W27267  12.786   5.465  14.237  0.2864 -0.0649 -0.0792
 9064W        W27268   4.498   8.146   5.541 -0.2527  0.0251 -0.1768
 9065W        W27269  16.764   0.902   0.155 -0.0264  0.0769 -0.3726
 9066W        W27270   5.552   5.762  16.699  0.0002 -0.2351 -0.2518
 9067W        W27271  12.041   6.161  11.762  0.1503  0.0267  0.0685
 9068W        W27272  11.255  11.814   5.325  0.0826 -0.1005 -0.3405
 9069W        W27273   5.910  16.350  13.830 -0.2708 -0.5071  0.0008
 9070W        W27274   7.890  15.507   1.022  0.0078 -0.1819  0.1285
 9071W        W27275  13.590  11.017  17.368  0.1888 -0.1072 -0.2480
 9072W        W27276  16.569   5.045  15.147 -0.1775  0.0058  0.3295
 9073W        W27277   1.273  16.130  15.305  0.3434 -0.0015 -0.2383
 9074W        W27278  10.332  11.574  13.878  0.0223 -0.1948 -0.1567
 9075W        W27279   5.683   4.250   3.006  0.2494  0.3190 -0.1936
 9076W        W27280   0.229  12.271  14.322 -0.0201 -0.0029  0.0127
 9077W        W27281  13.233   8.774   2.950  0.1786 -0.2760  0.0950
 9078W        W27282   0.703   2.230  14.921  0.0775 -0.1974 -0.0510
 9079W        W27283   3.260  13.306  16.535  0.0625 -0.0902  0.0524
 9080W        W27284  12.704   9.671  12.324  0.1204  0.1039  0.0137
 9081W        W27285   0.136   0.619  17.151  0.0109  0.2465 -0.0008
 9082W        W27286   8.563  10.277   3.695  0.1349 -0.0387 -0.0141
 9083W        W27287  17.092  13.052  12.479  0.0721 -0.1805  0.1210
 9084W        W27288   6.074  14.272  12.902  0.3039 -0.0653 -0.1310
 9085W        W27289   2.388  12.489   1.940  0.1224 -0.3358  0.0329
 9086W        W27290   8.300   3.514   3.357 -0.0928  0.0266  0.2632
 9087W        W27291  14.280  12.367  12.672  0.0956  0.1803  0.0479
 9088W        W27292   4.752  11.115   3.546  0.1803  0.0503 -0.1890
 9089W        W27293  15.004   1.445  12.894 -0.0950  0.1577 -0.0484
 9090W        W27294   1.151  11.000   2.816  0.1430  0.1307  0.1938
 9091W        W27295   9.054   3.309  17.330 -0.0762 -0.1422 -0.0400
 9092W        W27296   9.040  10.336  16.650 -0.0378  0.1042  0.2326
 9093W        W27297  12.683  15.777   4.934  0.0276 -0.2224  0.1882
 9094W        W27298   2.198   6.471   4.755  0.0442 -0.0553 -0.0806
 9095W        W27299   2.487   7.370  15.637 -0.0488 -0.1613 -0.0450
 9096W        W27300   7.786   1.369   4.120 -0.1176 -0.0025 -0.0923
 9097W        W27301  13.344  13.883  14.507 -0.0080 -0.0157 -0.0634
 9098W        W27302  13.282   0.475   4.136  0.1927  0.2330  0.0978
 9099W        W27303   8.088   4.692  17.428 -0.1153  0.0867 -0.2209
 9100W        W27304  16.252   6.273   2.698 -0.1308  0.0909  0.2204
 9101W        W27305   2.707  14.449  16.615  0.0807  0.2284 -0.0182
 9102W        W27306   8.042   6.871  15.087 -0.2210  0.0335 -0.0318
 9103W        W27307   1.850  11.744   3.121  0.3479 -0.3455  0.1041
 9104W        W27308   2.902   7.765   0.582  0.0721 -0.2698 -0.1125
 9105W        W27309  15.601  15.607  17.137 -0.3112  0.4378  0.2144
 9106W        W27310   5.271  15.897  16.088 -0.1000  0.1315 -0.1064
 9107W        W27311   9.514  10.800  13.665 -0.3083 -0.1288 -0.0451
 9108W        W27312   8.075   4.418   1.654 -0.0738  0.4736 -0.1029
 9109W        W27313   3.277  17.104  13.597 -0.0296  0.2420  0.0844
 9110W        W27314   7.441  16.176   3.148  0.0895  0.3940 -0.0156
 9111W        W27315   1.565   9.865   5.764  0.1085  0.0551  0.3457
 9112W        W27316  13.970   4.803   4.325 -0.0079  0.2731  0.1073
 9113W        W27317   5.886   1.302  14.199  0.0710 -0.1257  0.0874
 9114W        W27318  16.986  14.257  14.600  0.0606 -0.0987 -0.2280
 9115W        W27319  15.797  13.168   0.987  0.0312  0.0913  0.1775
 9116W        W27320  10.444  13.811  13.004  0.0221  0.1524  0.0956
 9117W        W27321   2.909   7.664   1.405 -0.1768  0.2729  0.2633
 9118W        W27322   4.445  15.749  15.118 -0.3406 -0.3054  0.1572
 9119W        W27323  15.000   3.117   2.401  0.1012 -0.0900 -0.1222
 9120W        W27324   6.613  13.063   4.865  0.1617  0.0246  0.0572
 9121W        W27325   6.263   6.806  13.871 -0.2035 -0.0720 -0.3112
 9122W        W27326  12.013  11.658   1.774 -0.0255  0.4566  0.1757
 9123W        W27327   9.236   1.906  16.825  0.0189 -0.0170  0.1063
 9124W        W27328   0.155   7.474   4.415  0.0596 -0.1647 -0.0081
 9125W        W27329   5.565  16.646   2.860 -0.1095  0.2747 -0.0361
 9126W        W27330   7.487  11.212   0.861  0.0449  0.1519 -0.0126
 9127W        W27331   3.372   1.783  13.765 -0.1821 -0.1570  0.1251
 9128W        W27332   6.879   8.741  15.089 -0.0600  0.0241 -0.1276
 9129W        W27333  10.948   8.949   0.345 -0.0974 -0.0441  0.0148
 9130W        W27334   6.050  16.036   0.697  0.1593 -0.0660  0.0182
 9131W        W27335  10.208   2.069  12.322  0.3133 -0.0588 -0.2632
 9132W        W27336   6.692   6.038  12.197 -0.2391 -0.0099 -0.2950
 9133W        W27337   0.416  13.393   2.711 -0.0732 -0.1773 -0.2604
 9134W        W27338   7.898  11.346  14.647  0.0642  0.1330  0.1237
 9135W        W27339   8.639  15.126  14.098  0.0002 -0.0794 -0.0880
 9136W        W27340  15.613   7.377   1.547  0.2428  0.2033 -0.2644
 9137W        W27341   9.394  16.944  17.393  0.0870 -0.0634 -0.1018
 9138W        W27342  13.435  10.278   5.587  0.3839  0.0348 -0.0236
 9139W        W27343   0.225  15.037  14.413 -0.0577 -0.1083  0.0543
 9140W        W27344   6.737   0.607   6.220 -0.0761  0.1984  0.0448
 9141W        W27345   8.248   5.658  14.255  0.2377 -0.0447  0.2534
 9142W        W27346   0.825   4.803   4.013 -0.0406 -0.1854  0.1721
 9143W        W27347  16.807  16.248   2.679 -0.2945 -0.0410 -0.1975
 9144W        W27348  14.117  17.092  17.010 -0.0393  0.1003 -0.0632
 9145W        W27349   9.900   5.878  17.084  0.0121  0.1306  0.0808
 9146W        W27350  11.680   2.422  15.162  0.0685 -0.0619  0.0308
 9147W        W27351  11.932  16.751   3.445 -0.2562 -0.2277 -0.0559
 9148W        W27352  11.754   8.030  13.544  0.0392 -0.1077 -0.0264
 9149W        W27353   8.143   7.825  13.375 -0.1732  0.0004 -0.1402
 9150W        W27354  13.756  11.359   3.987  0.0305  0.0169 -0.1115
 9151W        W27355  16.004  16.462  15.754  0.2236  0.0359  0.0676
 9152W        W27356   0.266  13.263   5.064 -0.0001 -0.1486 -0.1640
 9153W        W27357  13.340   7.107  12.242  0.1344  0.0306 -0.1635
 9154W        W27358  10.468   3.341   4.868  0.0580  0.0807 -0.0589
 9155W        W27359   2.904  16.950   1.523  0.0736  0.2479 -0.1420
 9156W        W27360  13.322   3.126   2.828  0.1941  0.0036  0.1077
 9157W        W27361  15.798   1.674  13.980 -0.1357 -0.0293 -0.0132
 9158W        W27362  10.591  14.873  15.850 -0.0529 -0.2100 -0.1925
 9159W        W27363   3.784   4.082  11.713 -0.0626 -0.2508 -0.0531
 9160W        W27364  16.136  12.025   2.929 -0.0526 -0.1261  0.0434
 9161W        W27365  15.858  15.416   2.458 -0.1069  0.0572  0.3111
 9162W        W27366   1.321   7.827  14.417  0.2082  0.0375 -0.0021
 9163W        W27367   6.684   7.159  17.034 -0.1789 -0.1628 -0.1955
 9164W        W27368   4.547  14.961  16.655 -0.2172 -0.2611  0.2091
 9165W        W27369  11.078   0.657   3.625 -0.5282  0.0270  0.1439
 9166W        W27370  14.273   9.813   1.892 -0.0202 -0.2121  0.0649
 9167W        W27371  16.328   9.805   3.386  0.0331 -0.3419 -0.3031
 9168W        W27372   7.844   0.786   2.057 -0.0718 -0.0161 -0.0098
 9169W        W27373   9.280   8.748  13.596 -0.0561  0.5550 -0.0504
 9170W        W27374  16.306   3.786   4.133 -0.3562  0.0869  0.0621
 9171W        W27375   5.714   0.690   5.210 -0.2121 -0.0948  0.1924
 9172W        W27376   6.800  10.278  13.916  0.0045  0.0187  0.0157
 9173W        W27377  14.240  14.602  15.356  0.2139  0.1940  0.2105
 9174W        W27378  12.220   6.434   2.335  0.3334  0.2224 -0.0186
 9175W        W27379   7.753   2.135   0.882 -0.0175  0.3174 -0.0215
 9176W        W27380  13.327  16.072   1.358 -0.2082 -0.0931 -0.0087
 9177W        W27381   2.262   2.032  12.722  0.0341  0.0671  0.1659
 9178W        W27382   1.914   6.868  17.421 -0.0126  0.3955 -0.1328
 9179W        W27383  12.462   6.827   2.146  0.2468 -0.0016  0.3610
 9180W        W27384  15.730   4.175  12.769  0.0737  0.1244 -0.3598
 9181W        W27385  12.528  13.106   2.030  0.2146  0.2798  0.2474
 9182W        W27386   4.186   1.347  14.874  0.4854  0.2195 -0.0076
 9183W        W27387   8.090   4.275  17.084 -0.0178 -0.3376 -0.0691
 9184W        W27388  15.251  10.638   1.292 -0.2916 -0.1716  0.1737
 9185W        W27389  11.464   2.456   4.066 -0.0303 -0.1835  0.3280
 9186W        W27390  13.345   7.665   1.616  0.0231  0.2499 -0.0281
 9187W        W27391   0.262  14.996   1.822  0.2717  0.2851  0.3213
 9188W        W27392  12.696  17.236  15.150  0.0358 -0.0485 -0.0237
 9189W        W27393   6.136  14.150   1.058  0.0895 -0.1652  0.1976
 9190W        W27394  16.502  13.345  16.089 -0.0554  0.1665 -0.1242
 9191W        W27395   9.798   0.574   5.847 -0.1123 -0.2093 -0.4413
 9192W        W27396   0.511  11.456  14.940 -0.0748  0.1372  0.2234
 9193W        W27397  14.171   6.460   4.227  0.1079 -0.1794  0.1385
 9194W        W27398   9.917  10.871   5.342  0.1792 -0.1872 -0.1037
 9195W        W27399   0.395   7.088  17.349  0.0826  0.3451 -0.4523
 9196W        W27400   1.155  12.807  13.399 -0.0246  0.0858 -0.3890
 9197W        W27401   3.644  13.738   5.251 -0.1922  0.0920 -0.2799
 9198W        W27402   9.158  14.289   2.479  0.1676  0.0767 -0.1420
 9199W        W27403   6.989   0.832   4.405 -0.0545 -0.2236 -0.2195
 9200W        W27404  13.630  10.398   1.632  0.0170 -0.2884 -0.2036
 9201W        W27405   6.605  11.070  17.425  0.0161  0.2946 -0.1864
 9202W        W27406   6.827  14.693   0.365  0.0761  0.0905  0.0985
 9203W        W27407   1.140  15.806   0.720 -0.0740 -0.1076  0.1675
 9204W        W27408   9.250  15.631   3.848 -0.0904  0.1411  0.2135
 9205W        W27409   8.910  11.814  13.046  0.2953  0.2305 -0.1067
 9206W        W27410  11.487   4.855  11.559  0.0389  0.0638 -0.0798
 9207W        W27411   4.219  10.643  12.306  0.1866 -0.1473  0.0087
 9208W        W27412   5.421  15.485   0.875 -0.2291 -0.1510 -0.0747
 9209W        W27413  12.630   6.636   0.604 -0.1591 -0.0736  0.0296
 9210W        W27414  16.772  12.834  16.918 -0.2234 -0.0450  0.0457
 9211W        W27415   8.800  10.561   3.261 -0.0440 -0.0037 -0.0097
 9212W        W27416   6.907   7.747  15.502  0.1224  0.1407 -0.0376
 9213W        W27417   6.842   6.719   5.233  0.0996 -0.2387 -0.1100
 9214W        W27418  13.858  16.009   4.886  0.0150 -0.2866  0.3747
 9215W        W27419  10.398  14.587   2.710  0.3559 -0.0353  0.2290
 9216W        W27420  10.117  12.614  12.899  0.0511  0.2974  0.1609
 9217W        W27421  15.624  11.465  13.565 -0.0075  0.0473 -0.2541
 9218W        W27422   6.910   7.710   4.456  0.0614  0.4339  0.0313
 9219W        W27423   2.834   9.767   1.781 -0.0661 -0.0623 -0.1208
 9220W        W27424   8.314   2.475   2.246 -0.1497 -0.1994 -0.0934
 9221W        W27425   1.355   2.227   4.299 -0.3407  0.0419 -0.2346
 9222W        W27426   1.999   0.207  16.769  0.1967  0.0306  0.2077
 9223W        W27427   6.178  14.487   1.948 -0.0667  0.0130 -0.1983
 9224W        W27428   0.215  11.069  14.946  0.1280 -0.1198 -0.2729
 9225W        W27429   6.810  12.262  14.373  0.1017  0.1494  0.0869
 9226W        W27430   7.717  15.659  15.688 -0.2562  0.1242  0.0690
 9227W        W27431   1.622  12.591   0.247 -0.1563  0.1406 -0.3640
 9228W        W27432   2.067  14.183   5.795  0.0026  0.2497 -0.0022
 9229W        W27433   4.277   5.539   4.843 -0.2702 -0.2615  0.1652
 9230W        W27434   2.003   7.273   0.417  0.1616  0.2075  0.0524
 9231W        W27435   6.499  16.338   5.262 -0.3212 -0.5225 -0.1329
 9232W        W27436   0.617   9.659   3.326  0.1174  0.0699  0.0097
 9233W        W27437   9.449   6.490   0.796  0.0878  0.3538 -0.2687
 9234W        W27438   3.397   3.910  12.264 -0.0920  0.0583  0.2886
 9235W        W27439  13.199   6.806   3.297 -0.1739 -0.0269  0.2806
 9236W        W27440  13.105   4.802  16.914 -0.0376 -0.2694  0.0522
 9237W        W27441  11.891   2.304   2.355 -0.0142 -0.1727  0.2061
 9238W        W27442  11.075  10.328   5.145  0.0721 -0.0581  0.1410
 9239W        W27443  13.796  12.577  14.532 -0.0911 -0.1430 -0.3190
 9240W        W27444   1.720   9.427  17.114  0.1844  0.2255 -0.0262
 9241W        W27445   9.041  10.053  14.898 -0.1916 -0.1533 -0.1036
 9242W        W27446  13.612   5.987  14.785 -0.0327  0.0662  0.0223
 9243W        W27447   9.643   9.754   5.162  0.0208  0.1193 -0.4625
 9244W        W27448  10.324   4.795  13.954  0.5634  0.3576 -0.3319
 9245W        W27449  10.010   1.348  15.883 -0.4348 -0.2317 -0.2050
 9246W        W27450  17.171   1.810   0.215  0.2213 -0.1270  0.2343
 9247W        W27451   7.063   2.187  15.242 -0.0142 -0.0701 -0.3620
 9248W        W27452  14.705   9.528  14.507 -0.0266  0.0710 -0.0831
 9249W        W27453   1.854  14.590  17.015 -0.0762 -0.0112  0.1512
 9250W        W27454   9.176  12.442   4.158  0.3674 -0.3287 -0.0914
 9251W        W27455   1.207  12.265   5.381 -0.1707  0.1410 -0.1648
 9252W        W27456  11.950  10.082   4.370  0.2178 -0.2087  0.1512
 9253W        W27457   1.636   9.651   4.344 -0.0589  0.1112 -0.1477
 9254W        W27458  16.100   9.766   1.174  0.1056  0.1746  0.0188
 9255W        W27459  15.123  17.264  14.966 -0.1482 -0.1797  0.0243
 9256W        W27460  12.647  13.489   1.147  0.3225  0.5245  0.0698
 9257W        W27461  13.060   5.041   1.953 -0.0330 -0.1202 -0.0036
 9258W        W27462   4.721   7.879  14.375  0.0259 -0.0083  0.1294
 9259W        W27463   3.281   1.405   2.362  0.2858  0.1364 -0.2166
 9260W        W27464  13.878  15.290   0.811  0.3025 -0.0863  0.1859
 9261W        W27465   0.647   0.326   2.691 -0.0434 -0.2440  0.1751
 9262W        W27466  11.536   0.707  11.292 -0.2675 -0.1631  0.0284
 9263W        W27467   8.085   5.944  13.132 -0.0288 -0.0909  0.0258
 9264W        W27468   7.624   1.021  16.278  0.2347 -0.0143  0.1078
 9265W        W27469  14.313   8.472   5.034 -0.1098  0.0820 -0.0592
 9266W        W27470   8.625   3.185  15.765 -0.1114 -0.0264 -0.1510
 9267W        W27471   2.964   3.687   0.690 -0.1461 -0.1705  0.0910
 9268W        W27472   7.359   8.578   0.692 -0.0727 -0.0397 -0.1738
 9269W        W27473  15.046   0.424   5.099  0.1706  0.1354 -0.2441
 9270W        W27474  10.976  13.401   2.527  0.0762  0.0441 -0.1446
 9271W        W27475   6.336   9.980  17.137 -0.0662  0.0804  0.0930
 9272W        W27476  11.690   1.340   2.431  0.0848 -0.2806 -0.1022
 9273W        W27477   2.223  15.239   3.304 -0.0715 -0.1491  0.2971
 9274W        W27478  13.268  15.083   5.233 -0.3539  0.2051  0.2852
 9275W        W27479  13.595   9.714  13.912 -0.4140 -0.0727 -0.0292
 9276W        W27480  16.685  16.411   4.826 -0.0881  0.1837  0.0941
 9277W        W27481  14.628   7.706   4.693  0.1775  0.0721  0.1678
 9278W        W27482   7.506  14.265   5.247 -0.0862 -0.0864 -0.0757
 9279W        W27483   6.533   3.449  12.245 -0.0713 -0.0573  0.0386
 9280W        W27484  15.773   6.014   2.637 -0.0266 -0.0623  0.0684
 9281W        W27485   5.500   3.589  12.228  0.0852 -0.1952  0.4730
 9282W        W27486   1.913   4.310   4.171  0.0554  0.0508  0.0486
 9283W        W27487   9.324  10.900  12.709 -0.1536 -0.3486 -0.4670
 9284W        W27488  15.651  15.904  14.483 -0.1820  0.0290 -0.1416
 9285W        W27489  11.254  16.628   4.987 -0.3554  0.1030  0.0736
 9286W        W27490  15.014   7.366  14.579 -0.0601 -0.2714  0.3254
 9287W        W27491   2.107  10.292   1.698 -0.0672 -0.0056  0.0196
 9288W        W27492   2.757   0.945  16.086 -0.0155 -0.2810 -0.3302
 9289W        W27493  14.655  16.675   2.789  0.0509 -0.4005 -0.0262
 9290W        W27494  12.678  14.607  14.956 -0.0408  0.2471 -0.0789
 9291W        W27495  14.463   7.508   5.453  0.0155  0.0728  0.0373
 9292W        W27496   4.941  11.922  14.184  0.3432 -0.1098 -0.1266
 9293W        W27497   2.247  13.282   4.233  0.0729 -0.0648  0.2921
 9294W        W27498   0.079   1.441  17.476  0.4200 -0.0781  0.2311
 9295W        W27499   9.510  14.123  16.842  0.2724 -0.1592  0.0401
 9296W        W27500   4.314  14.916   4.293 -0.1463 -0.3043  0.0133
 9297W        W27501  17.207  12.992   4.187 -0.0625  0.0015  0.0911
 9298W        W27502   4.643   1.233  13.172  0.1351 -0.0609 -0.2173
 9299W        W27503  11.208   6.231  16.529  0.0656  0.3620  0.0400
 9300W        W27504  12.592  10.595   4.926  0.0704 -0.0204 -0.1764
 9301W        W27505   0.058  12.050  13.902  0.0506  0.0097  0.0403
 9302W        W27506   7.064   5.386  14.971  0.0841 -0.1798 -0.0801
 9303W        W27507   6.990   2.161   3.063 -0.2777 -0.1399 -0.0344
 9304W        W27508  14.228  10.352   2.924 -0.1700 -0.2283  0.0823
 9305W        W27509   8.731  15.172   0.038 -0.0737 -0.0162 -0.0882
 9306W        W27510   5.241   0.497  11.865  0.2692  0.3805  0.2179
 9307W        W27511  16.712  16.088   1.841  0.1409 -0.1915  0.2567
 9308W        W27512  11.363   6.260   2.255 -0.2291  0.0425  0.4160
 9309W        W27513  16.426  14.660  15.333 -0.1534 -0.1215 -0.3217
 9310W        W27514  13.813  10.148   1.094  0.0431 -0.0387  0.1185
 9311W        W27515  17.143  14.174  17.270  0.0632 -0.2814  0.1827
 9312W        W27516   3.734   3.004  12.623  0.0848  0.2295  0.0907
 9313W        W27517  16.561  10.428  14.048  0.2834  0.2918  0.1741
 9314W        W27518  16.067   4.832   4.334 -0.4206  0.0287  0.0514
 9315W        W27519  14.007  11.309   3.524 -0.0825  0.1055 -0.1678
 9316W        W27520   7.501   1.839  12.192 -0.0755  0.0991  0.0507
 9317W        W27521   2.534  13.508  17.269  0.1147 -0.2993 -0.1916
 9318W        W27522   4.500   0.828   2.560 -0.1451  0.1093  0.0780
 9319W        W27523   8.233   9.380  13.151 -0.3262 -0.0652  0.0605
 9320W        W27524   2.410  13.156  16.900  0.2753  0.3096 -0.0069
 9321W        W27525  16.180   4.241   1.587  0.0883 -0.1210  0.1017
 9322W        W27526   0.013   7.999  14.181 -0.4055 -0.0198  0.1082
 9323W        W27527   9.526   5.983  16.789 -0.0000 -0.2254 -0.0920
 9324W        W27528   6.090   6.087   4.895  0.0140  0.1344  0.1266
 9325W        W27529   0.637  10.848   3.796 -0.0774  0.1891  0.1325
 9326W        W27530   3.810   4.460   0.760 -0.0758 -0.1641 -0.1375
 9327W        W27531   0.435   5.563   5.237  0.1028 -0.2394 -0.1495
 9328W        W27532  10.659   8.384   4.143  0.0879 -0.0830 -0.1933
 9329W        W27533  11.091  14.841   6.203 -0.3060  0.0276 -0.0684
 9330W        W27534   6.521  11.724   2.898  0.2572 -0.2261  0.1129
 9331W        W27535  10.728   6.719   5.361 -0.0584  0.1981  0.2614
 9332W        W27536  13.421   6.347   0.601  0.1550  0.3134 -0.2735
 9333W        W27537   7.792   2.270   2.390  0.3522 -0.1744  0.1196
 9334W        W27538  16.385   2.809   3.968  0.1767  0.1191 -0.2056
 9335W        W27539  15.205   0.889  14.142  0.2110 -0.1164 -0.0719
 9336W        W27540   2.550   3.245   0.081 -0.1463  0.0083 -0.1112
 9337W        W27541   5.293  13.896   4.872  0.1678  0.0483 -0.1138
 9338W        W27542  16.986  16.783   4.765 -0.0211  0.0817 -0.0128
 9339W        W27543  14.726  14.908   0.813 -0.1201 -0.2510  0.1354
 9340W        W27544   0.249   8.770  13.738 -0.1394 -0.1758 -0.1069
 9341W        W27545   3.997   1.952   0.574  0.1616 -0.1740 -0.1134
 9342W        W27546  14.966   3.064  13.927 -0.0154  0.1417 -0.3646
 9343W        W27547  13.207  14.843   2.682  0.0535  0.1072 -0.4099
 9344W        W27548   3.657   9.069   4.780 -0.0966  0.1870 -0.1469
 9345W        W27549  13.688   2.673   3.617  0.0397  0.1380  0.2579
 9346W        W27550  13.024   5.283  14.787  0.0546  0.3558  0.0204
 9347W        W27551   8.508   0.013   4.105 -0.0289  0.0655 -0.2226
 9348W        W27552   3.621  12.309   2.861 -0.2068 -0.0546  0.2973
 9349W        W27553   0.261  15.603   0.405  0.0007 -0.0570 -0.0056
 9350W        W27554  15.468   7.270   3.368  0.3118  0.3914  0.0212
 9351W        W27555  11.542   2.541   0.108 -0.2519  0.2065 -0.3138
 9352W        W27556   5.498  15.068  14.508 -0.0600  0.0362  0.0372
 9353W        W27557   4.252  10.010  15.503  0.1357  0.0753  0.0885
 9354W        W27558  11.954  13.601  12.195 -0.3135 -0.1572  0.4785
 9355W        W27559   4.051  11.436  12.657 -0.1426  0.2042 -0.0176
 9356W        W27560  16.273   5.802   5.426  0.0026 -0.3803 -0.2138
 9357W        W27561  10.831   1.058   4.859  0.2500 -0.1026  0.0173
 9358W        W27562  15.902   0.742   2.300 -0.0793 -0.0125 -0.3040
 9359W        W27563   1.610   7.602   0.563  0.1852  0.0084 -0.0233
 9360W        W27564  13.529   6.418   5.489  0.1114 -0.2568 -0.0257
 9361W        W27565   7.659   5.075   1.389  0.2173 -0.1524 -0.0044
 9362W        W27566   8.174  10.650  17.210 -0.2323  0.2124  0.0772
 9363W        W27567  13.587  15.838  15.654  0.0547  0.0804 -0.0831
 9364W        W27568   2.197   3.594   3.328 -0.0419  0.2179  0.2810
 9365W        W27569  16.103   9.298  14.136  0.1429  0.0673 -0.1693
 9366W        W27570  16.314  16.793  14.600  0.0627  0.6605 -0.0497
 9367W        W27571  17.038   6.744  16.524  0.2241  0.1586  0.0270
 9368W        W27572   1.904  14.595  13.452  0.0649 -0.2566 -0.1531
 9369W        W27573  13.209   5.294  12.547  0.2040  0.1875  0.0707
 9370W        W27574  17.219   4.232   4.920 -0.0409 -0.1084 -0.1366
 9371W        W27575   1.230   3.660  12.323 -0.1111  0.2036  0.0259
 9372W        W27576  13.809  12.133   5.729  0.1607  0.1731  0.1815
 9373W        W27577   1.838   5.570   0.390  0.4255 -0.4057  0.1184
 9374W        W27578   1.998   5.467  15.305  0.1274  0.0779 -0.1409
 9375W        W27579   8.733  10.188  12.318  0.1208 -0.0061  0.1809
 9376W        W27580   4.662  15.655   2.290 -0.1357 -0.1171  0.5320
 9377W        W27581   2.867   5.655   1.789 -0.0204 -0.2778  0.0348
 9378W        W27582   3.283  17.117   1.230  0.0792 -0.2817 -0.0521
 9379W        W27583  10.970  11.229  17.389 -0.2116 -0.0915  0.0606
 9380W        W27584   8.385   9.248   4.103 -0.1968 -0.0242  0.0217
 9381W        W27585  10.424   0.434  14.723 -0.0516  0.1279  0.1250
 9382W        W27586  12.548   1.356   4.070 -0.1272 -0.1965 -0.1594
 9383W        W27587   5.160  13.527  16.228 -0.4229  0.1851  0.1984
 9384W        W27588   9.903  16.822  15.268 -0.0395 -0.0562  0.0400
 9385W        W27589  16.803   4.745  16.711  0.0705  0.1470 -0.2220
 9386W        W27590  10.473  12.060  12.657 -0.0873 -0.1483  0.0296
 9387W        W27591  13.158  10.938   0.125  0.2444  0.1224  0.1049
 9388W        W27592  14.066   9.045   0.646  0.3739  0.0702  0.0449
 9389W        W27593  12.038  16.180  16.082  0.0389  0.1212 -0.0416
 9390W        W27594  11.608   9.824  12.133 -0.1892  0.1349 -0.1104
 9391W        W27595  11.048   9.079   5.587 -0.0031 -0.1355  0.3211
 9392W        W27596   5.363  10.195   5.284 -0.2504  0.0655  0.4854
 9393W        W27597  10.425   0.240   0.837  0.2786  0.2196 -0.2294
 9394W        W27598   8.563   4.545  13.631  0.1371  0.4316 -0.0042
 9395W        W27599   2.368   9.625   1.089 -0.3495  0.2844  0.0201
 9396W        W27600   6.913   3.943   2.255 -0.0566 -0.0551  0.2868
 9397W        W27601   9.266  12.046   3.890 -0.0870  0.1883  0.2063
 9398W        W27602  15.619  14.146   2.032  0.2295 -0.0498 -0.1701
 9399W        W27603   0.799  12.305  15.282  0.0108 -0.2770  0.0070
 9400W        W27604   5.219   0.242   1.648  0.3770 -0.0544  0.0740
 9401W        W27605   9.334   8.849   2.872  0.0420 -0.0523 -0.0247
 9402W        W27606  11.212   4.044   1.497  0.0259  0.2998 -0.0363
 9403W        W27607   4.118  12.323  12.253 -0.1329 -0.1602 -0.1071
 9404W        W27608  16.696  13.449  15.646  0.4078  0.0874 -0.1467
 9405W        W27609   8.256   6.256  15.307 -0.0786 -0.2463 -0.3700
 9406W        W27610   4.873  13.476  17.219  0.1431  0.0764 -0.1304
 9407W        W27611  11.514   5.106   2.132  0.0668  0.2752 -0.2075
 9408W        W27612  15.281  15.926   0.910 -0.0962  0.0728 -0.1798
 9409W        W27613   5.644   7.280   4.983  0.2529  0.0944  0.3875
 9410W        W27614   8.861  15.945  15.541  0.2489  0.0696 -0.0254
 9411W        W27615  11.634  16.876  15.085 -0.0010  0.0316  0.1252
 9412W        W27616  12.253   5.154  12.889  0.0879  0.1745  0.2403
 9413W        W27617   5.847   8.140  13.759 -0.0761  0.0531 -0.0490
 9414W        W27618  15.276   2.895  17.276  0.0140  0.0527  0.1895
 9415W        W27619  10.038   3.055  16.675  0.1958 -0.0812 -0.2708
 9416W        W27620   1.198   6.520   1.249  0.4386 -0.1584 -0.5803
 9417W        W27621   9.506  13.979   3.698 -0.1390 -0.2564 -0.4780
 9418W        W27622  15.048   1.064   1.278  0.0302 -0.0593 -0.1216
 9419W        W27623   9.137   5.989   2.595 -0.0995  0.0121 -0.2511
 9420W        W27624  13.121   3.936   0.592 -0.0484 -0.0632  0.0891
 9421W        W27625   3.992   3.895  17.160 -0.1116  0.1614  0.2048
 9422W        W27626  12.668   5.735  14.637  0.0935  0.1480  0.0836
 9423W        W27627  15.816  15.312  13.787  0.1366  0.5820  0.1723
 9424W        W27628   5.545  15.454  15.924 -0.2823  0.0925  0.0165
 9425W        W27629   9.421  10.337  13.545 -0.1206  0.1626 -0.0406
 9426W        W27630   5.215  10.312  14.856 -0.1354  0.0828 -0.1846
 9427W        W27631  12.104   2.161   0.956  0.1674 -0.0920  0.0045
 9428W        W27632   3.704   3.337   4.825 -0.0376 -0.0880 -0.3266
 9429W        W27633  13.755  15.878   5.350 -0.1636 -0.1757 -0.4063
 9430W        W27634  13.877  14.668  13.349  0.0136  0.0304 -0.3464
 9431W        W27635  15.219  17.075  17.312  0.2151 -0.1673  0.0521
 9432W        W27636   7.308   0.876   3.591 -0.1422 -0.0718 -0.0607
 9433W        W27637   8.739  16.022   4.437 -0.0141  0.0968 -0.0724
 9434W        W27638   5.222  10.434  13.466 -0.0447 -0.0606  0.0642
 9435W        W27639   1.737   1.808  14.192 -0.0561  0.0801  0.1645
 9436W        W27640  16.764   3.357  15.720 -0.3293 -0.2010  0.3117
 9437W        W27641   8.802  15.513   2.817  0.1230  0.1782  0.1317
 9438W        W27642  11.580   9.981   0.401  0.0961  0.1411  0.0039
 9439W        W27643  14.686  10.576   0.504 -0.2653  0.3555  0.1464
 9440W        W27644   2.360   6.444  12.897  0.3079  0.0220 -0.2603
 9441W        W27645   0.762  16.307  15.440  0.0394 -0.0403  0.0556
 9442W        W27646   3.200   0.173  13.137 -0.0381 -0.4924 -0.0744
 9443W        W27647   1.725  14.310  11.887  0.0355 -0.1132 -0.0476
 9444W        W27648   6.655   9.103  14.370  0.3141  0.1212 -0.0420
 9445W        W27649   8.620   2.875   2.040  0.5027  0.1193 -0.0156
 9446W        W27650   9.898  10.279   3.201 -0.0249 -0.0609 -0.0184
 9447W        W27651   3.896  14.431  11.651 -0.1369 -0.0424 -0.0497
 9448W        W27652   4.168  14.758   0.877 -0.0611 -0.2597  0.0711
 9449W        W27653   3.427   6.350  11.956  0.0617 -0.0404  0.0812
 9450W        W27654   6.966   7.901   2.778  0.1153 -0.2627  0.0129
 9451W        W27655   9.312   9.652  15.731 -0.0139 -0.3462  0.2650
 9452W        W27656   9.849   8.520   3.503 -0.0948  0.3348 -0.2092
 9453W        W27657   5.225   6.247  12.480 -0.2399  0.3198  0.2961
 9454W        W27658   4.912  16.156  13.512  0.3159  0.2247  0.2855
 9455W        W27659  14.842   9.067  15.002 -0.2229  0.2679 -0.1719
 9456W        W27660   1.879   3.174   3.548  0.0391  0.0675 -0.2498
 9457W        W27661   4.156   5.466   0.513  0.0236 -0.1538 -0.1464
 9458W        W27662   4.156   3.875   4.808  0.2174  0.1410  0.0243
 9459W        W27663  14.639   0.297   0.971  0.1282 -0.2862 -0.1927
 9460W        W27664   4.643  13.229   4.900  0.0804  0.1013  0.0103
 9461W        W27665  12.516   5.714  16.483  0.0556 -0.1247 -0.1015
 9462W        W27666   2.153   0.728   4.177 -0.2774 -0.0734  0.0531
 9463W        W27667  14.753  10.920   4.751 -0.1098 -0.3025 -0.2472
 9464W        W27668  16.858  10.227  15.394  0.0053  0.1606 -0.1547
 9465W        W27669   1.822   1.261  15.299  0.1831  0.0218 -0.1795
 9466W        W27670   7.628   2.373  15.758  0.2491  0.0248  0.2581
 9467W        W27671   5.549   4.938  17.282 -0.2296 -0.1422  0.0155
 9468W        W27672   6.454   8.397   1.011 -0.1242 -0.2889  0.0496
 9469W        W27673  10.859   3.695   3.514  0.0840 -0.0304 -0.0382
 9470W        W27674  15.149   8.471  13.592 -0.2196 -0.0438 -0.3263
 9471W        W27675   6.606   9.530  17.065 -0.1581  0.2522  0.2554
 9472W        W27676  12.835  10.355  13.049 -0.4380 -0.0740 -0.1143
 9473W        W27677   0.890  14.565   3.534 -0.0548  0.1187  0.2070
 9474W        W27678   3.597   8.067   2.268 -0.2961  0.2589 -0.1589
 9475W        W27679   7.115   2.335  12.923 -0.2450 -0.1728 -0.3466
 9476W        W27680   1.758  14.106  16.881  0.0588 -0.0725 -0.2333
 9477W        W27681   1.901  16.252  13.184 -0.1388 -0.2769 -0.0583
 9478W        W27682   3.981  13.076   5.420  0.2335  0.1286 -0.2462
 9479W        W27683  12.434   2.039   4.854  0.0664  0.0993 -0.1927
 9480W        W27684  13.905   3.913  14.381 -0.0473  0.0846  0.0658
 9481W        W27685   1.174   0.770   0.360 -0.0208 -0.3267  0.1271
 9482W        W27686   4.640  14.733  15.569  0.2312 -0.0609  0.2614
 9483W        W27687  11.839  12.613   4.927 -0.1432 -0.0920  0.0647
 9484W        W27688  14.478   3.114   4.717 -0.0539 -0.2118  0.1603
 9485W        W27689   8.073   0.120   5.169  0.0717  0.0575 -0.0171
 9486W        W27690   0.637  10.514  14.168  0.1112 -0.1882  0.0435
 9487W        W27691   7.289   9.652   1.866  0.0935  0.2855 -0.0420
 9488W        W27692  11.177  15.710   2.533  0.1287  0.1422  0.1554
 9489W        W27693   9.157   3.352   4.426  0.0106 -0.0889  0.2125
 9490W        W27694  12.745   3.447  16.802  0.4284  0.0066 -0.1581
 9491W        W27695  15.154  12.590  12.996 -0.1172  0.0184  0.2792
 9492W        W27696   7.879   0.225  13.972 -0.1025  0.0411 -0.1193
 9493W        W27697   3.258  12.631  13.019  0.0030  0.0356 -0.0052
 9494W        W27698   1.669   4.568  16.939  0.1427  0.0389 -0.0941
 9495W        W27699   0.637  14.382  16.224  0.0246 -0.1675 -0.0722
 9496W        W27700   6.861   3.319  15.039 -0.0934 -0.3576  0.0036
 9497W        W27701   6.151   6.552   5.108 -0.1395 -0.1224  0.2098
 9498W        W27702   1.371  11.446   1.626  0.0048  0.2335  0.1189
 9499W        W27703   0.485  12.598   4.890 -0.2331 -0.0967  0.1559
 9500W        W27704   6.802  16.637  13.562  0.1297  0.1037 -0.1201
 9501W        W27705  11.775   0.672  14.870 -0.1660 -0.0101 -0.1706
 9502W        W27706   3.264   3.980  13.498 -0.1001  0.1230 -0.4025
 9503W        W27707   9.715  14.742   1.230  0.0709  0.2464 -0.3285
 9504W        W27708   2.691  15.955   1.744 -0.0415  0.1713 -0.1550
 9505W        W27709  11.623  13.279   3.323 -0.0037  0.1555 -0.0162
 9506W        W27710  14.617   4.089   1.665  0.0833 -0.1642  0.1205
 9507W        W27711  10.107   9.930   0.351  0.2782  0.2285 -0.0936
 9508W        W27712   6.369   4.534  16.367  0.2541 -0.0076 -0.2147
 9509W        W27713   3.443   4.411  14.429  0.0846 -0.3089  0.1051
 9510W        W27714  16.034   9.653  12.517  0.2001 -0.3193  0.1230
 9511W        W27715  14.286  15.341   3.292 -0.1825  0.1804 -0.0843
 9512W        W27716  15.637  14.689   5.478  0.0188  0.1311 -0.0678
 9513W        W27717  12.465   1.590  13.751  0.1503 -0.1120 -0.3284
 9514W        W27718  10.632  13.101  11.345 -0.0133  0.0918 -0.2713
 9515W        W27719   1.032  15.385  15.510  0.0602 -0.0374  0.2333
 9516W        W27720  11.221   8.840   5.120 -0.1125 -0.0302 -0.2167
 9517W        W27721   9.995  15.771   4.677 -0.1250  0.1957  0.0144
 9518W        W27722   0.821   5.132  14.631  0.2069 -0.1195 -0.1771
 9519W        W27723   1.742  14.007   1.822  0.0114  0.3013  0.0457
 9520W        W27724  15.009  14.675   1.677 -0.0856 -0.3867  0.1670
 9521W        W27725   6.721   6.938  14.972 -0.3058  0.2586  0.0346
 9522W        W27726   4.486   5.710   1.767 -0.2266 -0.3680 -0.2148
 9523W        W27727  13.992  14.971  15.163  0.2772 -0.1360  0.1309
 9524W        W27728  13.237  16.532   4.128  0.3138  0.1042 -0.0549
 9525W        W27729  15.197  16.238   1.867 -0.4136  0.0132 -0.0615
 9526W        W27730  15.028  15.586   3.808 -0.0880 -0.1664  0.2738
 9527W        W27731  12.553   9.230  12.804  0.2085 -0.0047 -0.1644
 9528W        W27732   5.151   3.990  14.266 -0.3268  0.2806 -0.1210
 9529W        W27733  11.249  15.634   3.974 -0.1751  0.0557  0.2603
 9530W        W27734  11.969   0.323   5.362  0.1045 -0.1817  0.3136
 9531W        W27735  13.713   8.676   0.444  0.0599 -0.0240 -0.1240
 9532W        W27736  13.282   9.861  14.279 -0.2795 -0.0262  0.1417
 9533W        W27737  15.425  14.485  14.973  0.0147 -0.0465  0.1756
 9534W        W27738  10.838   8.452  14.235  0.0040  0.1329  0.0761
 9535W        W27739  11.095  13.871   1.669 -0.2669 -0.1454 -0.0948
 9536W        W27740  13.148  15.894  12.817 -0.1737 -0.0572  0.0057
 9537W        W27741  12.608   8.395  16.339 -0.1748  0.3186  0.0270
 9538W        W27742   6.930  16.728  14.499 -0.2975  0.1183 -0.0749
 9539W        W27743   1.851  11.199  12.775  0.3001 -0.3239  0.1268
 9540W        W27744   9.652  10.288  14.560  0.1817 -0.0510  0.0344
 9541W        W27745  15.502   8.728   0.165 -0.0646  0.3781  0.0746
 9542W        W27746  13.380   9.240  15.570  0.0344 -0.1025  0.2191
 9543W        W27747  16.181   0.349  17.120 -0.0932 -0.1710 -0.0027
 9544W        W27748   0.960  15.714   4.540 -0.0426 -0.1755 -0.1784
 9545W        W27749   6.522  10.885   2.960  0.0042 -0.3609  0.4901
 9546W        W27750   0.490  16.358   4.897  0.3941  0.1067 -0.1930
 9547W        W27751   5.084   6.600  12.779  0.0620  0.2145 -0.0964
 9548W        W27752  15.294   2.618  14.871 -0.3009  0.0457 -0.1544
 9549W        W27753   3.049   8.163   0.012  0.3422  0.1702 -0.0293
 9550W        W27754  13.108   3.248   0.758  0.1367  0.0977  0.1678
 9551W        W27755   7.424  10.672   2.526 -0.0122 -0.1531  0.1427
 9552W        W27756   5.495  11.455  14.345 -0.2359  0.2171  0.4020
 9553W        W27757   3.514  14.012  16.177 -0.0113  0.1512  0.0085
 9554W        W27758  12.074   1.179   2.907  0.0667  0.2492 -0.0166
 9555W        W27759  11.588  15.208  14.799 -0.2926 -0.1857  0.1064
 9556W        W27760   3.706  14.664  14.381 -0.0297  0.2848  0.2188
 9557W        W27761  11.823  12.185   2.795 -0.1156  0.4879  0.2894
 9558W        W27762  15.889  15.441  12.586 -0.4718 -0.0048 -0.1721
 9559W        W27763  16.871   6.177   4.688 -0.0132 -0.0748 -0.1043
 9560W        W27764   7.828   4.586  14.519 -0.1525 -0.2177  0.2245
 9561W        W27765  13.996  14.033  12.453  0.3067  0.0467 -0.0581
 9562W        W27766   4.488   9.058   4.766  0.0871  0.1303 -0.2663
 9563W        W27767  11.697  12.557  16.831  0.0235 -0.1330  0.1205
 9564W        W27768   0.514   1.084   1.055 -0.0779 -0.2015  0.0962
 9565W        W27769  11.774   9.577   5.097 -0.2064  0.1816  0.1586
 9566W        W27770   2.144   2.790  16.488  0.2041  0.0099 -0.0472
 9567W        W27771   1.966   1.125  13.223  0.1030  0.0378  0.0220
 9568W        W27772   4.793  15.071  13.305 -0.0449  0.1273  0.1789
 9569W        W27773  10.393  10.838  12.310 -0.1386  0.0176  0.1464
 9570W        W27774  17.283   5.314   3.858  0.1763 -0.0624 -0.2164
 9571W        W27775   4.141   9.259   2.158 -0.1838 -0.2066 -0.0849
 9572W        W27776  13.429   9.783   1.736  0.1460  0.0734  0.2317
 9573W        W27777   3.904   0.740   0.183 -0.2710 -0.1375 -0.0548
 9574W        W27778   2.915  16.238   0.773  0.2390 -0.0733 -0.0148
 9575W        W27779   2.576   7.020  16.860 -0.0631  0.1579  0.0532
 9576W        W27780  15.241   2.023  14.604 -0.1939  0.1057  0.1422
 9577W        W27781   1.227  16.276  16.794 -0.6564 -0.0661 -0.0699
 9578W        W27782  15.073   3.868   3.032  0.2732 -0.2148  0.0647
 9579W        W27783   7.234   6.411  16.727 -0.0035  0.1253  0.1501
 9580W        W27784  13.973  12.912  16.384 -0.2337  0.0723 -0.0233
 9581W        W27785  12.021  10.331   1.499  0.0669 -0.2784 -0.0048
 9582W        W27786  16.887   0.124   2.581  0.3989  0.3907 -0.0907
 9583W        W27787   2.610   6.381   4.371 -0.0179 -0.1926 -0.0403
 9584W        W27788   5.827  15.224  14.997  0.3471 -0.3226  0.5288
 9585W        W27789  12.723   4.085   0.049  0.1231  0.3477 -0.0585
 9586W        W27790   4.171  13.415  15.062 -0.3925 -0.0421  0.0753
 9587W        W27791   3.086  10.947   1.027 -0.0504  0.1579 -0.1241
 9588W        W27792   2.836   4.212   4.072  0.2447 -0.0843  0.0824
 9589W        W27793  10.224   1.665   3.405  0.1007  0.0725 -0.2534
 9590W        W27794   3.813   9.383  17.139 -0.1328 -0.2270  0.1768
 9591W        W27795   4.189   3.023  16.478  0.1563  0.2708 -0.2007
 9592W        W27796   7.226   4.025  17.453  0.0613 -0.2430 -0.2923
 9593W        W27797   5.110   8.511  13.416 -0.0586 -0.1396 -0.2048
 9594W        W27798   9.593  12.778  14.326 -0.2909 -0.2293 -0.1455
 9595W        W27799  12.742   5.019  15.127  0.0012  0.0594 -0.2315
 9596W        W27800   6.037  10.047  14.558 -0.2785 -0.0111 -0.0055
 9597W        W27801   4.240   3.914  14.441  0.0828  0.2216 -0.2826
 9598W        W27802  10.371  12.166  17.094 -0.0269 -0.3080 -0.2730
 9599W        W27803   2.184  10.016  15.363 -0.0513  0.1823 -0.0058
 9600W        W27804  13.272   4.215   1.598 -0.0261  0.4741 -0.3158
 9601W        W27805  13.728  17.087  13.907 -0.1666  0.2648 -0.0796
 9602W        W27806  13.730  12.221   3.868  0.1501  0.0077 -0.0314
 9603W        W27807   7.056  15.040   1.700 -0.0199 -0.0258 -0.1088
 9604W        W27808   4.923   7.571  15.109 -0.0182 -0.0300 -0.1505
 9605W        W27809  11.970  16.208  17.112 -0.3190 -0.0106 -0.2161
 9606W        W27810  14.427  12.674   5.033 -0.3823 -0.0576 -0.2531
 9607W        W27811   5.044   7.639  13.711  0.1847 -0.1597 -0.1724
 9608W        W27812  13.109   7.457   2.339 -0.1719  0.1228  0.0638
 9609W        W27813  12.205   8.804   4.789  0.0293  0.2151 -0.0422
 9610W        W27814  15.489   4.464   0.841  0.1278 -0.0349 -0.2878
 9611W        W27815  10.518   9.561  13.035  0.0419 -0.0064  0.0949
 9612W        W27816   8.266   0.306  15.353  0.4531  0.0701 -0.0679
 9613W        W27817   2.441  12.305   5.165  0.1881  0.1055  0.0713
 9614W        W27818   9.363   8.476   3.528  0.1608 -0.1142 -0.0853
 9615W        W27819  10.311  15.609  11.813 -0.0381  0.0757 -0.1493
 9616W        W27820   5.554   9.619  13.942 -0.3219 -0.0307  0.1692
 9617W        W27821   0.325  14.200  15.398 -0.0955 -0.1448  0.0078
 9618W        W27822  12.405  10.402  16.128 -0.3416 -0.3751 -0.0393
 9619W        W27823   6.897   2.138  17.465  0.0868  0.0548  0.3517
 9620W        W27824   1.840   6.352  16.597 -0.0696 -0.1155  0.4398
 9621W        W27825   1.550  15.630  15.286 -0.1501 -0.2854  0.0991
 9622W        W27826  10.834   9.002  17.303 -0.3279 -0.3089  0.1523
 9623W        W27827   3.293   9.733  12.058 -0.4580 -0.2760 -0.2671
 9624W        W27828   9.224  12.022   1.928 -0.1032 -0.0253  0.2493
 9625W        W27829   0.023   6.473   5.132  0.1834  0.0701 -0.0708
 9626W        W27830  14.532   2.895  13.731  0.1003  0.0419 -0.1006
 9627W        W27831  10.941   0.442   3.152  0.1156 -0.1772 -0.2860
 9628W        W27832   2.060   1.949  16.214  0.0591  0.2817 -0.2900
 9629W        W27833   2.660   2.848  13.715 -0.0017  0.0468 -0.1639
 9630W        W27834   6.687   6.719   2.295  0.0853  0.0794  0.1278
 9631W        W27835   3.782  11.296  14.464  0.0505 -0.3285  0.2101
 9632W        W27836   4.253   8.034   0.508  0.0923  0.0134 -0.0610
 9633W        W27837   7.668  11.113   1.745  0.0379  0.2714  0.3363
 9634W        W27838   2.742   5.333   1.459 -0.1223 -0.0047  0.0609
 9635W        W27839   7.211  10.141   3.206 -0.1589 -0.0114 -0.2369
 9636W        W27840  15.702  16.424   1.136 -0.1527  0.2820 -0.3329
 9637W        W27841   4.629   9.020   1.270 -0.0565 -0.3528 -0.0463
 9638W        W27842  15.478   2.567  15.372  0.0157  0.2388  0.1649
 9639W        W27843   8.221   8.965  12.166 -0.1086  0.0120  0.1129
 9640W        W27844  10.653  17.049   3.795 -0.0590 -0.1222  0.1254
 9641W        W27845  13.558  12.969  14.353 -0.1074  0.0984  0.1718
 9642W        W27846  10.083  12.994  12.580 -0.1178 -0.1292  0.1980
 9643W        W27847  15.500   8.105   1.974 -0.0907 -0.0314  0.2406
 9644W        W27848  17.104   4.870   0.926  0.0587 -0.2030 -0.1171
 9645W        W27849   0.749  12.756  16.780  0.0763 -0.1900 -0.4128
 9646W        W27850  16.871   0.218  16.192 -0.1121  0.3023 -0.2320
 9647W        W27851  15.621  16.796   0.271 -0.1263  0.1229  0.1292
 9648W        W27852   1.319   4.582  16.542 -0.0198  0.1641 -0.2082
 9649W        W27853   9.974  16.402   4.725  0.2945 -0.0243 -0.3758
 9650W        W27854   9.993  12.445  17.306 -0.1290  0.3652  0.1278
 9651W        W27855   4.030   3.016  12.233 -0.1422  0.1338  0.1746
 9652W        W27856   2.419   8.483   2.256 -0.2370  0.3371 -0.1415
 9653W        W27857  16.918   4.941   2.950  0.2940  0.0568  0.1108
 9654W        W27858  13.206   3.524   2.427 -0.1041 -0.1270  0.0044
 9655W        W27859  14.361   1.197  16.250  0.0342 -0.0750 -0.0174
 9656W        W27860  14.244  15.413   2.429 -0.1589  0.0766  0.2126
 9657W        W27861  13.507   0.054  13.566  0.2334  0.1225 -0.2632
 9658W        W27862   8.864  10.632   3.892  0.0791  0.3029 -0.2891
 9659W        W27863   0.396   3.541   3.568 -0.1999 -0.0406  0.1740
 9660W        W27864  14.135  16.447   2.435  0.1934 -0.3159 -0.2926
 9661W        W27865  16.406   5.686   3.995 -0.0010  0.0856 -0.2871
 9662W        W27866   5.772  13.679   2.040  0.2476  0.2817 -0.0434
 9663W        W27867  15.277  15.772  13.054 -0.2639  0.0502 -0.2945
 9664W        W27868  16.279   9.862  14.960  0.3206  0.0763  0.1772
 9665W        W27869   2.618   1.330  17.186 -0.0713  0.4380  0.2837
 9666W        W27870   2.171   0.583   5.103 -0.0871  0.1296  0.2403
 9667W        W27871   3.188  14.485  14.370 -0.1743 -0.0516  0.0107
 9668W        W27872   8.344   1.546  15.271 -0.0782  0.1157 -0.4159
 9669W        W27873   2.453   5.898   3.600 -0.0501  0.1780  0.2814
 9670W        W27874  14.587  12.443   3.468 -0.1430 -0.1163  0.0280
 9671W        W27875   2.055  11.304   4.451 -0.0871 -0.0371  0.4093
 9672W        W27876  10.802  14.511  16.754  0.0855 -0.0579 -0.1733
 9673W        W27877  15.499   2.701  16.543 -0.3620 -0.2048  0.2521
 9674W        W27878  12.142  12.963   2.348 -0.1554  0.2063 -0.1188
 9675W        W27879  12.915   7.068  16.193 -0.0339  0.0759  0.3070
 9676W        W27880   4.310   3.738   5.225 -0.2357  0.2196 -0.3077
 9677W        W27881   0.403  10.622   2.622  0.1685  0.2069 -0.0269
 9678W        W27882  12.045   8.719  14.877 -0.4193 -0.2924 -0.0862
 9679W        W27883   7.194  11.656  15.346 -0.0757  0.2913  0.1533
 9680W        W27884   9.670   8.976  12.774 -0.1384 -0.0984  0.3348
 9681W        W27885  14.049   9.696  16.514 -0.2063 -0.0176 -0.0704
 9682W        W27886  16.156  16.274  14.458 -0.1573 -0.0731 -0.1306
 9683W        W27887  13.660  16.049   0.379  0.0015 -0.0789  0.2288
 9684W        W27888  13.500   6.832  15.943  0.0506  0.1096  0.1173
 9685W        W27889   9.401   2.601  16.227 -0.2726  0.1414 -0.1147
 9686W        W27890  13.045   7.868   4.244  0.0563  0.2400  0.0977
 9687W        W27891   7.533   9.006   3.356  0.0368  0.3396  0.0376
 9688W        W27892   4.729   2.690  16.935 -0.0428  0.0195  0.0427
 9689W        W27893  14.725  13.199  16.532 -0.0723 -0.3949  0.1370
 9690W        W27894   6.272   9.371   0.918 -0.1541  0.0408 -0.3399
 9691W        W27895  15.171   9.475  13.667  0.2212 -0.2803 -0.1587
 9692W        W27896   7.850  13.994  16.979 -0.0882  0.0968 -0.3994
 9693W        W27897  17.187   7.369  15.830  0.1962 -0.2929 -0.2133
 9694W        W27898   9.763   7.978   0.586  0.0532  0.2356 -0.1042
 9695W        W27899  12.514   9.000  13.622 -0.0652  0.3186 -0.1374
 9696W        W27900   1.731  15.743   1.838  0.0934 -0.1868  0.0781
 9697W        W27901   9.313  17.078  12.529  0.2493 -0.0385 -0.1131
 9698W        W27902  16.874   8.104   0.480 -0.2148  0.0558 -0.4230
 9699W        W27903   4.560   8.242  12.607 -0.1612 -0.0816  0.3034
 9700W        W27904   5.535   0.125   2.157  0.2440  0.1993 -0.0091
 9701W        W27905   6.138  13.763  13.960  0.2197  0.1578  0.2394
 9702W        W27906  13.788   2.425  14.033  0.3502  0.1657  0.0461
 9703W        W27907  11.581  12.836  14.451 -0.0057  0.2781  0.0470
 9704W        W27908   3.855   5.833   0.443  0.0007 -0.1711 -0.1537
 9705W        W27909  13.232  12.744  15.368  0.0926  0.0570 -0.0882
 9706W        W27910   5.253  12.457   1.063 -0.0713  0.0249 -0.0094
 9707W        W27911  14.490  13.425   5.134  0.1935  0.1878  0.2040
 9708W        W27912  10.454  11.038  16.528  0.0921 -0.0410  0.1282
 9709W        W27913   9.771  13.857   3.081 -0.0190 -0.6393  0.0354
 9710W        W27914   1.224   5.179  14.926  0.1067  0.1680 -0.0077
 9711W        W27915   8.627  15.244   1.002 -0.0084  0.3722  0.0900
 9712W        W27916   6.112   2.410   2.686 -0.2008  0.3359 -0.1445
 9713W        W27917   7.059  16.431  12.813  0.1870 -0.1038 -0.4014
 9714W        W27918   1.342   0.135   5.327 -0.0953 -0.0890  0.1228
 9715W        W27919  13.536   6.473  11.962  0.1401 -0.2186 -0.1610
 9716W        W27920   3.853   8.008   3.221 -0.1199 -0.4090 -0.0704
 9717W        W27921   1.797  12.243  13.530  0.1746  0.0532  0.0675
 9718W        W27922   6.083   5.699   3.423 -0.0139  0.0683  0.0491
 9719W        W27923   8.535   2.469   3.442  0.0472  0.0787 -0.0613
 9720W        W27924   7.229   1.964  16.012 -0.3021  0.1818  0.3381
 9721W        W27925  13.231  11.235  13.220  0.2274  0.1826 -0.0033
 9722W        W27926   9.577  11.778   0.165  0.0916  0.2290  0.1202
 9723W        W27927  12.550  14.934   3.620 -0.0305 -0.1104 -0.0637
 9724W        W27928   5.559  10.844   3.319 -0.1477 -0.2076  0.0334
 9725W        W27929  13.254  10.458  12.425  0.1052 -0.1468 -0.1029
 9726W        W27930   4.420  10.552   2.407 -0.0023  0.1711 -0.1247
 9727W        W27931   7.016   9.750   3.980  0.2172 -0.3650 -0.0386
 9728W        W27932   9.805   0.834  15.033 -0.0708  0.0880 -0.1258
 9729W        W27933  10.768   5.246   3.992 -0.0643  0.0986 -0.0361
 9730W        W27934   8.517   4.300   3.311 -0.1554 -0.2612  0.0432
 9731W        W27935  14.653   4.786   0.935  0.1316  0.0099  0.1144
 9732W        W27936  14.802   2.632  12.727 -0.1289 -0.2993 -0.0762
 9733W        W27937   0.560   2.231   1.065  0.0727  0.0987 -0.0501
 9734W        W27938   5.497  16.413  17.341  0.1881 -0.1346  0.0558
 9735W        W27939   9.392  14.455  15.170 -0.1029 -0.0816  0.1223
 9736W        W27940   1.634  10.841  14.321 -0.1797  0.0016 -0.0395
 9737W        W27941   9.764  12.954  12.961  0.6546 -0.1602 -0.1271
 9738W        W27942  15.112   6.659  15.511  0.0955 -0.0237 -0.0298
 9739W        W27943   7.148  15.105   5.033 -0.0716  0.1685 -0.3593
 9740W        W27944  13.607   3.698  12.840 -0.1026  0.1248  0.1885
 9741W        W27945  15.624  11.224   4.665 -0.0597  0.0248  0.0705
 9742W        W27946  10.020   6.643  13.542  0.2328  0.0502 -0.3147
 9743W        W27947  17.198   4.688   2.515 -0.2854 -0.1410 -0.2037
 9744W        W27948   5.716   6.680   2.205  0.0085 -0.1537  0.2288
 9745W        W27949   7.736   0.721  13.160 -0.0429  0.2415 -0.0769
 9746W        W27950   0.980   2.209  13.576 -0.1670  0.0441  0.1563
 9747W        W27951   2.826   4.873   5.185  0.1862 -0.1249 -0.1114
 9748W        W27952   2.325   4.401  13.678 -0.0677 -0.0121  0.2168
 9749W        W27953  11.131  16.766   2.856  0.3813 -0.0304  0.3424
 9750W        W27954   2.680   9.217  16.141 -0.2056  0.3780  0.4127
 9751W        W27955   7.330   5.578  12.803 -0.1676  0.2162 -0.1546
 9752W        W27956   5.634   6.478   1.729  0.0680  0.1094 -0.0107
 9753W        W27957  11.787   2.960   0.587  0.2539 -0.1072 -0.1111
 9754W        W27958  14.392   9.522   3.228 -0.0431 -0.3075  0.0606
 9755W        W27959  14.548   9.083   3.374  0.3152  0.1951 -0.0627
 9756W        W27960   1.449   2.639  15.020  0.1707  0.1235  0.1770
 9757W        W27961  13.367  12.003   2.962  0.0438 -0.1383  0.2180
 9758W        W27962  16.415   1.290  12.398  0.0510 -0.2447 -0.1657
 9759W        W27963   1.578  13.633  16.590  0.1824  0.0822  0.1223
 9760W        W27964  11.952   6.112  14.167  0.0198  0.0938 -0.2166
 9761W        W27965   4.814  11.338   4.470  0.2144 -0.0611 -0.0412
 9762W        W27966   2.561   6.874   1.785 -0.0975  0.1641  0.2783
 9763W        W27967   2.203  10.027   2.503 -0.1850  0.1704 -0.0237
 9764W        W27968  13.197   8.362   4.342 -0.0280 -0.0348 -0.2277
 9765W        W27969   3.542   3.154   1.058 -0.1458 -0.2699 -0.1248
 9766W        W27970  16.801   6.156  15.637  0.0264  0.0281  0.0390
 9767W        W27971   1.958   3.525  15.046  0.1698  0.3483  0.6174
 9768W        W27972   1.172   7.443  12.048  0.2634 -0.1463  0.0786
 9769W        W27973  12.972   3.020   3.812  0.1092  0.1424  0.3325
 9770W        W27974  14.310   9.454  14.938 -0.1401  0.0271  0.1138
 9771W        W27975   8.926  15.532  12.838  0.1209  0.1962  0.2081
 9772W        W27976   8.250   1.251   3.926 -0.0575 -0.0911 -0.0876
 9773W        W27977  11.317  10.387  12.145 -0.1495  0.0600  0.3080
 9774W        W27978   2.007   0.863  12.703 -0.2433  0.0595 -0.0266
 9775W        W27979  17.018   1.517  14.037 -0.0795 -0.3008  0.1276
 9776W        W27980  13.833   9.823  14.442 -0.0025 -0.1308  0.3220
 9777W        W27981   0.389   9.865   4.675 -0.2320  0.1792  0.0550
 9778W        W27982   2.348   3.362  17.161 -0.0076  0.1206 -0.1319
 9779W        W27983   1.327  11.911   4.942 -0.2520  0.1217  0.2424
 9780W        W27984   5.327  17.018   2.342  0.1461 -0.0144 -0.2418
 9781W        W27985   1.901   4.693  15.930  0.2639 -0.3698 -0.2563
 9782W        W27986  12.541   1.680  15.100 -0.0991  0.1788 -0.0806
 9783W        W27987   3.472  13.548  12.546  0.1741  0.1708  0.0923
 9784W        W27988   6.962  16.005   2.050  0.2221  0.0046 -0.0198
 9785W        W27989   1.537  11.295   4.454 -0.0213  0.0207 -0.2039
 9786W        W27990  15.124   9.363   3.878  0.0467  0.3916  0.2365
 9787W        W27991   0.025  13.145   2.020  0.1797 -0.2570  0.1914
 9788W        W27992   7.822   3.708  15.544  0.0186  0.2698  0.0651
 9789W        W27993  13.685   9.509   3.069  0.1781 -0.0030 -0.0083
 9790W        W27994   0.066   2.623  12.921  0.1141 -0.0380  0.1078
 9791W        W27995   8.968  15.047  16.703 -0.2769  0.0425 -0.1771
 9792W        W27996   4.582  12.905  13.731  0.0959  0.3556  0.1392
 9793W        W27997   7.523  12.463  12.701  0.0418 -0.1348  0.0236
 9794W        W27998  14.577  16.096  12.794 -0.2421  0.1170 -0.2216
 9795W        W27999   6.809   1.062   0.357 -0.0383 -0.0895  0.5167
 9796W        W28000   3.480   7.497  16.680 -0.2020  0.1884  0.1579
 9797W        W28001  13.841  16.536   3.484 -0.1341 -0.2881 -0.0570
 9798W        W28002  14.874   8.007   4.353 -0.0118  0.2063  0.1058
 9799W        W28003  13.175   3.449  11.951  0.1473  0.0139 -0.2089
 9800W        W28004   7.439  11.556  15.880 -0.0594 -0.0210  0.1033
 9801W        W28005   7.065  11.229  17.190  0.2122 -0.1457  0.4727
 9802W        W28006   1.732  12.978   1.922 -0.3415  0.1558 -0.0430
 9803W        W28007   4.784   0.649  16.475  0.2424  0.2811  0.0744
 9804W        W28008   6.894   1.237  12.632  0.1730  0.1736 -0.1318
 9805W        W28009  15.725   9.817   4.663  0.1543 -0.1407  0.0657
 9806W        W28010  10.672  12.061   2.034 -0.2460 -0.0553  0.0365
 9807W        W28011   3.717   2.600   1.975 -0.0347 -0.0622  0.0944
 9808W        W28012  14.572   8.960   4.816 -0.1153  0.0509 -0.0808
 9809W        W28013  12.064   9.998   5.194  0.0772  0.0405  0.1015
 9810W        W28014   6.501  12.432   5.734  0.0668 -0.0957  0.2614
 9811W        W28015   4.972  11.270  12.405  0.2004  0.1655  0.0845
 9812W        W28016  10.401  16.237   0.633  0.1550 -0.1082  0.1850
 9813W        W28017  13.043   0.547   4.871 -0.2904  0.2545  0.0936
 9814W        W28018   7.126  11.903  14.913  0.3213  0.2238  0.0416
 9815W        W28019   3.055   2.428   5.193  0.0253  0.1411 -0.3602
 9816W        W28020   0.274  13.767   0.859 -0.0116 -0.0547 -0.1362
 9817W        W28021   0.366   7.180  12.304  0.2347 -0.1791  0.3128
 9818W        W28022  10.233   4.270  13.951 -0.0348 -0.0741  0.0133
 9819W        W28023  12.148  11.013   5.445  0.2550 -0.1152  0.2100
 9820W        W28024   9.094   2.603   1.094 -0.1965  0.0332  0.0879
 9821W        W28025   5.617   5.606   3.171 -0.2606  0.2113  0.3052
 9822W        W28026  15.859   4.502   5.110 -0.0110  0.0219  0.0465
 9823W        W28027  17.243   6.766  17.358  0.0697 -0.1173 -0.0055
 9824W        W28028   1.820   1.724   5.606 -0.1284  0.2131 -0.0450
 9825W        W28029   8.434   9.124  15.368  0.1192  0.0838  0.2412
 9826W        W28030  16.719  11.819   4.150 -0.0589  0.0342  0.0864
 9827W        W28031  10.846   9.439  13.458 -0.0627 -0.0015  0.2179
 9828W        W28032   9.248  13.534  13.388 -0.2673  0.0920  0.1769
 9829W        W28033  11.575   6.370  16.859 -0.2028  0.1876  0.2249
 9830W        W28034   3.181   5.375  14.163 -0.1371 -0.2272  0.1981
 9831W        W28035  13.072   8.767   1.550  0.2137 -0.0078  0.0597
 9832W        W28036  14.688  14.373   5.094 -0.2929  0.0500 -0.2216
 9833W        W28037   8.536  14.204   4.283  0.1864  0.0997 -0.0116
 9834W        W28038   2.418  14.687  16.233  0.0125  0.1174 -0.2176
 9835W        W28039   0.888   5.593  14.869 -0.2689  0.2276 -0.2667
 9836W        W28040  16.628   7.922   2.993 -0.1679  0.2450  0.1758
 9837W        W28041   3.584   6.252  16.308 -0.0955 -0.2743  0.0887
 9838W        W28042  11.148   0.642  16.925 -0.1185  0.0531  0.1085
 9839W        W28043  16.539   6.162  14.302  0.0723 -0.2068 -0.0147
 9840W        W28044  17.134   6.092  11.831 -0.4153  0.1026  0.1447
 9841W        W28045  16.187  10.788  17.122 -0.1790 -0.1414 -0.0047
 9842W        W28046  10.303   1.858   0.809  0.0163 -0.0271 -0.1714
 9843W        W28047   6.544   7.958  15.107 -0.1230 -0.2844  0.1415
 9844W        W28048   6.325  11.407  16.194  0.0337  0.2221 -0.2698
 9845W        W28049  10.070   4.071  15.899 -0.0330  0.0065  0.1043
 9846W        W28050   7.537  15.910  12.211 -0.0944 -0.0364  0.0696
 9847W        W28051   1.082  10.621   3.859 -0.1382 -0.1089  0.0232
 9848W        W28052   8.777   1.120  17.123  0.0249 -0.1157  0.0767
 9849W        W28053  10.726  16.308  14.933  0.1976 -0.2363  0.1208
 9850W        W28054   6.582   5.003  17.442 -0.1356 -0.0266 -0.0818
 9851W        W28055   9.960  13.111  17.452 -0.1349 -0.2267  0.0454
 9852W        W28056  10.065  14.832   5.450  0.0224  0.0829 -0.1166
 9853W        W28057   7.876   1.394  13.590  0.0070  0.1488  0.0476
 9854W        W28058   4.484  15.660   0.007 -0.0301 -0.1132 -0.1148
 9855W        W28059  11.300  12.277   1.212 -0.1324 -0.2700 -0.2346
 9856W        W28060   4.728   3.578   3.116  0.0089  0.2206  0.2328
 9857W        W28061   2.313  15.424  13.593 -0.0268 -0.0020 -0.2036
 9858W        W28062   1.057   4.387  12.689  0.1973  0.3102  0.0032
 9859W        W28063   9.852  15.837   3.993 -0.1666  0.0694  0.2342
 9860W        W28064   6.481   7.686  11.859 -0.0517  0.0079  0.0426
 9861W        W28065  13.606  12.049  14.468  0.0777 -0.3488 -0.0922
 9862W        W28066   6.220   7.122  17.394 -0.2102 -0.1429  0.1066
 9863W        W28067   7.809   6.297   1.870  0.1214  0.1267 -0.0912
 9864W        W28068   2.200  11.191   3.981  0.3436 -0.0286 -0.0206
 9865W        W28069   0.028  15.807  13.519 -0.0930  0.0017  0.2192
 9866W        W28070  11.081   9.886  12.840  0.1254  0.0279  0.0957
 9867W        W28071   3.759  13.302  13.901 -0.0732  0.2117  0.0930
 9868W        W28072   2.590  16.587  12.490  0.2752  0.0439  0.0583
 9869W        W28073   6.345  17.155   2.109 -0.1270  0.2546  0.0439
 9870W        W28074  15.032   8.406   3.992  0.1900 -0.1458 -0.0852
 9871W        W28075   3.276   6.711  12.895  0.1340 -0.1479  0.2129
 9872W        W28076   7.364   3.578   3.162 -0.0247  0.1074  0.1727
 9873W        W28077   1.510  14.239  14.117  0.0594  0.1281  0.0006
 9874W        W28078   5.022  12.177   4.219 -0.0348  0.0550 -0.0211
 9875W        W28079   5.295   5.902   4.194  0.1477  0.1768 -0.1120
 9876W        W28080   8.798  13.512  14.977 -0.1838 -0.0338  0.2605
 9877W        W28081   5.279  16.518   3.951  0.0456 -0.2960 -0.1690
 9878W        W28082   0.661   4.332  17.181  0.3439  0.1924  0.1936
 9879W        W28083   4.492  15.160   5.237  0.0261  0.2725  0.1751
 9880W        W28084   5.862  10.095  14.099 -0.1162 -0.1676  0.2917
 9881W        W28085   0.595   6.253   2.970 -0.0879  0.0370  0.0105
 9882W        W28086   0.092  16.245  16.203  0.1129  0.2482  0.0714
 9883W        W28087  16.955  10.231   3.757  0.2074 -0.2928 -0.0224
 9884W        W28088   8.938   6.137   1.357  0.1164  0.2320 -0.2794
 9885W        W28089   2.737   3.268   1.755  0.0327 -0.0829  0.4193
 9886W        W28090   5.760  13.929   6.238  0.1344  0.2463  0.2683
 9887W        W28091  11.610   3.229   3.369 -0.2031 -0.5610  0.0313
 9888W        W28092   0.307   5.858   2.897 -0.1476  0.0453  0.3156
 9889W        W28093   0.303   1.795   4.043  0.3847 -0.0725  0.0165
 9890W        W28094   7.285   8.989   2.879  0.0477 -0.0858  0.0289
 9891W        W28095   6.277  17.018   3.878 -0.5146  0.2039 -0.0402
 9892W        W28096  10.915  10.737  12.318 -0.1637 -0.3059 -0.1167
 9893W        W28097  13.981  12.773  12.781  0.0381 -0.0235 -0.1992
 9894W        W28098  15.044   9.211   6.213 -0.1325  0.1307  0.1030
 9895W        W28099  10.866  11.469  11.252 -0.0435  0.1126  0.1280
 9896W        W28100   2.509   9.232  16.631 -0.0463  0.1533  0.1909
 9897W        W28101   8.786  14.146   2.050  0.0551 -0.0740 -0.3411
 9898W        W28102  15.096  14.103   3.434  0.3100  0.0505 -0.3508
 9899W        W28103   1.384   7.822   1.373 -0.0051 -0.3032 -0.1364
 9900W        W28104  12.788  11.899   3.667 -0.1887  0.2386  0.2944
 9901W        W28105   9.514  11.001   4.222 -0.0522 -0.0924  0.1772
 9902W        W28106   3.925  16.907  16.403 -0.1430  0.1384 -0.2141
 9903W        W28107   8.665  12.097  12.686  0.1125  0.1031  0.1939
 9904W        W28108  15.743   3.253   0.307  0.1202  0.0005  0.0336
 9905W        W28109   3.469  11.212  14.831  0.0319 -0.1351 -0.0814
 9906W        W28110   1.067   5.992  16.896  0.0397  0.0433 -0.0184
 9907W        W28111  13.312   1.654   2.765  0.0841 -0.1040  0.2094
 9908W        W28112   9.522  14.363   4.875 -0.0257  0.0851 -0.2101
 9909W        W28113  12.746  13.313  16.935 -0.0054  0.2117  0.0293
 9910W        W28114   8.867  14.723  14.004  0.0460 -0.0052 -0.2463
 9911W        W28115   8.760  14.613   1.720  0.0103 -0.1741 -0.1935
 9912W        W28116   7.227  15.621  15.441  0.1798 -0.1099  0.1428
 9913W        W28117  11.585  14.452   4.490 -0.0446 -0.2467 -0.1711
 9914W        W28118  15.426  14.378  14.051  0.0837 -0.0464 -0.2170
 9915W        W28119  15.197  12.496  14.141 -0.0749 -0.4456  0.0727
 9916W        W28120  15.190  13.040  13.200 -0.1989 -0.0799 -0.2320
 9917W        W28121   0.650   3.312   1.911 -0.3126 -0.0264 -0.1356
 9918W        W28122   7.867  13.590  17.395  0.1219 -0.0681 -0.2081
 9919W        W28123   4.532  13.269  14.698  0.2794 -0.0647 -0.1237
 9920W        W28124   9.546  11.343  13.503 -0.0086 -0.1733  0.0335
 9921W        W28125  15.356  16.719  12.004 -0.2562 -0.0648  0.2635
 9922W        W28126  13.944   2.152  12.265 -0.5741 -0.1744  0.2304
 9923W        W28127   5.495  11.214   4.958  0.0782 -0.2773 -0.3584
 9924W        W28128   0.749  15.403   0.146  0.1820  0.0274  0.0554
 9925W        W28129   5.539   8.402  16.040  0.0218  0.0487 -0.2870
 9926W        W28130   8.123   4.760   2.087 -0.0143  0.1851 -0.0976
 9927W        W28131   8.118  14.045  15.038  0.0914  0.2775 -0.2996
 9928W        W28132   9.785  15.530  13.233 -0.2887  0.0635 -0.0063
 9929W        W28133  12.325  10.618   2.307  0.3371 -0.2134  0.2085
 9930W        W28134   9.516   1.155  15.728  0.2664  0.0219 -0.0100
 9931W        W28135   8.250   6.241   2.769 -0.0347  0.0112 -0.1216
 9932W        W28136   6.935   2.063  16.460  0.1640  0.1801 -0.1805
 9933W        W28137   8.334  11.064  16.917  0.3462 -0.1882 -0.1443
 9934W        W28138   6.758  17.229  15.396  0.0857 -0.2270  0.1556
 9935W        W28139  10.333   1.026  14.272  0.0503  0.2293  0.3145
 9936W        W28140   2.136   3.634   0.112 -0.1959 -0.0062  0.2377
 9937W        W28141   2.992   8.799  12.766  0.0431 -0.1090  0.0285
 9938W        W28142   9.421   3.516  10.998 -0.2040  0.1146 -0.2927
 9939W        W28143  10.783   5.057   3.532 -0.0366  0.2371 -0.1298
 9940W        W28144  14.446   9.025  15.251 -0.0297  0.0591  0.0429
 9941W        W28145  11.678   2.159  14.751  0.0587 -0.1207 -0.1397
 9942W        W28146  14.775   8.772   3.731  0.0463 -0.1751  0.2539
 9943W        W28147   7.461  10.407  13.378  0.0517 -0.2847 -0.1131
 9944W        W28148   5.003  10.344  11.772 -0.1573 -0.3209 -0.2118
 9945W        W28149   8.722   7.435  11.605 -0.0174 -0.0909  0.0056
 9946W        W28150  16.498   7.143   1.959  0.0723  0.5029 -0.0128
 9947W        W28151  16.262   5.616  12.940  0.0853  0.0426 -0.0540
 9948W        W28152  14.713   3.407  15.843 -0.1214  0.0448 -0.1508
 9949W        W28153   0.095  12.620  17.039 -0.1936  0.1603 -0.4801
 9950W        W28154   5.810   7.399  16.979  0.0065 -0.0169  0.1086
 9951W        W28155  14.047   9.665   1.166 -0.2132  0.4640  0.1843
 9952W        W28156  14.411  10.746  14.249 -0.0180 -0.0226 -0.2948
 9953W        W28157  15.918   2.978   3.603 -0.0095  0.1437  0.1360
 9954W        W28158   5.192   1.259  15.678  0.0069 -0.1088  0.0303
 9955W        W28159   2.813  13.679  15.147  0.1543  0.1934 -0.0371
 9956W        W28160   2.936   1.579  13.887 -0.2039 -0.1520 -0.1150
 9957W        W28161  13.388   8.559   1.203  0.2176 -0.2554 -0.1118
 9958W        W28162  15.242   8.777  16.401 -0.2793  0.2936  0.3693
 9959W        W28163   9.623  14.669   5.291 -0.2527 -0.3870  0.0514
 9960W        W28164  17.211   0.779   5.080 -0.1580 -0.1332 -0.0637
 9961W        W28165  17.151   0.448   1.549  0.0011  0.2868  0.1724
 9962W        W28166  13.455   1.757   3.886 -0.0166  0.0035  0.1360
 9963W        W28167   6.231   9.897  13.291 -0.1274  0.0660  0.1417
 9964W        W28168   5.622   4.288  16.797 -0.1355 -0.2068  0.1519
 9965W        W28169   6.745   1.222   1.257 -0.1407 -0.3367  0.0564
 9966W        W28170   1.099  15.239   1.491 -0.2069  0.1331 -0.0529
 9967W        W28171  11.318   7.314  16.784 -0.0901 -0.1918 -0.0239
 9968W        W28172  14.979   6.201   5.208 -0.3276  0.1230 -0.0987
 9969W        W28173  10.986  11.233   1.033  0.0557 -0.1731  0.0498
 9970W        W28174  11.502   9.002   1.907 -0.3186 -0.0754  0.0889
 9971W        W28175   4.779  11.275   2.705 -0.3798  0.2092 -0.2360
 9972W        W28176   8.474   7.483   0.460  0.5117  0.1506  0.1577
 9973W        W28177   9.795   6.380  15.083  0.0445 -0.2392 -0.0476
 9974W        W28178   3.069  13.246   3.693 -0.0018 -0.0904  0.2157
 9975W        W28179  14.844   6.810   3.818 -0.4401  0.4276  0.1003
 9976W        W28180  10.478   9.583   0.539  0.1217  0.0449 -0.1202
 9977W        W28181   7.461   7.536  12.302  0.0304 -0.2478  0.0390
 9978W        W28182  11.319   6.073  12.044 -0.0357 -0.1089  0.0277
 9979W        W28183   6.863  15.732  17.097  0.3005  0.0932 -0.1422
 9980W        W28184  14.248  12.041   1.173  0.3475  0.1780 -0.2906
 9981W        W28185   8.899  16.883   3.113 -0.0193 -0.2065 -0.0968
 9982W        W28186   1.457  16.865  15.696 -0.0029 -0.0619 -0.0110
 9983W        W28187   5.775   4.914   0.844  0.2144  0.0785  0.2354
 9984W        W28188  12.088   9.383  14.985 -0.1097  0.3203  0.1988
 9985W        W28189  11.812  10.755  15.037 -0.0706 -0.4298 -0.2567
 9986W        W28190   9.597   3.414   0.974 -0.1229  0.1240 -0.1315
 9987W        W28191  13.577   3.713  12.014  0.0888 -0.0829 -0.0219
 9988W        W28192   9.951   0.502  12.864  0.1685 -0.2797 -0.0420
 9989W        W28193   8.813   2.415   5.399 -0.0265 -0.0559 -0.1931
 9990W        W28194  13.940   6.042   0.033 -0.1014  0.1547  0.1849
 9991W        W28195   6.254  13.106   0.446 -0.2258  0.0991 -0.0507
 9992W        W28196  12.327   5.653   2.042 -0.1463 -0.0905  0.0392
 9993W        W28197   5.581  12.320   3.337  0.1696 -0.2731  0.0125
 9994W        W28198   6.771  11.689  16.244  0.0594 -0.0138  0.1911
 9995W        W28199  13.231   0.136  15.844  0.0164  0.1391 -0.1794
 9996W        W28200  17.291   7.896   2.514 -0.2251  0.2139  0.2602
 9997W        W28201   7.386  14.521   3.171  0.0098  0.5285  0.1388
 9998W        W28202  10.427  16.374   5.562 -0.2179 -0.3213 -0.0321
 9999W        W28203   9.730   8.939   1.210 -0.1622 -0.0324  0.0230
10000W        W28204  14.301   4.708   3.516 -0.1607  0.0481 -0.3192
10001W        W28205   2.433   6.682  15.089  0.1096 -0.0796 -0.2250
10002W        W28206   4.545  16.644  11.953 -0.1074 -0.1476 -0.1400
10003W        W28207   1.456   3.041   3.175  0.1820 -0.3330 -0.0075
10004W        W28208   2.419   1.106   2.192  0.0440 -0.0719  0.0706
10005W        W28209  14.065  11.090  12.563  0.2300  0.1162 -0.1242
10006W        W28210   2.467   8.740  12.230  0.1347  0.0540  0.0259
10007W        W28211  14.030  14.503  14.907 -0.0731 -0.3025 -0.0251
10008W        W28212  15.890   5.483  12.616 -0.0495 -0.2582  0.2125
10009W        W28213  16.205   4.056  12.771 -0.0171 -0.2391  0.2029
10010W        W28214   8.369  16.602  12.418  0.3079 -0.1398 -0.0618
10011W        W28215  10.752  11.874  16.769 -0.0580  0.0645  0.1927
10012W        W28216  14.055  11.694   2.443 -0.2464 -0.3068  0.4044
10013W        W28217  13.537  14.434  17.048 -0.1359  0.1565 -0.2049
10014W        W28218  11.576   0.670   2.462  0.1185 -0.1693 -0.1466
10015W        W28219   9.297   9.156   0.271 -0.1432 -0.0526 -0.0318
10016W        W28220  14.453  10.135  13.927  0.2837  0.1429  0.0628
10017W        W28221   9.555   2.944   2.701 -0.0618 -0.6587  0.0355
10018W        W28222  11.290   1.546   2.696  0.0649 -0.0991 -0.0149
10019W        W28223   5.032  10.946  16.734  0.2959 -0.0958  0.1069
10020W        W28224  12.193  17.273  14.341 -0.0519 -0.0040 -0.0943
10021W        W28225   5.285   1.440   3.524 -0.2669  0.2234 -0.0614
10022W        W28226  14.653  14.547  16.987  0.1497 -0.4928 -0.1745
10023W        W28227   5.261   5.099  12.587 -0.0674 -0.1299 -0.2419
10024W        W28228   9.047  11.303  12.580  0.5195 -0.2482 -0.1064
10025W        W28229   4.887   9.715  14.783 -0.3762  0.1939  0.0828
10026W        W28230   3.771  11.055  16.349 -0.0568  0.1657  0.3337
10027W        W28231   8.218   5.220  16.636  0.1993  0.2544 -0.1424
10028W        W28232   9.994  12.873   3.738  0.1828 -0.1646  0.0314
10029W        W28233   5.178   2.391  12.529 -0.0033 -0.1727  0.1584
10030W        W28234   2.522   0.730   3.411 -0.1172 -0.0248 -0.4802
10031W        W28235   4.315  13.532  12.558  0.0286 -0.0422  0.0358
10032W        W28236  11.240   3.082  16.073  0.1579 -0.0414 -0.1617
10033W        W28237   6.575   2.285   5.001  0.2181 -0.2154 -0.0529
10034W        W28238   2.053   4.918  13.712  0.2024  0.2790  0.0201
10035W        W28239   3.891   6.346  11.454 -0.0467  0.2864  0.2301
10036W        W28240  12.031  11.464  15.515  0.1202 -0.0541  0.1358
10037W        W28241  12.313   6.949  12.101 -0.2678  0.1005  0.3713
10038W        W28242   1.913  13.322  16.651  0.0859 -0.0164 -0.2416
10039W        W28243  14.033  10.444   4.483 -0.0301  0.0885  0.0189
10040W        W28244  11.630   4.892   0.759 -0.1087 -0.1596  0.3257
10041W        W28245   3.091  10.002   0.416  0.0037 -0.0120 -0.1155
10042W        W28246  14.507  16.394  13.216  0.3578 -0.0940  0.0891
10043W        W28247   7.960  15.702  17.055 -0.0315 -0.3122  0.1944
10044W        W28248  14.005  12.361  16.585  0.3403  0.2755  0.0240
10045W        W28249  14.603  11.473  14.447 -0.1699  0.4878 -0.1453
10046W        W28250   9.586   9.988   1.796  0.2084  0.0666  0.1556
10047W        W28251   0.001   4.881  13.548 -0.2323  0.0472  0.0720
10048W        W28252  15.987  11.406  14.727  0.1085 -0.0010 -0.2710
10049W        W28253  12.243   5.961   2.527  0.0596 -0.0747  0.0079
10050W        W28254  15.533  13.958   1.267  0.4125  0.0373  0.1511
10051W        W28255   1.178   0.328   4.572 -0.1034  0.0717  0.0394
10052W        W28256   8.795   3.030  12.880 -0.0295  0.1504  0.2809
10053W        W28257   7.097   4.917  17.431 -0.1032 -0.0009  0.0931
10054W        W28258   2.552   9.267  14.736 -0.1599  0.0642 -0.0448
10055W        W28259   6.189   0.459  13.589 -0.1382  0.1050 -0.2630
10056W        W28260  10.579   0.579  16.886 -0.2730 -0.0201 -0.0920
10057W        W28261   2.357   7.922  14.526  0.0115 -0.1184 -0.0323
10058W        W28262   9.417  16.229  13.380 -0.1002  0.3163  0.1294
10059W        W28263   7.239  17.088   0.370 -0.1579  0.1961  0.0244
10060W        W28264   2.349  15.323  12.384  0.1647 -0.2360  0.1227
10061W        W28265   7.921   8.374  12.634  0.2345 -0.0482 -0.2125
10062W        W28266   0.192  13.941  14.357  0.0515 -0.1483  0.0749
10063W        W28267  10.312  13.273  14.387  0.0027 -0.2348 -0.0990
10064W        W28268   1.842   5.727  14.481 -0.1355 -0.2757  0.2017
10065W        W28269  12.517   2.762   2.549 -0.0170  0.0952  0.1083
10066W        W28270   2.849   8.923   4.021 -0.0385 -0.1470 -0.4061
10067W        W28271   8.140  10.250   4.040 -0.0944  0.2642 -0.4084
10068W        W28272  14.084  15.040   4.704  0.0109  0.1392  0.2710
10069W        W28273  16.147   0.521   1.302  0.0340 -0.0927 -0.1329
10070W        W28274  10.983  17.249   5.294  0.2939  0.0997 -0.1061
10071W        W28275   4.929  10.011  13.615 -0.2164  0.0019  0.1504
10072W        W28276  11.187   4.367   0.309 -0.0462 -0.1634  0.2623
10073W        W28277  13.461  10.150   2.054 -0.3208  0.4442  0.0992
10074W        W28278  16.671  10.920   2.289  0.2157 -0.0200 -0.1868
10075W        W28279   3.659  12.921   1.486  0.0691  0.0457 -0.1251
10076W        W28280   7.231   6.934  13.077 -0.1830  0.0099  0.0889
10077W        W28281   2.403   4.628  15.096 -0.2086 -0.1044  0.1947
10078W        W28282   1.444   8.318   1.191 -0.1354  0.0919  0.1137
10079W        W28283   9.074   4.701   3.118  0.0599  0.0073 -0.2163
10080W        W28284   3.611  12.585  13.978 -0.0100  0.0584  0.1408
10081W        W28285  11.918  12.902   5.842  0.0970  0.1600 -0.0658
10082W        W28286   7.616  11.176   5.031 -0.1374  0.1431 -0.2018
10083W        W28287  14.421   5.033   4.226  0.1820 -0.1940 -0.2688
10084W        W28288  12.379   8.106   1.415 -0.1331 -0.0782  0.3277
10085W        W28289   5.651   8.666   0.119  0.2464 -0.1039 -0.2905
10086W        W28290  16.093  17.213  13.716 -0.0626 -0.2412  0.1985
10087W        W28291  14.699   8.021   3.889 -0.0796  0.3554 -0.2700
10088W        W28292   4.034  15.240   3.269  0.0132  0.0203 -0.1420
10089W        W28293  11.853   4.858   1.263  0.3154  0.0706  0.0416
10090W        W28294   2.947   8.016  12.647  0.0165  0.3739 -0.2932
10091W        W28295  10.886  15.400  16.500  0.0213  0.1909  0.2846
10092W        W28296  10.135   5.851  14.416 -0.1839  0.0068  0.0004
10093W        W28297  10.554   8.052  16.998 -0.0252 -0.0785 -0.2125
10094W        W28298   4.744  16.585   5.226  0.0113 -0.3128  0.1444
10095W        W28299   3.221   2.756   2.303 -0.0356 -0.0371  0.2189
10096W        W28300  16.219  12.341   4.781 -0.2010 -0.1287  0.1454
10097W        W28301  13.941   4.613  12.852 -0.1288  0.1773 -0.0977
10098W        W28302   1.560   6.502   0.838 -0.3004  0.0259 -0.1230
10099W        W28303   3.151  11.402  13.092 -0.0518 -0.2156  0.0410
10100W        W28304   7.217  13.272   1.192 -0.0581  0.1426 -0.2095
10101W        W28305  12.644   0.239   4.969  0.0634 -0.0083  0.0920
10102W        W28306   9.906  13.635  13.772 -0.1693  0.0010 -0.2484
10103W        W28307   4.707   5.483   1.289  0.0896 -0.1154 -0.0971
10104W        W28308   3.681  12.232  15.105  0.1524  0.0695  0.0030
10105W        W28309  10.438   4.135  13.173  0.1165  0.0945  0.2170
10106W        W28310  11.602  13.502  13.922  0.1955  0.1175  0.0288
10107W        W28311  13.523  16.572   2.291  0.1890 -0.1904  0.1814
10108W        W28312   2.974  14.176  11.497  0.1122  0.2108  0.2080
10109W        W28313   9.444   4.505  15.192 -0.1927  0.0333 -0.0275
10110W        W28314   7.542   8.600  13.394 -0.2266  0.4084 -0.0046
10111W        W28315   2.082   3.176   4.790 -0.2035  0.0998  0.0646
10112W        W28316   9.185   3.853  17.204  0.0697  0.3366  0.2186
10113W        W28317  13.304  12.374   4.152 -0.3375 -0.1686 -0.3017
10114W        W28318  13.606  11.207   4.897  0.1950 -0.1166  0.0885
10115W        W28319   5.556   4.447   0.797  0.2408  0.0885  0.2573
10116W        W28320   0.257   6.459  12.946 -0.2609  0.1658  0.0315
10117W        W28321   0.602   9.250  14.247 -0.0715 -0.0149 -0.0569
10118W        W28322  13.563  12.616  16.669  0.2880  0.0309 -0.4340
10119W        W28323   4.289   3.381   4.857 -0.1969 -0.0221 -0.4582
10120W        W28324  16.967   6.997   2.833 -0.0527 -0.0275 -0.1309
10121W        W28325   4.932  10.313   0.243 -0.1142  0.1695  0.1449
10122W        W28326  10.077  11.367   4.748  0.0328  0.0143  0.1195
10123W        W28327  15.196   3.608   1.994  0.1421  0.3415  0.0609
10124W        W28328  15.419   3.910   1.167 -0.1876 -0.2318 -0.0622
10125W        W28329   9.885  16.230  16.566  0.2641  0.5178 -0.1521
10126W        W28330  16.294   9.213   2.855 -0.1998  0.0600 -0.0640
10127W        W28331   9.881  14.722   2.916  0.1049  0.0522  0.1283
10128W        W28332  10.789   3.812   1.624  0.1924 -0.2267 -0.0842
10129W        W28333   4.102   7.603  13.754 -0.0108 -0.3778 -0.1458
10130W        W28334   9.839  10.907  17.157 -0.1170 -0.2642  0.1972
10131W        W28335   0.492   8.167   5.499 -0.3941  0.2358 -0.0754
10132W        W28336   2.662   3.584   3.062  0.1080  0.2363 -0.4606
10133W        W28337   6.367   2.456  14.437 -0.1437 -0.0547  0.4846
10134W        W28338   6.623  13.720   1.984 -0.1063 -0.2662 -0.0895
10135W        W28339  14.396  14.139  17.019 -0.0373  0.1049 -0.0971
10136W        W28340  10.852   8.803   4.161  0.1724 -0.5640 -0.2488
10137W        W28341   6.919   6.111   0.657 -0.0340  0.0621  0.0754
10138W        W28342  16.959   5.923   0.521  0.1506 -0.4129  0.0270
10139W        W28343   5.736   8.104   2.933 -0.2583  0.0329 -0.0685
10140W        W28344  15.880   6.352  16.163 -0.0193  0.2404  0.0204
10141W        W28345   8.346   8.214   2.234 -0.0365  0.1103 -0.1309
10142W        W28346   9.960  10.676   3.998 -0.2007  0.0591 -0.1833
10143W        W28347   7.198   4.819   3.731 -0.2556 -0.1817 -0.2288
10144W        W28348   8.446   8.995  13.457 -0.0613 -0.0076  0.0977
10145W        W28349  16.858  12.373   0.305 -0.2208 -0.0963 -0.1367
10146W        W28350   9.893  13.931   0.572 -0.1049 -0.1210 -0.1687
10147W        W28351   0.530  12.541  17.374  0.0179 -0.1557 -0.3803
10148W        W28352   3.235  11.330  13.607 -0.2775  0.1996  0.0836
10149W        W28353  13.454  16.534  16.277  0.0898  0.0423 -0.1893
10150W        W28354   0.512   3.794  16.987 -0.0238  0.2311 -0.0030
10151W        W28355  10.573   8.797   1.045 -0.0674 -0.1483 -0.0843
10152W        W28356   8.204   7.796  14.995  0.0984  0.1849 -0.1272
10153W        W28357  16.764   9.901   1.156 -0.0088  0.1187 -0.3126
10154W        W28358  16.645   0.576  13.478 -0.2321 -0.0301 -0.0866
10155W        W28359   8.221  14.134   5.641 -0.2750 -0.0130  0.2877
10156W        W28360   1.338  12.080   1.054 -0.0338  0.1990  0.3852
10157W        W28361  10.465   0.701   4.811 -0.2040 -0.1262  0.2442
10158W        W28362  15.126  11.970   2.339 -0.2369  0.0452 -0.1267
10159W        W28363   8.270  15.801   4.778  0.0425  0.2173 -0.1622
10160W        W28364  13.499  16.757   2.750  0.2722 -0.2400 -0.1266
10161W        W28365  12.243   9.943   1.296 -0.1220  0.1886  0.2028
10162W        W28366  10.927  12.073   0.912 -0.2375  0.0220  0.1788
10163W        W28367  15.499  14.626   0.222 -0.0256  0.2179  0.1660
10164W        W28368   2.968   0.768   3.112  0.0825 -0.0188 -0.1422
10165W        W28369   3.362   3.456   3.029 -0.2417 -0.1443  0.1744
10166W        W28370   4.536   2.023   3.370 -0.2543  0.1280 -0.0666
10167W        W28371   2.850   9.600  17.281 -0.2319  0.0798 -0.1854
10168W        W28372   0.065   8.195  15.764 -0.1120  0.0869 -0.0762
10169W        W28373  10.899   1.126  15.648 -0.1423  0.2222 -0.0802
10170W        W28374  16.384   0.063   2.605  0.0177 -0.2302  0.1325
10171W        W28375   8.610   4.777  13.163 -0.1578  0.0226  0.1822
10172W        W28376   6.233  15.063  14.096 -0.0952  0.1892 -0.0117
10173W        W28377  10.618  14.894   5.491  0.3341 -0.2356  0.0073
10174W        W28378   3.443  14.483   1.255 -0.1361  0.1616 -0.0306
10175W        W28379  12.524  14.637  13.100 -0.0339 -0.1565 -0.2137
10176W        W28380   6.864   5.389  17.230 -0.0267  0.1844 -0.2649
10177W        W28381  16.504   6.514  13.172 -0.1237 -0.1213  0.2531
10178W        W28382  13.066   2.437   1.637  0.1569  0.2634 -0.1581
10179W        W28383   7.659   8.713  16.825  0.1089 -0.3377 -0.1529
10180W        W28384  13.800   9.395  14.754 -0.4349 -0.0914  0.0206
10181W        W28385   9.585   1.695   3.374 -0.0395  0.1155 -0.1733
10182W        W28386   5.422   9.568  15.619 -0.2551  0.0048  0.0000
10183W        W28387   1.442  16.521  13.245  0.1107  0.0125 -0.1660
10184W        W28388  13.064  13.885   0.504 -0.0001  0.1211 -0.0641
10185W        W28389   6.315  10.368  12.443  0.1855 -0.3770 -0.2749
10186W        W28390   5.282  10.527   3.003  0.2889  0.1683 -0.1238
10187W        W28391   8.942   7.265  15.374  0.2891  0.0875 -0.0826
10188W        W28392   5.938   6.225  14.116  0.2042  0.0653  0.2312
10189W        W28393   3.197   0.683   4.464 -0.1300  0.0002  0.2680
10190W        W28394  15.978  13.743   4.372 -0.0602  0.0207 -0.2369
10191W        W28395   5.336  15.854  15.090  0.0250 -0.1414 -0.1969
10192W        W28396  12.464  13.822   0.230  0.1641  0.1534 -0.1160
10193W        W28397   7.744   5.652  12.538  0.0768 -0.0899  0.2295
10194W        W28398  11.501  14.317  13.771 -0.2198 -0.2044 -0.2032
10195W        W28399   4.753   6.218   0.233 -0.1600 -0.1751 -0.1756
10196W        W28400  10.181   3.267  14.694  0.1122  0.0651  0.0021
10197W        W28401   9.458  17.052  15.180 -0.2581 -0.0647 -0.0653
10198W        W28402   4.833  12.882   3.196  0.0326 -0.0769  0.1800
10199W        W28403   2.343  16.132  12.410  0.1438  0.2428  0.2416
10200W        W28404   6.399  11.346   0.382 -0.0716 -0.1104 -0.1186
10201W        W28405  17.148   2.743   0.973  0.0159  0.1248 -0.0324
10202W        W28406   4.898   6.229  16.953 -0.0957  0.1281  0.1694
10203W        W28407  13.785   6.505   2.298 -0.4176  0.1812 -0.1785
10204W        W28408   3.754  15.442  14.661 -0.2899 -0.2363  0.4456
10205W        W28409   4.592   6.452  12.603  0.1391  0.0747  0.0251
10206W        W28410  15.248   8.172  12.276 -0.0842 -0.1821 -0.1157
10207W        W28411  12.042   4.182  15.739 -0.1551  0.0568  0.1387
10208W        W28412  15.297   7.027  15.849  0.0426  0.1786 -0.3206
10209W        W28413  13.724   9.069  12.262 -0.0232  0.1676  0.0216
10210W        W28414  12.678  15.468  14.634  0.1484  0.2390  0.1600
10211W        W28415   4.332   3.361   3.298 -0.0837  0.1022  0.0264
10212W        W28416   6.130   0.980   1.314  0.0277 -0.3020 -0.3065
10213W        W28417   2.636  12.007   0.119  0.1642  0.0881  0.0279
10214W        W28418   0.983  13.491   3.699  0.0512 -0.5154 -0.1166
10215W        W28419  10.706  10.952  16.091  0.1273  0.1289  0.0506
10216W        W28420  13.131   3.904  16.507  0.5299  0.1644  0.0739
10217W        W28421   3.941  16.207  16.197 -0.2192  0.2679  0.0866
10218W        W28422   0.805   5.717   3.200 -0.1973  0.0382  0.0005
10219W        W28423  16.331  13.546   3.933  0.0528 -0.3267 -0.2674
10220W        W28424   0.825  14.811  12.818  0.0361  0.2189  0.2114
10221W        W28425   7.145  16.673   2.019 -0.0641  0.0353  0.2867
10222W        W28426  12.908   3.449   5.126  0.0788 -0.4328 -0.2386
10223W        W28427  16.723   2.585  15.097 -0.0055 -0.0278  0.3088
10224W        W28428   3.981  15.717  16.340 -0.0911 -0.0312 -0.2236
10225W        W28429   7.247  11.197  15.549 -0.1678  0.3388 -0.0471
10226W        W28430   5.807  16.116   3.312 -0.0653 -0.1125 -0.1833
10227W        W28431   3.908   3.983   0.627 -0.1705  0.0274  0.5160
10228W        W28432  16.830   3.180   4.371 -0.2213  0.0946 -0.1371
10229W        W28433   6.999   9.848   2.361 -0.1332 -0.0583  0.3182
10230W        W28434   8.131  12.813   3.698 -0.1584  0.1473  0.0590
10231W        W28435   5.287   5.250  16.967 -0.1241 -0.0131 -0.1741
10232W        W28436  16.883   5.869  14.072 -0.1583 -0.2323  0.0499
10233W        W28437   9.757  16.339  14.508  0.0449  0.0132 -0.1842
10234W        W28438   3.394   1.392   0.646 -0.0419 -0.1074 -0.3062
10235W        W28439  10.971  15.005  14.111 -0.0123  0.0897  0.1069
10236W        W28440   7.603   4.685  17.327  0.0771  0.2021 -0.3184
10237W        W28441  16.548  12.424  16.531 -0.4848 -0.1198 -0.2542
10238W        W28442   3.765  12.930   3.469  0.0751 -0.0560  0.1807
10239W        W28443   0.348   0.635   0.114  0.0852 -0.1685 -0.1505
10240W        W28444  14.035  14.270   4.718 -0.0008 -0.0456  0.2483
10241W        W28445  10.719   1.927  12.560 -0.2817 -0.1510  0.1846
10242W        W28446  13.132  12.228   1.982 -0.1136  0.2334  0.1915
10243W        W28447   6.509  12.786   1.778  0.0810  0.3142  0.1500
10244W        W28448   8.947   2.334  17.195 -0.0148  0.0006  0.2946
10245W        W28449   1.242  11.832   0.098  0.2114 -0.0020  0.1360
10246W        W28450   8.170   8.772   0.152 -0.0171  0.1110  0.1224
10247W        W28451  15.720   4.824   2.206  0.0211  0.0002  0.2230
10248W        W28452  12.654  15.265   5.003 -0.0720 -0.0922  0.0373
10249W        W28453   2.910  14.891   2.201 -0.1855 -0.3481  0.1204
10250W        W28454  16.311   4.531  12.035  0.0720 -0.2231 -0.2346
10251W        W28455   7.613  15.173   0.717  0.1942  0.1640 -0.1794
10252W        W28456  13.064  16.538  14.588 -0.1717  0.0290  0.1155
10253W        W28457   3.721   7.406   3.739 -0.2974  0.0456  0.0367
10254W        W28458   4.674   4.336  16.047 -0.2708  0.1889  0.1053
10255W        W28459  11.307  13.946   2.623  0.0473  0.3796  0.1515
10256W        W28460  10.841  13.954   3.385 -0.2714 -0.0353  0.0239
10257W        W28461  14.761   5.208   1.317  0.0984  0.1086  0.1674
10258W        W28462  11.064  11.253  15.020  0.1577  0.2208 -0.0539
10259W        W28463   2.498   2.872  14.902 -0.0054 -0.0019  0.0607
10260W        W28464   8.187   0.215  16.450 -0.2799 -0.1440 -0.4359
10261W        W28465  16.732   7.139  13.775  0.1889  0.1374  0.0685
10262W        W28466  14.810   1.025  15.667  0.1511  0.2577  0.1596
10263W        W28467   7.365   9.951  13.086  0.3637  0.3150  0.3009
10264W        W28468   5.652   6.315  13.247  0.1013 -0.0807  0.1644
10265W        W28469   7.488   1.440  11.925  0.2593  0.1771 -0.2001
10266W        W28470   5.817  15.701  14.940 -0.0903  0.0715 -0.1718
10267W        W28471   8.441  15.561   1.316 -0.1224  0.0700 -0.1163
10268W        W28472   4.632  10.982  16.451 -0.3259  0.2455 -0.2189
10269W        W28473   8.687  10.632   5.709 -0.2802 -0.1298  0.0529
10270W        W28474  14.606   8.878   2.658  0.1705  0.0895 -0.1366
10271W        W28475  11.026   1.969  15.395 -0.0497  0.0896  0.1663
10272W        W28476   1.743   2.241  15.017 -0.1526  0.0051 -0.0084
10273W        W28477   4.623   7.115  12.974 -0.1674  0.0053 -0.2116
10274W        W28478  15.118  14.339  16.961  0.1939  0.0962  0.2081
10275W        W28479  14.789   7.137   5.576  0.0900  0.4419 -0.0441
10276W        W28480   3.491   9.740  15.805 -0.2274  0.0347 -0.0469
10277W        W28481   2.268  11.852  12.403  0.0305  0.2192  0.0945
10278W        W28482  17.269   4.403   3.925  0.4831  0.3461  0.1292
10279W        W28483   9.499  14.293   1.269 -0.4007  0.0097 -0.0102
10280W        W28484  17.028  17.052  12.237 -0.0838  0.1006  0.2457
10281W        W28485  16.845   9.331  16.076  0.6205  0.2567  0.2128
10282W        W28486   9.353   4.293   5.550 -0.2291 -0.3330 -0.1157
10283W        W28487  11.441   0.078  17.362 -0.1018 -0.2668 -0.0128
10284W        W28488   0.682   4.753  14.321 -0.3419 -0.1573  0.0182
10285W        W28489   6.027  16.827  14.630 -0.1195 -0.0483 -0.1427
10286W        W28490   8.847   1.341  14.592  0.2453 -0.1099 -0.0267
10287W        W28491  10.144   9.746   4.095 -0.2366 -0.1957 -0.1122
10288W        W28492   0.621   3.010   1.527 -0.2623  0.0382  0.2138
10289W        W28493   6.033  14.676  15.800 -0.0517  0.0701 -0.0949
10290W        W28494   5.432   3.693   0.438  0.1343  0.2308  0.2346
10291W        W28495   3.970   6.293   0.633 -0.0431 -0.3272 -0.1304
10292W        W28496  14.103   3.363  12.230  0.3579  0.0559 -0.1067
10293W        W28497   6.363   4.898   3.006  0.1574  0.0206 -0.3273
10294W        W28498   0.631   4.408  15.861  0.0636  0.1539  0.1007
10295W        W28499  11.226   2.685   3.592  0.0880  0.0986  0.3733
10296W        W28500  16.154   9.957  14.028  0.2160  0.1144  0.0665
10297W        W28501   3.383  13.981   1.197 -0.1391 -0.0819 -0.2775
10298W        W28502  11.228   4.257  12.716 -0.1432 -0.1211 -0.1395
10299W        W28503   0.074  10.972   0.953 -0.0044 -0.0608 -0.0905
10300W        W28504  10.443  15.677   1.856  0.0258 -0.0692 -0.0953
10301W        W28505  10.011   7.474  16.981  0.0744 -0.1062  0.1699
10302W        W28506  15.762   9.515  15.461 -0.0245 -0.3575 -0.0679
10303W        W28507   1.677   8.164   2.727 -0.1924  0.0783 -0.2039
10304W        W28508  14.137   5.766  16.118 -0.0120 -0.0902 -0.0874
10305W        W28509  15.068  15.163   2.773 -0.2365  0.0244  0.2060
10306W        W28510   7.746  10.181   3.371 -0.0943 -0.1204 -0.0988
10307W        W28511  15.617   1.756   3.382  0.3432 -0.0433 -0.0949
10308W        W28512   4.272  12.215   2.967 -0.1572 -0.0859  0.1364
10309W        W28513   3.964   5.201  12.417  0.0360  0.2395 -0.2326
10310W        W28514  10.765   7.354   1.279  0.3211 -0.0322 -0.1462
10311W        W28515  16.491  15.774  12.571 -0.0868 -0.0312  0.0573
10312W        W28516  11.304   2.135  16.873  0.0224 -0.0439 -0.0573
10313W        W28517   8.455   4.834   3.143 -0.0846  0.0113  0.0093
10314W        W28518   7.560   9.090   3.840 -0.0427  0.1453 -0.0922
10315W        W28519   2.390  14.114   3.688 -0.0592 -0.1614 -0.4207
10316W        W28520   6.951   3.651   6.151  0.1649 -0.1142  0.1253
10317W        W28521   9.829  10.430  16.545  0.1224 -0.0541 -0.0578
10318W        W28522  15.319   5.734  13.762 -0.2840  0.2147  0.0412
10319W        W28523   0.431  12.918  13.798  0.1255  0.1041 -0.1122
10320W        W28524   1.887   9.004  13.924 -0.1848 -0.1031 -0.0323
10321W        W28525   6.884   4.840   2.258  0.0129  0.2479  0.0369
10322W        W28526   5.694   5.095  10.671 -0.2790  0.0149 -0.1559
10323W        W28527   2.145  11.251   5.468  0.3166  0.4950  0.0352
10324W        W28528   7.907  10.582   3.614  0.0556  0.1168  0.0245
10325W        W28529   3.681   2.666   1.064  0.0332  0.2118 -0.1383
10326W        W28530   5.070  12.933  16.273  0.1266 -0.0568  0.0983
10327W        W28531  13.511  17.085  16.535  0.1043  0.0184  0.1782
10328W        W28532   5.696   0.427  13.715  0.0737 -0.0479 -0.2071
10329W        W28533   0.009   3.852  14.768  0.1229  0.2603  0.0298
10330W        W28534   7.990   4.122   4.107  0.1342 -0.0161  0.0806
10331W        W28535   6.186  11.781   1.583 -0.2843 -0.0599 -0.0251
10332W        W28536   3.996   4.390  16.806 -0.0917 -0.0009  0.3079
10333W        W28537  10.219  17.208   2.649  0.0161 -0.0683 -0.4409
10334W        W28538  17.092  16.997  14.070 -0.1117 -0.2371  0.0053
10335W        W28539  11.561   0.899   3.675  0.0486 -0.3514 -0.0383
10336W        W28540   1.891   1.645  15.614 -0.1806  0.1258 -0.2198
10337W        W28541   4.192   7.500   2.785 -0.0688 -0.1985 -0.0921
10338W        W28542  16.944  13.433  15.089 -0.3628 -0.0481 -0.0639
10339W        W28543   1.626  16.595   2.542  0.1182 -0.1061 -0.1205
10340W        W28544  13.065   0.006  16.469  0.0014  0.2485 -0.0431
10341W        W28545   6.746   0.416   3.535  0.0787 -0.2754 -0.0976
10342W        W28546   0.126   6.020  17.327  0.2444 -0.2186 -0.3387
10343W        W28547  10.079   7.959  16.678 -0.3613 -0.2428 -0.0143
10344W        W28548   5.427   8.598  14.082  0.1710 -0.0020 -0.2288
10345W        W28549  16.002   4.304  13.131  0.0529 -0.3399  0.2455
10346W        W28550   5.211   8.375  15.607  0.0654  0.1588  0.2493
10347W        W28551  14.160  11.642   3.946  0.0266  0.1885 -0.4122
10348W        W28552  16.978   2.631   1.444  0.2178 -0.0766 -0.1734
10349W        W28553  11.420   0.751   5.373  0.0718 -0.0018  0.2055
10350W        W28554   1.571   0.305   4.865  0.2042 -0.0758  0.0325
10351W        W28555  15.941   4.176   5.454 -0.1892 -0.1842 -0.0736
10352W        W28556   4.983  11.013   5.077  0.2272 -0.4405 -0.3794
10353W        W28557   4.289  11.124   2.579 -0.3491 -0.2797 -0.1960
10354W        W28558  11.459   1.423  13.779  0.2253 -0.0275 -0.1876
10355W        W28559  10.852   9.926  13.322  0.1485  0.2253 -0.1182
10356W        W28560   4.232  14.764   1.798  0.1384  0.3687  0.0664
10357W        W28561   3.946   3.985  16.000 -0.0389 -0.2902 -0.0631
10358W        W28562   0.068  14.296   1.214 -0.2980 -0.0373  0.0804
10359W        W28563   5.864  13.004   0.812 -0.3618  0.1524  0.2427
10360W        W28564   6.687  12.550  15.206  0.1707 -0.0603  0.1826
10361W        W28565  15.156  11.406   0.580 -0.1995  0.1667 -0.0448
10362W        W28566  15.986   3.580  16.104 -0.0359  0.0568 -0.3666
10363W        W28567  13.142   8.092   1.922 -0.0934 -0.0572 -0.1089
10364W        W28568   7.051  14.824  13.282 -0.4816  0.1566 -0.1268
10365W        W28569   0.266   8.934   0.465  0.1588 -0.3009  0.0001
10366W        W28570  12.801   2.343   0.428 -0.1079  0.4951  0.0139
10367W        W28571  13.625  16.125  12.631  0.0514 -0.0665 -0.0502
10368W        W28572   5.797  11.072  13.052 -0.1239 -0.0869 -0.0668
10369W        W28573   8.655   6.436   4.919 -0.0874 -0.0135 -0.1690
10370W        W28574   1.094   9.653   5.721  0.2005 -0.3915  0.1198
10371W        W28575   0.718   3.519  12.418  0.2160 -0.1119  0.0296
10372W        W28576   1.023  14.044   1.312  0.0343  0.2017  0.1802
10373W        W28577  15.845   4.124   0.828 -0.0088 -0.0897 -0.2469
10374W        W28578   4.945   3.888   3.539 -0.1089  0.0902 -0.2137
10375W        W28579   9.334   1.608   5.164 -0.0181  0.3635 -0.2130
10376W        W28580  12.781  15.776   3.300  0.0803 -0.1453  0.0651
10377W        W28581  14.517   8.565  14.965  0.1176  0.0092  0.0313
10378W        W28582   9.233  10.207   4.109 -0.0802  0.0461  0.0230
10379W        W28583   6.758   9.212  15.980 -0.3137 -0.2265 -0.1741
10380W        W28584  11.700   2.265  13.388 -0.1653 -0.1007  0.0635
10381W        W28585   5.631   7.783   1.208  0.0125  0.1636 -0.1497
10382W        W28586   8.638  12.376   0.006  0.0098 -0.0009  0.0037
10383W        W28587  15.319  16.276  12.949  0.1687  0.0654  0.3853
10384W        W28588  15.896   7.890   3.418  0.2177  0.4090 -0.1731
10385W        W28589  16.783  14.753   2.499  0.2664 -0.2420 -0.2022
10386W        W28590  10.420   4.396   0.286  0.0255  0.1040 -0.3029
10387W        W28591  12.173   1.548   2.606 -0.2338 -0.1624  0.1603
10388W        W28592  11.679   5.733  15.641 -0.1879 -0.2833  0.0484
10389W        W28593  16.076  11.949   4.293 -0.0215 -0.0712  0.1455
10390W        W28594   9.466   4.321  17.137 -0.0422 -0.0633 -0.1234
10391W        W28595   2.409  16.167   2.196  0.0733 -0.0052  0.1190
10392W        W28596   2.843   7.550   3.459 -0.0666  0.0922 -0.1230
10393W        W28597   2.334  16.288  13.448  0.3194  0.0456  0.0213
10394W        W28598   7.331  15.457  12.458  0.2518 -0.0856 -0.1434
10395W        W28599   0.435  13.647  13.011  0.0734 -0.1218  0.1164
10396W        W28600  10.544   9.212   1.853  0.1218 -0.1179  0.2371
10397W        W28601   2.821  16.098  12.596 -0.1084 -0.1098  0.2954
10398W        W28602   6.169   3.427  16.057 -0.0070 -0.0998 -0.0188
10399W        W28603   1.755  15.858   2.786 -0.1530 -0.4838 -0.1399
10400W        W28604   4.430   2.440   4.788  0.0175  0.0934 -0.0800
10401W        W28605   8.055   3.817  17.308 -0.3298  0.0035  0.1251
10402W        W28606  12.849   9.181   5.131 -0.0984  0.0570 -0.0750
10403W        W28607   1.164  10.653   2.015 -0.0838  0.0307 -0.3127
10404W        W28608  14.951  13.994  12.954 -0.0522 -0.1694 -0.2457
10405W        W28609   4.727  16.604  17.274 -0.0441  0.1283 -0.2298
10406W        W28610   9.075   9.490  15.061 -0.4628 -0.0280 -0.2368
10407W        W28611   6.156  11.359  17.342 -0.0266  0.1318 -0.0932
10408W        W28612  15.534   3.433  13.182 -0.1899  0.0311 -0.1360
10409W        W28613   1.859  10.408   4.399 -0.2176  0.0694  0.1044
10410W        W28614   4.545   4.511   4.119 -0.0729  0.0730  0.0358
10411W        W28615   6.562   6.494   4.223 -0.0225 -0.1052  0.1792
10412W        W28616  17.062  15.543   3.846  0.0731  0.1688 -0.3718
10413W        W28617  10.540  13.357   4.643  0.1448 -0.3552 -0.0076
10414W        W28618   1.450   4.778   5.354  0.0139  0.0548  0.1665
10415W        W28619  10.340  14.833   3.184 -0.0132  0.1012 -0.1047
10416W        W28620  11.443   9.110   3.438 -0.3003 -0.0575  0.0934
10417W        W28621   9.858   7.379  13.266 -0.0481 -0.3189  0.1257
10418W        W28622  16.124  15.112  16.197 -0.3894  0.2654 -0.1260
10419W        W28623   8.195  13.411  15.564  0.3021 -0.1321  0.2092
10420W        W28624   7.767   5.312   2.694  0.0383  0.2313  0.2242
10421W        W28625   9.796   8.102  16.332  0.3952  0.4956 -0.1468
10422W        W28626  13.037   7.228  15.274 -0.0705 -0.1596  0.1345
10423W        W28627   1.647  14.934   4.910  0.0897 -0.0304 -0.0466
10424W        W28628  10.631   2.305  15.153  0.1102 -0.3286 -0.0982
10425W        W28629  16.814  12.877   5.087 -0.1852  0.1228 -0.0887
10426W        W28630  12.142  12.757  14.448  0.0726  0.0202 -0.2045
10427W        W28631   5.552  16.484  15.586 -0.1709  0.0741 -0.0660
10428W        W28632   2.940   7.641  16.976  0.0164  0.2555 -0.1754
10429W        W28633   2.383   5.369   2.778 -0.2082 -0.2041 -0.2100
10430W        W28634   8.648   1.247   3.445  0.2712  0.2509 -0.1526
10431W        W28635   3.358  15.747  14.974  0.2370 -0.0829  0.3169
10432W        W28636   2.288   4.200  12.686 -0.2568 -0.2628 -0.3144
10433W        W28637   8.958  16.431  13.295  0.2415  0.0838 -0.0583
10434W        W28638   4.507   2.145  14.404  0.1057  0.1544 -0.0137
10435W        W28639   5.145   6.755   3.682  0.0041  0.1513 -0.0957
10436W        W28640  12.489  10.992  16.587  0.2660  0.4307  0.1429
10437W        W28641  14.795   4.993  12.853  0.3694 -0.1416 -0.2204
10438W        W28642  14.035  10.456   3.943  0.1852  0.1164 -0.1132
10439W        W28643  12.301   2.385  16.710 -0.1079  0.1273 -0.1895
10440W        W28644  16.601  11.596  15.598 -0.1637  0.0184  0.1822
10441W        W28645  10.066   7.752   2.042  0.1924  0.0172  0.0622
10442W        W28646  11.108  16.659  16.712 -0.2823 -0.2624 -0.1714
10443W        W28647   6.626   5.337  14.726  0.2032 -0.1821  0.1322
10444W        W28648   6.302   7.295   3.346 -0.0604 -0.0026  0.0509
10445W        W28649  14.170   9.453  14.407  0.1026 -0.1202 -0.2482
10446W        W28650  13.810   9.794   2.097 -0.1050  0.0108  0.0819
10447W        W28651   5.148  16.821  17.061  0.1149 -0.0346  0.0431
10448W        W28652   7.100   4.487   4.033  0.0309  0.0186 -0.2031
10449W        W28653  12.108   5.395  15.326 -0.3385  0.0928  0.2207
10450W        W28654   1.105   8.861   5.289 -0.5209  0.0120  0.3864
10451W        W28655  10.732   2.218   3.085  0.1344  0.0570  0.0814
10452W        W28656   5.858  11.119  12.577  0.1924 -0.0964 -0.0613
10453W        W28657  13.844   2.779  16.783 -0.0375  0.0839 -0.1900
10454W        W28658  11.214   0.054  13.346  0.0464  0.1012  0.1248
10455W        W28659  12.325  14.615   0.235 -0.2739  0.0614  0.1473
10456W        W28660   5.176   2.188   4.189  0.1607  0.0405 -0.0370
10457W        W28661   2.102   2.940  15.653 -0.3245  0.3483 -0.0432
10458W        W28662   2.501   9.641   3.257 -0.4212  0.2543  0.0297
10459W        W28663   1.031   0.353   3.239  0.1094 -0.3223  0.0594
10460W        W28664   4.548   6.457  14.197  0.1122 -0.1096 -0.0529
10461W        W28665   5.074  14.202  12.647  0.0461  0.0396  0.0732
10462W        W28666   3.789   2.111  12.642 -0.1390 -0.2051 -0.0173
10463W        W28667   2.639   2.363  13.664 -0.1291  0.0949 -0.0125
10464W        W28668   6.033  10.624  15.740 -0.4411 -0.0603  0.2135
10465W        W28669   6.565  16.513  12.960 -0.0261  0.1312 -0.1932
10466W        W28670   9.246   7.801  12.467 -0.0078 -0.1752 -0.0125
10467W        W28671   8.104   6.152  12.619 -0.0306 -0.1144 -0.0337
10468W        W28672   8.988   9.231  12.263  0.2058  0.1724 -0.2756
10469W        W28673   5.504  16.359  16.234 -0.2305  0.1733 -0.5228
10470W        W28674  11.401   3.687   1.932 -0.2804 -0.1249 -0.2597
10471W        W28675  14.242  12.550   1.189  0.2828  0.0021 -0.0762
10472W        W28676   6.359  12.570  17.232 -0.1135  0.2975 -0.0067
10473W        W28677   6.436   4.180  16.709 -0.0713 -0.0456  0.1893
10474W        W28678   2.372   4.364   4.407 -0.0069 -0.1100  0.0044
10475W        W28679   5.264   8.877  15.822  0.2017  0.0229  0.0658
10476W        W28680  15.682  12.659   0.962  0.0302  0.0022  0.2125
10477W        W28681  16.078   6.032   0.990  0.2420 -0.3453 -0.0674
10478W        W28682   9.249   3.462  16.872 -0.1580  0.1981  0.1253
10479W        W28683  12.945   2.550   0.962  0.2027  0.0648  0.2083
10480W        W28684  16.280   4.246   2.510 -0.1923  0.1589  0.2934
10481W        W28685   5.083  12.112  15.943  0.3506  0.1138 -0.0186
10482W        W28686   9.863   2.203  13.200  0.1317 -0.0394  0.1020
10483W        W28687   7.073  16.983   4.791 -0.0257  0.2457  0.0962
10484W        W28688  12.011   8.805   2.532 -0.2603 -0.2963  0.0619
10485W        W28689   2.674  13.437   4.404  0.1976 -0.3614 -0.1821
10486W        W28690  15.561   1.849  12.428  0.2377 -0.1268 -0.0854
10487W        W28691  12.417  10.767  15.724  0.1715  0.0372  0.3044
10488W        W28692   4.740   9.410  12.801  0.3859  0.1713 -0.0348
10489W        W28693  13.809   0.290   3.921  0.1060 -0.0563 -0.0327
10490W        W28694  12.794  16.352   4.318  0.3322 -0.0514 -0.4887
10491W        W28695  16.212  10.408   4.307 -0.2516  0.1068 -0.3662
10492W        W28696  12.075  10.922  13.973 -0.0255  0.1558 -0.0092
10493W        W28697   7.228   1.144  16.658 -0.1370  0.0415 -0.0380
10494W        W28698   1.527   8.272  14.606  0.3357 -0.2154 -0.2161
10495W        W28699   4.773   1.001  17.491  0.0214  0.0797  0.0158
10496W        W28700  12.587   4.240  14.745  0.1423  0.1454  0.0262
10497W        W28701  12.433  15.516   3.057 -0.2477 -0.2220  0.4271
10498W        W28702  10.356  15.058   2.643 -0.0813  0.1265 -0.1271
10499W        W28703   5.606  11.242  14.888  0.1754 -0.2900 -0.1923
10500W        W28704   1.734  13.087  17.360 -0.4441 -0.0071  0.2006
10501W        W28705  11.777   9.863  16.594  0.1003  0.0006  0.3597
10502W        W28706   1.266   1.600  16.038  0.2119  0.1280  0.2522
10503W        W28707  12.248  11.477   0.420  0.1237  0.0704 -0.0295
10504W        W28708   5.514   8.004  14.387 -0.3356  0.0727  0.0626
10505W        W28709   2.820   4.048   3.099 -0.2214  0.1258 -0.0943
10506W        W28710   8.992   0.600  13.464  0.1368 -0.0169  0.2916
10507W        W28711  12.308   0.531   0.133 -0.3201 -0.1357 -0.0531
10508W        W28712   4.129  16.645  16.866  0.1262 -0.2626 -0.1862
10509W        W28713   4.676   5.799   4.976 -0.0079 -0.4908  0.2367
10510W        W28714  12.044   5.189   2.094 -0.1474  0.0271  0.2374
10511W        W28715   0.600   9.089   2.521  0.2942 -0.0590  0.1172
10512W        W28716   6.407   6.267   2.272 -0.1637 -0.1426 -0.2428
10513W        W28717   2.017   0.195   4.624 -0.0090  0.2848 -0.1890
10514W        W28718  10.702  16.388  17.109  0.1003  0.0200 -0.1918
10515W        W28719   7.172   8.456   2.816 -0.0440 -0.3104 -0.0708
10516W        W28720  16.030  16.788  15.354 -0.2305  0.0807 -0.0009
10517W        W28721   5.472   5.948  14.118 -0.1577  0.1072 -0.1978
10518W        W28722   9.142   4.626   4.092 -0.1559  0.1143 -0.1688
10519W        W28723   4.387   4.275  13.932 -0.0949 -0.0934 -0.0957
10520W        W28724  13.911   0.039   5.485 -0.2785  0.0796 -0.0186
10521W        W28725   1.953   3.879  14.274 -0.0312  0.1668 -0.0617
10522W        W28726   4.132  14.923  15.506 -0.3335 -0.1090  0.3279
10523W        W28727  14.425  16.249  16.799 -0.2126 -0.1530  0.2509
10524W        W28728   3.400  16.696   0.080  0.1391 -0.1614 -0.0746
10525W        W28729   8.361  12.474  11.992  0.0385  0.0069  0.0460
10526W        W28730   7.912   3.347   4.650 -0.1249  0.2418 -0.0265
10527W        W28731   3.694   9.128   1.294  0.1750  0.1769 -0.0179
10528W        W28732   9.352   0.657  13.825  0.0830 -0.1129  0.1395
10529W        W28733  15.294   0.660  13.141 -0.2157  0.0244  0.0161
10530W        W28734   7.312   8.025  14.583 -0.1342 -0.3234  0.2843
10531W        W28735  14.584   0.473  12.261  0.0445  0.0642 -0.1804
10532W        W28736   6.650  11.320  13.327 -0.1245 -0.3944  0.1009
10533W        W28737  11.900   5.092   3.454 -0.1123 -0.0367 -0.0287
10534W        W28738  16.693  14.883  16.730  0.2505  0.1036 -0.1328
10535W        W28739   9.933  10.348  15.472 -0.0710  0.0799 -0.4112
10536W        W28740   0.830   6.217   2.027 -0.0207  0.1131 -0.2560
10537W        W28741   0.319   0.230   1.709 -0.0441  0.0954 -0.0023
10538W        W28742  15.150  14.592  15.544 -0.0871  0.0671 -0.0594
10539W        W28743   9.919   1.777  16.702  0.0718 -0.1165 -0.1956
10540W        W28744   7.272  14.423  15.722 -0.0114  0.1483  0.0520
10541W        W28745   8.793  13.382   5.313  0.2451  0.0688 -0.0475
10542W        W28746   9.914   7.120   4.604 -0.1889 -0.0323  0.1792
10543W        W28747   7.571   5.888   1.802 -0.0499 -0.0464 -0.1136
10544W        W28748   5.888  12.613  15.836 -0.1394  0.3370  0.1393
10545W        W28749  15.799  11.712   2.981 -0.0743 -0.1430  0.3501
10546W        W28750  16.761  10.775   3.017 -0.0325 -0.0708 -0.1164
10547W        W28751  13.966  11.169   0.244 -0.1571  0.1916  0.1636
10548W        W28752   9.405   7.666  13.308 -0.0811  0.0811  0.1475
10549W        W28753  12.973  17.290   3.387 -0.3387  0.1599  0.0734
10550W        W28754   0.874   9.409  15.757  0.1614 -0.0406 -0.0719
10551W        W28755   9.154   6.840   0.656 -0.1681  0.2728 -0.1962
10552W        W28756   9.897   6.801  13.103 -0.0071 -0.3351  0.0963
10553W        W28757   1.239  13.450   0.494 -0.0505 -0.2078  0.2303
10554W        W28758   3.948   3.609   1.012  0.0453  0.3529  0.3640
10555W        W28759   7.856   5.490  16.812  0.1161 -0.1604 -0.2131
10556W        W28760   0.564  15.156  12.427 -0.0046 -0.1024  0.1528
10557W        W28761   2.042   9.341   0.800 -0.0371  0.2665 -0.1628
10558W        W28762   2.024   8.979   4.998  0.1797  0.1881 -0.4763
10559W        W28763   7.204   0.449  13.169  0.0363  0.0485  0.0758
10560W        W28764   7.250  11.638  11.508 -0.0929  0.2527 -0.1298
10561W        W28765   5.870   9.340   2.247 -0.1405 -0.2273  0.2903
10562W        W28766   6.667  16.189  13.332  0.1162  0.0310  0.0260
10563W        W28767   5.468  10.839  13.571  0.0538  0.2162  0.0175
10564W        W28768   6.131   6.812   0.473 -0.4020 -0.0344 -0.0379
10565W        W28769  10.877   1.068   1.843  0.1545  0.0728 -0.2106
10566W        W28770   2.024   9.645   3.334 -0.2309  0.1573  0.1801
10567W        W28771  12.609  11.295  17.481  0.0530 -0.2120 -0.1474
10568W        W28772   3.439   4.981   2.245 -0.1263  0.1806 -0.3371
10569W        W28773  11.404   4.865  15.696  0.1938  0.1392  0.1814
10570W        W28774  14.184   5.742   4.738 -0.0186 -0.0369 -0.0382
10571W        W28775   6.488   0.262  15.044  0.1297  0.1564 -0.3518
10572W        W28776  14.922   7.142  15.506  0.0422 -0.0459  0.1825
10573W        W28777  12.652  11.688   1.704  0.1640  0.0283  0.0432
10574W        W28778   3.371  12.749  16.682 -0.1241 -0.3213  0.0960
10575W        W28779  15.908   6.075   0.023  0.1400  0.0883  0.1675
10576W        W28780  13.831   1.488   1.526 -0.0337 -0.0301 -0.0475
10577W        W28781   0.766   9.441  15.222 -0.3716 -0.0380 -0.1236
10578W        W28782   4.824  15.536  13.483  0.1758  0.2120  0.1724
10579W        W28783   2.865  12.408  15.434 -0.1139 -0.0815  0.3592
10580W        W28784  14.491   8.743   0.433 -0.1116  0.0810  0.1652
10581W        W28785  11.682  14.580   5.667 -0.0661 -0.1836 -0.0863
10582W        W28786  10.832   5.752   4.012 -0.0444 -0.1552  0.1478
10583W        W28787  12.728  10.922  17.102 -0.2168 -0.0366  0.1499
10584W        W28788   4.451   2.469   3.683  0.0274 -0.2037 -0.2800
10585W        W28789   4.705   3.042  12.557 -0.1708  0.2659  0.3220
10586W        W28790   4.323   4.914  13.407 -0.1142 -0.1844  0.2979
10587W        W28791   1.938  11.190   3.104  0.2321 -0.1595 -0.0115
10588W        W28792  14.740   0.726   1.296  0.0972 -0.0547  0.1619
10589W        W28793  10.292   1.232   4.858  0.0962 -0.0328 -0.0214
10590W        W28794   9.663   4.781   2.993  0.2566 -0.0676  0.0151
10591W        W28795  15.324   8.223  12.887  0.0521  0.0211 -0.2772
10592W        W28796   4.368   2.556  17.363  0.1358 -0.1264  0.1666
10593W        W28797   1.556   6.282   5.203  0.2618 -0.1071 -0.2709
10594W        W28798   8.127   8.467   2.819 -0.0339  0.1269 -0.0447
10595W        W28799   7.723  12.874   6.176 -0.0917 -0.0207  0.1216
10596W        W28800   9.782   7.531  13.774 -0.0111  0.0798 -0.0105
10597W        W28801   5.145   3.424   5.218  0.2105 -0.1125  0.1464
10598W        W28802   1.268  16.146  17.245  0.4332  0.0309 -0.2677
10599W        W28803   5.879   5.337  13.285  0.0894  0.2378  0.2668
10600W        W28804   1.945   1.265   2.282 -0.0849  0.0082  0.0543
10601W        W28805   7.498  15.993   4.046  0.1103  0.0976  0.0638
10602W        W28806   6.005   0.111  17.339 -0.0978  0.0202 -0.1065
10603W        W28807   9.861   3.660   1.457  0.0467  0.1516 -0.0224
10604W        W28808  12.807   7.214  14.281 -0.0404  0.1610 -0.2525
10605W        W28809   8.180  15.396  15.660 -0.1799  0.4658 -0.2565
10606W        W28810  12.127   7.228  13.327  0.2009 -0.2003  0.2117
10607W        W28811   1.350   7.968  16.810  0.2146  0.0248  0.2693
10608W        W28812   3.780  10.652   5.354  0.0104 -0.0797 -0.0065
10609W        W28813   6.306   5.369   0.171 -0.0374 -0.1034 -0.1342
10610W        W28814  15.601  15.861  16.645 -0.1097  0.2316  0.0703
10611W        W28815   2.576  16.805  13.134  0.2459  0.2482 -0.1228
10612W        W28816   2.002   3.596   4.434  0.0570  0.1192 -0.1602
10613W        W28817   2.710   6.872   4.614 -0.1905  0.0218  0.1984
10614W        W28818  13.705   9.308  16.300 -0.0424  0.1764 -0.1821
10615W        W28819  13.751   7.856   2.438  0.1312 -0.2398  0.1310
10616W        W28820   2.141   2.628  17.054 -0.0715 -0.0658  0.0960
10617W        W28821   3.516   1.768   2.056  0.1357 -0.1142 -0.3260
10618W        W28822   4.248  14.622  14.466 -0.1097  0.3124 -0.0899
10619W        W28823  15.888   5.071  13.432  0.0523 -0.1851 -0.0956
10620W        W28824   6.957   3.255   0.186 -0.0681  0.0785 -0.1055
10621W        W28825   2.464  16.290   3.180  0.2830 -0.1055  0.0093
10622W        W28826  16.990   3.667  13.160 -0.1154 -0.0621  0.1046
10623W        W28827  12.884   4.113  13.599 -0.2247  0.2134 -0.1293
10624W        W28828  12.435   8.698  13.135 -0.0201 -0.0148  0.0839
10625W        W28829   6.114  11.447  12.924  0.2115 -0.1308  0.1800
10626W        W28830   5.591   8.333   2.430  0.2718 -0.3777 -0.0147
10627W        W28831  14.141   0.065   2.463  0.0975  0.1070 -0.0270
10628W        W28832  14.548  12.016   4.077 -0.0093  0.0012 -0.0843
10629W        W28833   3.864  14.422  12.741 -0.0309 -0.3595 -0.0990
10630W        W28834   0.344  14.484   1.800  0.0120  0.0033  0.0678
10631W        W28835  13.065  10.376  13.554 -0.1386  0.4139  0.1092
10632W        W28836  11.431  10.307   0.035 -0.0870 -0.0907  0.0311
10633W        W28837   0.155  11.681   3.999  0.1283  0.1093 -0.4533
10634W        W28838   6.578   5.777   0.921 -0.1403  0.0302 -0.2389
10635W        W28839   1.275   1.976   2.329 -0.1285 -0.0279 -0.3686
10636W        W28840  10.463   8.651   4.519 -0.0805 -0.1877  0.2381
10637W        W28841   2.153  11.744  17.450 -0.2562  0.0849  0.1318
10638W        W28842  14.349  16.349   3.620  0.1702 -0.0512  0.1746
10639W        W28843   2.284  10.875  16.728 -0.1302  0.1199 -0.0911
10640W        W28844   8.158  12.693  13.912 -0.0299 -0.4567 -0.0531
10641W        W28845   5.050  13.237  13.673 -0.0087  0.1313 -0.1611
10642W        W28846  12.402  14.002   4.161  0.0694 -0.0025  0.3025
10643W        W28847   1.622   1.267  13.639 -0.1294  0.2493 -0.0745
10644W        W28848   3.375  15.222   4.723  0.1858  0.1212  0.2169
10645W        W28849  16.986  12.580  12.099 -0.1589  0.4545  0.2940
10646W        W28850  13.040  11.866  12.344 -0.3555  0.1087 -0.1660
10647W        W28851  15.640  16.060   5.014  0.0771  0.1481 -0.4252
10648W        W28852   7.263  14.582   0.045  0.1008  0.0145 -0.0431
10649W        W28853   1.649   7.145  16.515 -0.0184 -0.2259 -0.0909
10650W        W28854  10.114   3.381   2.986  0.2388 -0.0448 -0.2055
10651W        W28855   1.077  11.397  15.828 -0.0814  0.1002  0.2589
10652W        W28856  16.648   6.087   3.044  0.0589  0.0859  0.0528
10653W        W28857   3.319   6.322   5.444  0.1204  0.0944 -0.1216
10654W        W28858  12.259   0.175   2.760  0.0416 -0.0808 -0.0905
10655W        W28859   1.747  13.249   4.403  0.1213  0.0560  0.2960
10656W        W28860   0.903  11.997   0.388  0.0896 -0.0872 -0.2721
10657W        W28861   6.459  17.184   5.259  0.0055 -0.3441 -0.2057
10658W        W28862   4.006  14.015  16.500  0.2273  0.0315  0.1657
10659W        W28863   3.016   7.466  12.439 -0.0620 -0.0566  0.0702
10660W        W28864   7.907   5.853  15.152 -0.1749  0.2168  0.0682
10661W        W28865  11.143   6.760  12.587 -0.0515 -0.0235  0.0434
10662W        W28866   7.202   1.654  16.600  0.0439  0.1437  0.1667
10663W        W28867   9.758  16.698   1.172  0.1874 -0.0278  0.1440
10664W        W28868   3.512   6.650   0.402  0.3610  0.1146  0.1977
10665W        W28869  16.711  10.672   1.854  0.1688  0.2804  0.0281
10666W        W28870  17.000  10.634   0.840  0.1427 -0.0598 -0.0490
10667W        W28871   6.916  10.756  17.024 -0.1602  0.0450 -0.1118
10668W        W28872  14.579  17.276   2.817  0.1707 -0.0844  0.1473
10669W        W28873  13.115  16.901  16.805 -0.0707 -0.2452  0.1533
10670W        W28874  12.191  10.562  12.020 -0.1450  0.0849 -0.1226
10671W        W28875  13.478   4.314   4.044 -0.1702  0.1813  0.1448
10672W        W28876   4.376   0.032   0.624  0.1788 -0.2179  0.0871
10673W        W28877   5.495   8.788   4.592 -0.0484  0.2482  0.2441
10674W        W28878   3.961   4.965  16.854  0.0081  0.0754  0.1130
10675W        W28879  15.658   8.490  13.864  0.0774 -0.0327  0.0483
10676W        W28880  12.159  17.012   1.921 -0.1624 -0.1294 -0.0086
10677W        W28881   1.651   3.147   2.738 -0.0470 -0.0381 -0.1631
10678W        W28882   4.608  12.278  15.242 -0.1313 -0.4056 -0.0566
10679W        W28883  15.929   4.266   2.061 -0.2693 -0.1584  0.0126
10680W        W28884   1.646  12.731  14.129 -0.0484 -0.3034 -0.2620
10681W        W28885   1.511   6.207  16.944  0.0697  0.3801 -0.0988
10682W        W28886   9.649   7.626  16.528  0.0686 -0.5387  0.0407
10683W        W28887  16.925   0.468   3.593  0.1929  0.1015  0.4478
10684W        W28888  10.108   3.870   2.959  0.0276 -0.1062  0.0596
10685W        W28889   8.524   8.265   4.359  0.1535  0.2382 -0.2568
10686W        W28890   5.191  14.153   0.331  0.0335  0.1007 -0.1353
10687W        W28891  10.074   8.705  12.918  0.0000 -0.0056 -0.1128
10688W        W28892   5.057  11.332   1.041  0.2025  0.0182  0.2780
10689W        W28893  12.242   0.776  15.772  0.2184 -0.0396 -0.0061
10690W        W28894  15.628   2.393  11.670 -0.3171  0.0953 -0.0080
10691W        W28895   0.149   5.627  14.352 -0.0880  0.0399  0.1801
10692W        W28896   4.441   2.156  12.932  0.0432  0.0617  0.1307
10693W        W28897  12.530   0.439  12.578  0.4090 -0.0001  0.1553
10694W        W28898   3.830   9.520   6.044  0.3177 -0.1027  0.2718
10695W        W28899   9.722   6.736   0.075 -0.0597  0.2503  0.1775
10696W        W28900   1.699  13.077  15.633  0.4047 -0.0503  0.2481
10697W        W28901  14.244   5.675   2.264  0.0700  0.1556  0.1524
10698W        W28902   8.378  10.845   0.638 -0.3296 -0.0426 -0.0676
10699W        W28903   9.932   6.922  17.042  0.0920  0.1483  0.2277
10700W        W28904   4.579  15.307   1.901  0.1990  0.0126  0.1897
10701W        W28905  15.228   3.974   4.424 -0.1858 -0.0614  0.1932
10702W        W28906  13.768   6.482   3.569  0.0185 -0.2042  0.0539
10703W        W28907   6.410   2.988  15.226  0.0393  0.2790  0.0977
10704W        W28908   4.523   0.735  12.242 -0.0002 -0.1807 -0.0479
10705W        W28909   4.449  16.025   1.666 -0.1957  0.0661  0.0976
10706W        W28910   5.212  14.220   2.579 -0.4521  0.1491 -0.1046
10707W        W28911   1.248   3.872  14.673 -0.0315 -0.0265 -0.0890
10708W        W28912  13.861   8.661   5.050  0.0895  0.2378 -0.1512
10709W        W28913   6.458   9.859  15.394  0.1523 -0.1114  0.0317
10710W        W28914   0.643  11.531  12.899 -0.0005  0.1022 -0.3000
10711W        W28915  15.812   6.526   1.168  0.0446 -0.0815  0.1694
10712W        W28916  11.015  16.758  12.495  0.2641  0.1287  0.0025
10713W        W28917   3.710   4.620   0.287 -0.0962 -0.0192 -0.1419
10714W        W28918   1.470   5.083   1.094  0.0251 -0.1624 -0.0543
10715W        W28919  12.052   7.538  12.953  0.1820  0.2777 -0.0469
10716W        W28920  15.125   1.352   0.833  0.1145  0.3785 -0.2135
10717W        W28921   5.050   3.915   2.438  0.2493  0.0557 -0.2344
10718W        W28922   9.531   8.060  15.678  0.2735  0.1690 -0.3715
10719W        W28923   0.847  17.011  16.734  0.0991  0.1702 -0.1478
10720W        W28924   6.383   0.647  13.183 -0.2986 -0.2326 -0.0642
10721W        W28925   1.264   8.075  16.285  0.0746 -0.2983 -0.1259
10722W        W28926  13.881   6.015  13.092  0.0300 -0.0939 -0.3140
10723W        W28927  16.985   1.963  12.362 -0.1327  0.1477 -0.1173
10724W        W28928   5.830   2.858  11.896  0.3666  0.2163 -0.3617
10725W        W28929   3.127  10.047   5.654  0.0904 -0.0671 -0.0873
10726W        W28930  12.993   0.138   1.667  0.1497  0.1413  0.1698
10727W        W28931   9.903   2.115   2.521 -0.0150 -0.0324  0.0695
10728W        W28932  10.564  16.979   0.063  0.0249  0.0108  0.3685
10729W        W28933   1.790   5.332   1.646 -0.0408 -0.2902  0.0779
10730W        W28934   7.985   7.321  14.772 -0.0698 -0.0699 -0.2877
10731W        W28935  14.356  11.561   1.357  0.0952 -0.0593  0.2412
10732W        W28936  10.220   8.321   3.267 -0.2911 -0.0267  0.3221
10733W        W28937   0.814  13.445   2.105 -0.0081 -0.0347 -0.2601
10734W        W28938  12.554   6.406  16.770 -0.0134  0.0316  0.1751
10735W        W28939  14.406  14.499   0.744  0.0723 -0.1918 -0.0616
10736W        W28940   4.549  15.129  15.795 -0.1831  0.0640 -0.0641
10737W        W28941   3.591   5.844   3.570 -0.1850  0.0248  0.1475
10738W        W28942   2.854   5.063   4.286  0.1918  0.2045 -0.0015
10739W        W28943   7.542  15.390   2.769  0.3810  0.0015 -0.3011
10740W        W28944  15.252   7.632  12.532  0.1769 -0.0563  0.1657
10741W        W28945  16.665  14.914  14.345  0.0888 -0.3970 -0.1389
10742W        W28946  14.478   1.773   1.866 -0.0761  0.0297 -0.0521
10743W        W28947   3.558   6.763  15.098 -0.0673  0.2330 -0.0485
10744W        W28948  15.927   9.539  14.906 -0.0661  0.0670  0.0324
10745W        W28949   4.628   6.479  13.128  0.3880  0.2138  0.0378
10746W        W28950   4.609   0.391   0.933  0.0236 -0.3116  0.0741
10747W        W28951   5.459   1.960  12.754  0.2408  0.0789 -0.0165
10748W        W28952  16.166   7.734   3.005  0.3423 -0.2762 -0.0382
10749W        W28953  13.621  17.240  13.078  0.0898  0.0463  0.0903
10750W        W28954  17.054   4.266  13.722  0.0768  0.0962  0.1447
10751W        W28955   3.861   4.338   3.102  0.1279  0.2862  0.0643
10752W        W28956   1.703  14.801   3.775  0.0859 -0.0129  0.1343
10753W        W28957   6.302   3.864  16.322  0.0171  0.2351  0.2532
10754W        W28958   1.655   0.236  14.546 -0.0371 -0.1948 -0.1874
10755W        W28959   2.435   5.626  17.076 -0.2078  0.0926 -0.3176
10756W        W28960  10.336   5.133  12.010  0.3202  0.1239 -0.0483
10757W        W28961  10.515   1.493  14.189  0.0911  0.1124  0.1076
10758W        W28962   5.408  12.665  15.874  0.0229 -0.1210  0.0714
10759W        W28963  15.508  14.940   2.583  0.0866  0.0678 -0.2892
10760W        W28964  13.044   1.435  14.602 -0.1716  0.4702 -0.2069
10761W        W28965   2.730  11.389   2.113  0.0655 -0.1205  0.1959
10762W        W28966   6.567  11.789  13.046  0.0455 -0.1292 -0.2432
10763W        W28967  11.278  10.398   6.032  0.0541 -0.1783  0.2773
10764W        W28968  10.648  12.294   3.458 -0.2529  0.1507 -0.1115
10765W        W28969   1.401  11.379   3.580  0.1169 -0.2831 -0.3962
10766W        W28970   3.973   0.020  11.959  0.1837 -0.1800 -0.0462
10767W        W28971   8.431  13.848  12.719 -0.1631  0.0114  0.0028
10768W        W28972  11.013   0.769   2.209 -0.1008 -0.2699  0.1198
10769W        W28973  12.835  15.290  17.308  0.1520 -0.0343  0.1117
10770W        W28974  14.790   7.383  12.021  0.0019 -0.0237  0.0129
10771W        W28975   9.441   8.467  14.491  0.1900 -0.1182 -0.1718
10772W        W28976   5.158  16.648   1.230  0.0299 -0.2645 -0.1752
10773W        W28977   9.465   9.949  12.743 -0.0491  0.1935 -0.1009
10774W        W28978   7.039   5.922  17.133  0.0992  0.2333  0.4095
10775W        W28979   3.645   4.820  12.594  0.1515  0.2324  0.0627
10776W        W28980   9.271   5.714   1.297 -0.0794 -0.1241  0.2065
10777W        W28981  12.179   0.082   3.793  0.2066  0.1949 -0.1099
10778W        W28982   7.864   0.864  16.699 -0.2785 -0.0642 -0.0301
10779W        W28983   7.797  13.301   1.246 -0.1597  0.1947 -0.0275
10780W        W28984   8.274  15.766  12.160 -0.0896  0.1351 -0.1368
10781W        W28985   3.827   3.376   4.049  0.1268 -0.0332  0.0660
10782W        W28986   1.822   4.589  14.884 -0.0296  0.1624 -0.0876
10783W        W28987  12.991  12.257   0.301  0.3742 -0.1464 -0.0867
10784W        W28988  12.317  16.020   3.209 -0.0156  0.0341 -0.0135
10785W        W28989   4.469   2.508  16.499  0.0253  0.2085 -0.0103
10786W        W28990  15.500  12.362   1.597  0.2040  0.0648 -0.0289
10787W        W28991   7.557  10.457  16.492  0.0258  0.2418 -0.3084
10788W        W28992   1.174   3.629   0.145 -0.0395 -0.1054  0.0145
10789W        W28993   9.320   5.545   1.877 -0.1477 -0.0372  0.1199
10790W        W28994  13.379   7.282  16.184  0.2940  0.0358  0.3461
10791W        W28995   3.858  14.499   3.721 -0.1014  0.1070 -0.2520
10792W        W28996   0.962   3.383   5.390 -0.1663 -0.1427 -0.2334
10793W        W28997  14.824  15.852  16.123 -0.1385 -0.1981 -0.1138
10794W        W28998  12.653   3.146  14.705  0.1064  0.2036  0.1435
10795W        W28999  15.737   1.188   3.343  0.0834 -0.0781  0.0421
10796W        W29000  11.214   3.432  13.582  0.1780  0.2696 -0.1526
10797W        W29001  13.237  12.119   2.474 -0.0294 -0.0760 -0.0033
10798W        W29002   2.496  16.478  17.292 -0.1740 -0.3983  0.0408
10799W        W29003   8.286  11.837   2.693 -0.3440  0.0851 -0.0086
10800W        W29004   5.110   9.421  13.655 -0.1526 -0.0026  0.1393
10801W        W29005   6.482   4.690   3.466 -0.1101  0.1392 -0.2096
10802W        W29006  12.212   1.341  12.353  0.0806  0.2683 -0.2948
10803W        W29007  16.010  14.367  13.219 -0.0770 -0.0453 -0.1483
10804W        W29008   7.914  12.307  17.321 -0.4503 -0.2647  0.0579
10805W        W29009   1.865   7.712   2.233  0.2126 -0.1307  0.1737
10806W        W29010  11.146  16.467  15.823 -0.1183  0.1601 -0.0054
10807W        W29011  10.379  15.944  14.923  0.3361  0.0333 -0.0493
10808W        W29012   7.509   5.320   3.562  0.1493  0.1010 -0.0489
10809W        W29013   3.046   4.835  13.861  0.0139 -0.0035 -0.2045
10810W        W29014   6.436  15.118   4.461 -0.1264  0.2186  0.0950
10811W        W29015  14.204   4.549  11.473 -0.0220  0.2415 -0.1991
10812W        W29016   3.010  11.176   2.830  0.0469  0.0876  0.1833
10813W        W29017  14.744   9.706   1.674  0.0274  0.1414  0.2479
10814W        W29018   9.383   9.177  15.828 -0.2009  0.2331  0.2317
10815W        W29019   5.151   8.224   3.882 -0.0647  0.0538  0.1486
10816W        W29020  11.512   5.175   2.749 -0.2375  0.1819 -0.0725
10817W        W29021   9.231   8.069  14.310 -0.2043 -0.0144  0.1607
10818W        W29022   9.144   8.660  15.017  0.0398 -0.0201 -0.2389
10819W        W29023   3.522   8.066  12.710 -0.1185 -0.4190  0.3327
10820W        W29024  10.365  11.052   4.013  0.4531  0.1585 -0.0434
10821W        W29025  16.794   5.588   3.677  0.2257 -0.0693 -0.1260
10822W        W29026   5.890   5.442  17.379 -0.1241  0.0894 -0.1411
10823W        W29027   1.221  15.464   3.193 -0.1812 -0.0048  0.1268
10824W        W29028   3.750  16.004   2.596 -0.2151  0.1821 -0.0058
10825W        W29029   4.935  10.368   4.966 -0.0124 -0.1019 -0.0831
10826W        W29030   6.058  14.847   1.369  0.0344  0.0057 -0.0811
10827W        W29031   7.472   1.178   0.964  0.0046  0.0952  0.1343
10828W        W29032   1.784  11.121  15.011 -0.0737  0.1242 -0.1467
10829W        W29033   9.291   5.701  12.608  0.0410  0.0544  0.1087
10830W        W29034  15.784   4.472   1.239  0.1466 -0.2403 -0.0521
10831W        W29035   5.699   3.391  15.749 -0.1629  0.0597 -0.0615
10832W        W29036  11.163  11.040  15.817 -0.0354 -0.1381 -0.1317
10833W        W29037  10.062  11.972  16.740 -0.0155  0.2415  0.0064
10834W        W29038  15.956  10.775   4.646  0.0389  0.1505 -0.1572
10835W        W29039   9.984   9.024   3.134 -0.1307 -0.0334  0.1085
10836W        W29040   8.948   5.154   1.903  0.0419 -0.1282  0.0267
10837W        W29041   8.123   4.261  14.310 -0.1501 -0.0710  0.1987
10838W        W29042  13.133   1.098  16.725  0.0155  0.1943  0.0295
10839W        W29043   9.103   2.833  15.893  0.2791  0.3995 -0.3402
10840W        W29044  12.902  16.369   1.587 -0.1885  0.0339  0.0536
10841W        W29045   8.628   7.970  13.984  0.0130 -0.1255  0.0639
10842W        W29046   4.242   9.119  12.717 -0.1395 -0.0111 -0.0307
10843W        W29047   2.024   9.060   0.386  0.1594  0.0680  0.1770
10844W        W29048  17.168  13.227   3.398 -0.0313  0.2072  0.0125
10845W        W29049   9.019   8.117   0.442 -0.1469 -0.0483 -0.0360
10846W        W29050  15.165  14.004  15.444 -0.0957  0.2348 -0.1416
10847W        W29051  16.185  13.527   4.815  0.0279  0.0316 -0.0932
10848W        W29052   3.874  15.887  13.916  0.2611 -0.0721  0.3083
10849W        W29053  15.409  12.135   3.566  0.0364 -0.0064 -0.2582
10850W        W29054   1.372  14.103  16.548 -0.0676  0.3495  0.0041
10851W        W29055   9.912  15.475   0.697 -0.0540  0.1516  0.0536
10852W        W29056  10.896   2.484   1.458  0.0107  0.0933 -0.0887
10853W        W29057   3.162   0.353   4.064  0.1752  0.0956 -0.0773
10854W        W29058   6.463  12.975  15.302 -0.0832  0.0944 -0.2849
10855W        W29059   6.002  10.364   0.410  0.2050  0.2321 -0.0079
10856W        W29060   8.243   5.408  17.478  0.0360 -0.3587 -0.0968
10857W        W29061  13.615  10.848  13.108 -0.0032 -0.0013  0.2156
10858W        W29062   1.902  10.358  16.333 -0.1811  0.0883  0.0199
10859W        W29063   0.852  16.666   3.611  0.1408  0.0686 -0.1699
10860W        W29064  12.261  16.891   3.834  0.1525 -0.0921  0.2195
10861W        W29065   0.211   5.270  13.776 -0.1269 -0.0261 -0.0537
10862W        W29066  11.801   4.559  11.990  0.1773  0.1195  0.0366
10863W        W29067   8.890   4.104  14.437 -0.0002 -0.1720  0.0801
10864W        W29068  13.120  12.421   3.159  0.3200 -0.1759 -0.0940
10865W        W29069  11.248   7.904   5.254  0.1052  0.1288  0.0416
10866W        W29070   8.489  13.076  16.306 -0.2007  0.1412  0.1886
10867W        W29071  14.990  16.765   4.593 -0.0200  0.2052  0.0031
10868W        W29072   1.242  13.225  16.403  0.1700 -0.2943 -0.3278
10869W        W29073  15.628   2.212   1.640 -0.0784 -0.1565 -0.0171
10870W        W29074   6.635  12.593   5.169 -0.4399 -0.0095  0.1857
10871W        W29075  15.875   6.895  12.141  0.2321 -0.1010  0.0630
10872W        W29076  13.337  10.697   2.607 -0.1322 -0.2669 -0.1850
10873W        W29077   9.209  12.188  13.966  0.0691 -0.1928 -0.2292
10874W        W29078   9.644   7.633   1.567 -0.0173  0.0284  0.0277
10875W        W29079   8.180   2.159   2.788 -0.0860  0.0031  0.1040
10876W        W29080   1.150   0.168   2.743 -0.1048  0.0894 -0.1901
10877W        W29081   5.671  15.350  13.675  0.0747 -0.2641  0.0709
10878W        W29082  11.559   7.425  13.070  0.3096  0.0354 -0.0749
10879W        W29083  15.235   0.317  17.275  0.1616 -0.0397  0.1512
10880W        W29084   4.578  11.592  13.211  0.0575 -0.0346  0.3574
10881W        W29085  12.524   1.365   3.155  0.0614  0.0893  0.2746
10882W        W29086   9.036  10.850  15.449 -0.2304 -0.0906  0.1445
10883W        W29087   8.064   1.321   4.947 -0.1062  0.1688 -0.2008
10884W        W29088  10.858  15.975  12.597  0.2088  0.0006 -0.0976
10885W        W29089   2.547  12.512  17.354  0.1064  0.1538 -0.1702
10886W        W29090   4.962  15.059   2.873 -0.0674 -0.1132 -0.1843
10887W        W29091   6.432  15.976   2.865  0.1544 -0.2427  0.2292
10888W        W29092   8.262  14.252   1.231 -0.2307 -0.2218  0.1169
10889W        W29093  16.405   4.915   5.906 -0.0559  0.5032  0.1244
10890W        W29094  13.651   1.670  15.007  0.2071  0.1936  0.0839
10891W        W29095  14.706   4.585  16.818  0.2845 -0.3190  0.0089
10892W        W29096   4.539  10.817  16.920  0.1489  0.2623  0.0304
10893W        W29097  11.444   2.117  17.371  0.0904  0.1634 -0.4831
10894W        W29098  11.398   6.328  12.577 -0.2259 -0.1170  0.2379
10895W        W29099  14.436   3.386  11.821 -0.0339  0.0886  0.0908
10896W        W29100   2.572   2.096  11.362 -0.1152 -0.1352 -0.1660
10897W        W29101   0.462   5.164   4.544  0.0568  0.1846 -0.1148
10898W        W29102  14.015   7.467   1.722  0.0666  0.1923 -0.0946
10899W        W29103   2.074  11.343   4.967  0.1466 -0.0931 -0.0216
10900W        W29104   0.268  10.852   3.121  0.2394 -0.0349 -0.1674
10901W        W29105   0.886   1.030  17.086 -0.0121 -0.0499 -0.2091
10902W        W29106   2.587  14.589   4.736  0.0794 -0.1032  0.2727
10903W        W29107   8.276  16.741  15.328  0.0195  0.1597  0.0038
10904W        W29108  17.168   4.772   5.158 -0.1196 -0.0248  0.1371
10905W        W29109   6.355   2.014  17.069  0.1330  0.1269  0.0324
10906W        W29110  12.254   2.038   2.038  0.0517  0.0304  0.5090
10907W        W29111  15.896  12.395   4.322  0.1860  0.0419 -0.2830
10908W        W29112  14.244   9.409   4.717  0.2180 -0.0860 -0.1880
10909W        W29113   5.347  10.334   3.430  0.0216  0.0283  0.1966
10910W        W29114   8.798  13.773  15.443 -0.1290  0.2153 -0.0770
10911W        W29115  11.483  16.561  13.260  0.3569  0.1681 -0.1252
10912W        W29116  11.155  13.607  13.236 -0.3526 -0.3558 -0.0622
10913W        W29117   8.532   0.947   3.099  0.2951  0.2504  0.2363
10914W        W29118  11.413  16.086   3.699 -0.2235  0.0653  0.1775
10915W        W29119   7.795  11.524   0.662  0.3558 -0.1356 -0.2106
10916W        W29120  16.908  17.229   5.083 -0.1776 -0.1256  0.0144
10917W        W29121  10.787  10.239   4.412 -0.0305  0.1185 -0.1569
10918W        W29122  16.814   2.210   1.572  0.2017  0.4814 -0.0479
10919W        W29123  11.827  11.796   5.352 -0.0636  0.0509  0.1555
10920W        W29124   7.266  14.335   4.845 -0.1643  0.1109  0.3711
10921W        W29125  10.621  11.727  15.179  0.0538  0.1857 -0.0258
10922W        W29126   7.429   6.837  14.188  0.0854 -0.1101  0.2282
10923W        W29127   5.629   1.189   1.195 -0.1672 -0.0343 -0.0807
10924W        W29128   6.724   0.699   0.607  0.2968  0.1050 -0.0410
10925W        W29129   3.924   5.680  12.525  0.1041 -0.0498  0.0125
10926W        W29130  16.243  10.072  13.284  0.0931  0.0587  0.0605
10927W        W29131   5.794   4.998  13.664  0.0410 -0.2268 -0.3446
10928W        W29132  11.477   1.538  16.718 -0.4372  0.0433  0.2559
10929W        W29133   9.816  11.683   3.111  0.0809  0.1708  0.2259
10930W        W29134  16.048  11.956  14.466 -0.0264 -0.2513 -0.1551
10931W        W29135   9.492  15.591  17.378 -0.1480  0.2612 -0.2787
10932W        W29136   8.466   6.302  12.978 -0.1608  0.4709  0.0158
10933W        W29137   0.136   7.666  16.322 -0.1909 -0.0212 -0.0839
10934W        W29138   2.957  12.974   4.277  0.2252  0.0508 -0.2424
10935W        W29139   3.034  11.555   2.433  0.1835  0.0109  0.3440
10936W        W29140  16.885  11.740  14.907  0.1744  0.0549 -0.0115
10937W        W29141  10.339  13.881  13.760  0.0051 -0.2862  0.3021
10938W        W29142   3.230   9.964  17.099 -0.0864  0.1717 -0.1930
10939W        W29143  15.942  15.590   4.765 -0.0166 -0.0850  0.2259
10940W        W29144   5.013  14.792   0.359 -0.0869 -0.1466  0.0531
10941W        W29145   3.185   7.970  13.133  0.0958 -0.1431  0.1981
10942W        W29146   3.323   0.783  13.727 -0.1710  0.1094  0.0340
10943W        W29147   2.063  10.512   5.503  0.0945  0.3086  0.4131
10944W        W29148   9.464  13.328  16.791  0.3103  0.1709  0.0288
10945W        W29149   5.648  11.049   1.984  0.3683  0.4351 -0.3989
10946W        W29150  11.150  16.094   0.904 -0.0628  0.2657 -0.1900
10947W        W29151  11.784   4.184   4.912 -0.3246  0.3394  0.1228
10948W        W29152   2.172  16.855  14.162  0.0281  0.0299 -0.2322
10949W        W29153   9.274  13.892  13.010  0.1425  0.0214  0.1041
10950W        W29154  11.465   7.830  12.742  0.1119  0.0604  0.1956
10951W        W29155  10.850   8.950   1.438 -0.5450 -0.1579  0.2929
10952W        W29156   1.219   9.995  13.127  0.2111 -0.2141 -0.1750
10953W        W29157  16.412   3.734  16.557 -0.0764 -0.1037  0.0161
10954W        W29158  13.382   0.764   0.524 -0.1480  0.0409 -0.0172
10955W        W29159  12.126   9.690  15.712 -0.1009  0.1015  0.1780
10956W        W29160   0.501  16.675   3.193 -0.0677  0.3544 -0.1392
10957W        W29161  12.148  11.156  15.945  0.1393  0.1703 -0.1497
10958W        W29162  11.388  12.719   2.149  0.1551  0.0341  0.2409
10959W        W29163  11.630   6.949   4.463 -0.2636 -0.0605 -0.2254
10960W        W29164   0.353   8.660   2.701 -0.1887  0.1835  0.1754
10961W        W29165   2.249  14.505   4.392 -0.1354 -0.0549  0.3594
10962W        W29166  16.476   8.246   3.901  0.1709  0.0231 -0.1875
10963W        W29167  11.950  16.441  13.327  0.1640 -0.0678 -0.1913
10964W        W29168   3.717  16.994  16.868 -0.1119  0.0678  0.0716
10965W        W29169   9.165  12.680   0.823  0.2364  0.1548  0.2214
10966W        W29170   7.360  15.540   3.930  0.1275 -0.0623 -0.2495
10967W        W29171   3.300  16.636   1.385  0.1986  0.0811  0.0651
10968W        W29172   0.894   1.797  17.347  0.2238 -0.0034 -0.1631
10969W        W29173   2.928   1.481   1.975  0.2377  0.3109  0.1852
10970W        W29174   5.817  15.742  16.968  0.1925  0.5554  0.0457
10971W        W29175  13.829   6.347   2.879 -0.0993 -0.1676 -0.3161
10972W        W29176   0.106   3.546   1.297 -0.0114  0.2364  0.0495
10973W        W29177  10.621   9.227  12.647  0.5014 -0.0072  0.0237
10974W        W29178  14.248  17.040  15.885  0.1278  0.0489  0.1844
10975W        W29179   3.059  16.201   4.007  0.1500  0.1143 -0.0207
10976W        W29180  10.814   9.697   3.092  0.1737  0.1121  0.3804
10977W        W29181  11.523  10.021   5.238 -0.2983  0.0974  0.2166
10978W        W29182  14.106  12.344   3.256  0.1242 -0.0601 -0.3019
10979W        W29183  17.213   6.181   2.393 -0.0650  0.0758  0.0009
10980W        W29184  10.163  14.345   3.107 -0.2761 -0.1007 -0.0276
10981W        W29185   9.698  14.327   3.331 -0.1877 -0.2749 -0.2015
10982W        W29186  10.955   8.914  15.865  0.1407 -0.2107 -0.1219
10983W        W29187  15.038  11.377   3.861  0.0886 -0.0973 -0.0926
10984W        W29188  15.696   1.198   5.444  0.2491 -0.2658 -0.0922
10985W        W29189  14.574   1.332  16.704  0.1908  0.3737  0.1040
10986W        W29190  13.244  11.800   3.424 -0.2426 -0.2871 -0.0605
10987W        W29191   1.840  12.858  13.641 -0.0912  0.0640  0.0618
10988W        W29192  13.933  14.471  16.170  0.0077 -0.0786  0.0368
10989W        W29193   6.423  15.796   1.371 -0.0009 -0.0479 -0.1280
10990W        W29194   2.806   6.606   2.980  0.1897 -0.1051 -0.0027
10991W        W29195  12.571  14.790  13.938 -0.0143  0.3518 -0.2385
10992W        W29196  14.559   0.029  14.508 -0.5740 -0.2155 -0.3247
10993W        W29197   8.048  11.976   4.947 -0.3002  0.1698  0.1128
10994W        W29198   8.584  11.769   3.593 -0.2579  0.2010  0.1137
10995W        W29199  16.771   0.565  12.523  0.1953  0.0284 -0.2297
10996W        W29200   8.122   3.479   0.555  0.2832  0.1178 -0.1097
10997W        W29201   9.162   2.701   5.684 -0.0306 -0.0863  0.1182
10998W        W29202  15.196  16.598   3.141 -0.2712 -0.2417  0.0285
10999W        W29203   6.065  13.285  13.451 -0.2116 -0.0499 -0.2292
11000W        W29204  12.622   6.652   2.613  0.4910 -0.2319  0.1465
11001W        W29205   8.260   5.185  14.346  0.1910 -0.0743 -0.1672
11002W        W29206  12.152   6.883   3.199 -0.0356 -0.1479  0.0535
11003W        W29207   4.878  11.897  15.442 -0.3193  0.2834  0.0819
11004W        W29208  10.820   0.786  13.360 -0.0261  0.0230  0.0677
11005W        W29209   0.784   5.177  16.296 -0.0522  0.3099  0.1826
11006W        W29210   1.361   1.294  15.043  0.1425  0.0042  0.0533
11007W        W29211   9.951  14.853   2.422  0.3927  0.0926 -0.0324
11008W        W29212   5.046   9.586  15.288  0.0321  0.3327  0.0473
11009W        W29213   4.593  15.552   1.454 -0.2082  0.2081  0.1583
11010W        W29214  14.689  13.590   6.639 -0.3363  0.0355 -0.0190
11011W        W29215  12.527   4.613   4.336  0.0396 -0.0709  0.1558
11012W        W29216  12.741  11.082   4.763 -0.1603 -0.0420 -0.2263
11013W        W29217   6.414  15.730  16.187  0.2204 -0.3386 -0.1332
11014W        W29218  10.807  10.398   3.558 -0.0450 -0.1593 -0.1061
11015W        W29219   4.421   2.648  12.362 -0.1026  0.0100 -0.2258
11016W        W29220  13.609   4.931  15.952  0.1321 -0.0532 -0.0707
11017W        W29221   4.409  14.195  16.209 -0.0298 -0.0174  0.2839
11018W        W29222   2.352   4.812   0.608  0.1661  0.0696 -0.1959
11019W        W29223  11.004  15.559   1.049  0.1780 -0.1090 -0.0849
11020W        W29224  11.392   5.120  16.706  0.1403 -0.0335 -0.2497
11021W        W29225  10.639   3.420  14.988  0.2886 -0.0576  0.0662
11022W        W29226  16.638   5.358   2.048  0.2300 -0.1641 -0.0895
11023W        W29227   9.524   8.463  13.952 -0.1430 -0.0278  0.1717
11024W        W29228  12.061  15.005   5.001 -0.0885 -0.1703  0.0985
11025W        W29229  17.042   2.647  14.162  0.3368 -0.0433 -0.1321
11026W        W29230  15.915   3.368   1.123 -0.0395  0.1035  0.0658
11027W        W29231   7.153  12.275   2.192  0.0624 -0.1406  0.1503
11028W        W29232   7.175  10.915   2.834 -0.0541 -0.2826  0.0974
11029W        W29233  11.659  16.055  13.238 -0.0520  0.3929  0.1288
11030W        W29234  10.312  13.599   4.178  0.0520 -0.0614 -0.2392
11031W        W29235   9.209   8.876   2.070 -0.0068 -0.0376  0.1366
11032W        W29236  14.276   7.449  14.899 -0.4326  0.2175 -0.1857
11033W        W29237   3.432   0.697  14.986 -0.1957 -0.2007  0.1340
11034W        W29238   0.979  17.072   5.234 -0.1647  0.0358 -0.0981
11035W        W29239   2.937  16.665   1.017 -0.2667 -0.0867  0.0092
11036W        W29240   0.652   0.292  16.740 -0.4582  0.3492 -0.1682
11037W        W29241   2.682   2.731  16.511  0.4696 -0.0930 -0.1685
11038W        W29242   8.372  10.611   2.289 -0.0369 -0.2708  0.0120
11039W        W29243   2.407   2.470   2.734  0.0578  0.0458 -0.4013
11040W        W29244   6.282  10.866  17.160  0.1407  0.1191  0.1268
11041W        W29245  12.714   2.694   3.055 -0.1158 -0.0766  0.0994
11042W        W29246  16.625  11.866   2.922 -0.1143 -0.1097 -0.0778
11043W        W29247  14.195   8.127  14.873 -0.0288  0.0309  0.0798
11044W        W29248   7.562   9.058  17.178  0.0660 -0.3184 -0.1512
11045W        W29249  13.530   4.425  13.103  0.1018  0.2042 -0.1114
11046W        W29250  16.859   4.667   0.491 -0.0693  0.0648 -0.1326
11047W        W29251  16.123  15.579   3.810 -0.0907 -0.1910 -0.0419
11048W        W29252   6.830  11.327   4.659 -0.1157  0.1789  0.0451
11049W        W29253   9.967   8.808  15.583 -0.0341 -0.5653  0.1318
11050W        W29254   3.400  12.049   3.621  0.0316  0.0555 -0.1840
11051W        W29255   5.912   0.731  13.328 -0.1374  0.1307 -0.1633
11052W        W29256  14.500   1.043   2.567 -0.0992  0.0640 -0.1869
11053W        W29257   2.050   0.646  14.738  0.3048  0.2891 -0.2420
11054W        W29258   3.494   0.047  12.170  0.1067 -0.3067  0.1047
11055W        W29259  13.671   4.793   1.252  0.0390  0.0080 -0.1518
11056W        W29260   9.576  10.509  13.074  0.1928 -0.0850  0.0207
11057W        W29261  12.337  12.283  13.735  0.2095 -0.0534  0.0052
11058W        W29262  12.507  15.303  12.331 -0.1835  0.2205  0.0143
11059W        W29263  14.823   3.512  13.885 -0.0104  0.0770 -0.2214
11060W        W29264  16.111  15.989   0.454  0.0089  0.0736 -0.0084
11061W        W29265   8.278   4.746   4.849 -0.1350 -0.2469  0.0001
11062W        W29266   1.638   4.082  17.042 -0.2318 -0.0360  0.1921
11063W        W29267  15.770  10.068  16.694 -0.0852 -0.1147  0.1566
11064W        W29268  16.256   5.184  12.122 -0.1142  0.0574 -0.1009
11065W        W29269   7.852  12.756  15.104 -0.1050  0.2133 -0.0264
11066W        W29270   0.725  17.217   1.719 -0.0066 -0.1572 -0.1748
11067W        W29271  15.341  11.146   5.481  0.3043  0.0147 -0.0123
11068W        W29272   5.918   9.942   0.027  0.1431 -0.2025  0.3266
11069W        W29273  15.003  10.207   1.457  0.2247 -0.1320  0.1753
11070W        W29274   9.283   7.325   1.728 -0.2151  0.1448 -0.0301
11071W        W29275  11.025  16.035   3.222  0.0190  0.1385  0.0653
11072W        W29276   8.092   4.194   1.214 -0.1761  0.1447  0.1361
11073W        W29277   3.353   3.404  16.989 -0.1186 -0.1110  0.2991
11074W        W29278  14.591   5.039  13.351  0.0127  0.1229 -0.1346
11075W        W29279  13.330   1.770  15.878  0.2506  0.1353 -0.0747
11076W        W29280  12.731   9.771  14.219 -0.1687 -0.1029 -0.0766
11077W        W29281   8.678  13.172   3.134  0.3173 -0.1103 -0.0826
11078W        W29282  12.538   2.222   0.040  0.0198 -0.0218 -0.0797
11079W        W29283  13.425  15.885  12.232 -0.0142 -0.3021  0.3404
11080W        W29284  11.993   9.154   0.068  0.1752 -0.0347  0.1093
11081W        W29285  10.821   5.162  16.580 -0.1882  0.4048 -0.1564
11082W        W29286   2.814   1.178  14.541  0.0456 -0.0855  0.2009
11083W        W29287  10.020  11.572  17.503 -0.0046  0.1765  0.0680
11084W        W29288   0.565  11.072   0.663 -0.0394 -0.1858 -0.0328
11085W        W29289  13.881  16.630   1.882  0.1736  0.2364  0.0626
11086W        W29290   6.496  14.126  16.773  0.0197  0.2600  0.3794
11087W        W29291   8.505   2.964  16.386 -0.0259 -0.0649  0.1458
11088W        W29292   2.712  10.183   3.155 -0.2101  0.2219 -0.0768
11089W        W29293   2.083  10.558  14.877 -0.1822  0.2719 -0.1146
11090W        W29294   3.610  13.885  13.716 -0.2129 -0.0476 -0.1506
11091W        W29295   6.352   0.467  16.065 -0.1077  0.0539  0.2927
11092W        W29296   2.468  16.550  15.880  0.2226  0.0326  0.2633
11093W        W29297  13.543   3.309  15.040 -0.0556  0.2254  0.1245
11094W        W29298  11.708   2.432   3.638  0.1261  0.0066 -0.0452
11095W        W29299   5.935   1.142   5.120  0.0990  0.1591  0.1235
11096W        W29300   7.605  14.359  17.282  0.1024 -0.0960  0.2958
11097W        W29301   5.615   1.471  12.762 -0.0587 -0.3113  0.1672
11098W        W29302  16.795  13.297  16.536 -0.1602  0.2419  0.1286
11099W        W29303  17.228   0.213  14.365 -0.0854  0.2153  0.2998
11100W        W29304   3.662   5.507   0.749  0.1979 -0.2975  0.1396
11101W        W29305   0.619   8.688  14.123  0.3019 -0.0708  0.0400
11102W        W29306  11.989  14.275  17.386  0.2727  0.2851  0.4275
11103W        W29307   9.637  11.046   1.442  0.0764 -0.1398 -0.0484
11104W        W29308   8.010  17.063  14.199 -0.0050 -0.1971  0.1075
11105W        W29309   9.724   8.585  16.328 -0.0733 -0.0506  0.2994
11106W        W29310  13.531   9.826   5.388 -0.4094 -0.1189 -0.0527
11107W        W29311   7.911  12.784   5.696  0.1460 -0.3152  0.0953
11108W        W29312   6.697  16.675  15.293 -0.2465 -0.2490  0.0942
11109W        W29313  14.510  11.456   5.355  0.0352 -0.3137 -0.1543
11110W        W29314  15.398  16.678   4.343 -0.0084 -0.0161 -0.0556
11111W        W29315  11.731   9.607   3.016  0.0374 -0.0294  0.0965
11112W        W29316   9.968  16.701  14.165  0.2025 -0.1733 -0.0757
11113W        W29317  11.299   0.939  15.142  0.0214  0.2026  0.1947
11114W        W29318   9.284  10.299  11.797  0.2135 -0.2843 -0.2001
11115W        W29319  15.535   9.150  12.700  0.0711  0.1253  0.1908
11116W        W29320   2.904   3.078  14.106  0.1074  0.0087  0.1554
11117W        W29321   0.066   7.327  13.183  0.0416 -0.0944  0.0010
11118W        W29322   9.957   1.228   4.521 -0.1972  0.1315 -0.1349
11119W        W29323   5.477  16.853  16.457 -0.0188  0.1492  0.0960
11120W        W29324  11.069   8.056   1.039 -0.1180 -0.3508  0.1502
11121W        W29325  14.183   3.080  15.876 -0.0456  0.0938 -0.1571
11122W        W29326   8.680   1.438  17.464 -0.2409  0.2857 -0.0919
11123W        W29327   5.016   5.819   1.786 -0.0974 -0.1137  0.2254
11124W        W29328   0.818   0.849   2.215  0.1487  0.0992  0.0395
11125W        W29329   8.023  10.777   1.998  0.0004 -0.0166  0.2367
11126W        W29330   6.596   3.567   1.868 -0.0303  0.1545 -0.2435
11127W        W29331   6.271  12.335  12.503  0.2464  0.1168  0.0159
11128W        W29332   9.215   0.322  16.935  0.0653  0.0903 -0.0330
11129W        W29333  11.856   5.117  13.816  0.1364 -0.1382 -0.2231
11130W        W29334   3.216  12.795   4.681 -0.1735  0.1861 -0.0856
11131W        W29335   1.530   2.001   3.448  0.0097 -0.0765  0.1096
11132W        W29336   3.475   6.677   2.226 -0.3888 -0.0003  0.1791
11133W        W29337   3.137   3.396  14.920 -0.3964 -0.2400  0.2869
11134W        W29338   6.447   7.981  15.628  0.3211  0.0561  0.2174
11135W        W29339   9.325   5.095   2.726  0.3787 -0.2071  0.1314
11136W        W29340  11.018  12.898   2.610 -0.0066  0.1947  0.0538
11137W        W29341   2.954   7.913   2.549  0.1416  0.0420  0.2413
11138W        W29342   5.622   0.928  16.111  0.1946  0.0162  0.0238
11139W        W29343   8.964  12.040  14.774  0.2230  0.0232  0.0010
11140W        W29344  11.903  17.143   6.135 -0.0912 -0.2921  0.3131
11141W        W29345   0.463   0.085   0.214 -0.1507 -0.1120 -0.1869
11142W        W29346  13.391   7.662   2.822 -0.2630  0.0658  0.1543
11143W        W29347   0.201   2.986  15.010 -0.3667 -0.0006 -0.0704
11144W        W29348  15.066  14.856  14.954 -0.1676  0.1863 -0.2542
11145W        W29349   8.635  16.134   4.907  0.1446  0.2611  0.0409
11146W        W29350  12.911   7.773  14.365  0.0323  0.0602  0.2775
11147W        W29351   5.754   5.256  16.912 -0.1516  0.2819 -0.1067
11148W        W29352  11.465  15.493  13.179 -0.3363  0.0709  0.0581
11149W        W29353   8.720  11.828   0.716 -0.2243  0.0294  0.0989
11150W        W29354  15.137   5.726  14.740 -0.0127 -0.0714  0.2448
11151W        W29355  12.047   2.803  16.508 -0.1086 -0.0252  0.1318
11152W        W29356   7.736  13.220   0.196  0.1785  0.0298  0.0651
11153W        W29357  16.313  14.768  17.047  0.2364 -0.1292 -0.1682
11154W        W29358  16.417   4.953  13.809 -0.1534  0.2191 -0.2460
11155W        W29359  12.276  15.575   4.002  0.3455 -0.0608 -0.1520
11156W        W29360   1.206   6.193  17.341 -0.2385 -0.2601  0.1012
11157W        W29361  10.401   3.153   2.596  0.1323  0.1289  0.2653
11158W        W29362   7.635  13.349  13.960 -0.1776 -0.2646 -0.3636
11159W        W29363   5.402   3.063  14.084 -0.0291  0.2262  0.4226
11160W        W29364   2.291  13.877   1.839  0.2651 -0.0590  0.3596
11161W        W29365   1.240  16.037  16.122 -0.1972 -0.0575  0.1335
11162W        W29366   5.360   9.559  12.973 -0.2054  0.0527  0.0215
11163W        W29367   1.147   0.070  15.791  0.0094  0.0302 -0.2506
11164W        W29368  13.626  13.537  12.523  0.1220  0.0947  0.1425
11165W        W29369   0.192   5.151  12.587 -0.3975  0.2114 -0.0841
11166W        W29370  14.937  10.054  14.002  0.1198  0.1882  0.2087
11167W        W29371   6.210   7.491   4.774  0.0708 -0.1606 -0.2939
11168W        W29372  12.146  13.997  14.466 -0.1580  0.1409 -0.0825
11169W        W29373   6.844   8.258  15.410 -0.1360  0.0072 -0.2043
11170W        W29374   0.229  14.189   3.371  0.1912  0.1196 -0.2685
11171W        W29375  12.465   3.824   4.275 -0.0789  0.0018  0.0591
11172W        W29376   3.393  16.838  16.296 -0.0105  0.2507  0.1894
11173W        W29377   7.185  15.469  13.382 -0.0629  0.2921 -0.1739
11174W        W29378   5.674   9.579  16.062  0.1210 -0.1989  0.1500
11175W        W29379  11.027  16.184   2.059  0.0458 -0.1812 -0.0854
11176W        W29380   1.886  14.903  15.524  0.0709 -0.3540 -0.3218
11177W        W29381  15.516   4.657   1.631 -0.0041 -0.1866 -0.1005
11178W        W29382   1.506   2.057   5.787  0.2364 -0.0082 -0.0496
11179W        W29383   9.495   9.374  15.305 -0.3320 -0.0910 -0.1965
11180W        W29384   2.837   1.542  15.000 -0.0878 -0.0547  0.2294
11181W        W29385   2.973  12.707  14.675  0.1244 -0.1305 -0.1527
11182W        W29386   6.468   1.825   4.778  0.0236  0.1002 -0.1125
11183W        W29387   8.856  15.381   3.677 -0.0211  0.0655 -0.1806
11184W        W29388  13.138  10.024   3.810  0.2290  0.2066  0.3117
11185W        W29389   3.689   0.051  13.570 -0.1915 -0.0306 -0.0362
11186W        W29390   2.062   7.138  16.002 -0.0789 -0.2284 -0.3692
11187W        W29391  13.756  13.244   1.728  0.2062 -0.2436 -0.1765
11188W        W29392   9.754   2.957   1.791 -0.0352 -0.4011 -0.0320
11189W        W29393  14.584   4.624   2.673  0.0720 -0.2905  0.0620
11190W        W29394   2.802  17.046  15.214  0.0297 -0.2117 -0.2110
11191W        W29395   2.297  12.930   3.681  0.2441  0.1044 -0.1247
11192W        W29396   5.056   3.186   1.357 -0.2153 -0.0756 -0.0496
11193W        W29397  13.241  10.820  14.435  0.0421 -0.0300 -0.0826
11194W        W29398   3.748  13.977  12.410  0.4354 -0.1508  0.1804
11195W        W29399  14.443  14.242  12.799 -0.0054  0.1649 -0.1179
11196W        W29400  10.842   5.078   4.839 -0.2078 -0.0426  0.0535
11197W        W29401  16.869   7.597   2.332 -0.0743  0.0835  0.0273
11198W        W29402   1.407  11.387   5.452  0.0216 -0.0655 -0.3751
11199W        W29403   6.190   3.641   2.186 -0.1260  0.0173  0.0799
11200W        W29404  10.601  16.865  14.816 -0.0851 -0.0016  0.1891
11201W        W29405  12.742  11.461   2.485  0.2648  0.2144  0.1000
11202W        W29406   2.083   6.500   5.318  0.2026 -0.0938 -0.0417
11203W        W29407  14.626   5.083   3.661 -0.0232  0.0660 -0.1845
11204W        W29408   4.687   4.323   1.819 -0.1370  0.2388 -0.4718
11205W        W29409   6.285   4.114  17.206 -0.1105  0.2092  0.0437
11206W        W29410  13.204   2.785  12.361  0.2213  0.1939 -0.0434
11207W        W29411   9.794   7.749   2.532 -0.2575 -0.2789  0.3061
11208W        W29412   8.333   9.913  12.046  0.0878 -0.0128 -0.0532
11209W        W29413   3.440  15.882   3.033  0.0987 -0.0566  0.2098
11210W        W29414  12.972  10.620   2.926 -0.3248 -0.0199  0.1471
11211W        W29415   4.469   4.759   0.150  0.1741  0.1631 -0.0613
11212W        W29416  10.185   4.566   2.414  0.3149 -0.0341 -0.1041
11213W        W29417   0.164  10.412   3.585  0.1162 -0.1885  0.0651
11214W        W29418  15.849   4.024  17.168 -0.0228 -0.0957  0.3808
11215W        W29419  16.894   9.239   0.978  0.0071  0.1462  0.5542
11216W        W29420  10.120   3.282   4.481 -0.0047 -0.0253  0.0992
11217W        W29421   6.709   9.849  16.703  0.2930 -0.0823 -0.0520
11218W        W29422  10.623   6.047  12.591  0.1239 -0.1111  0.0818
11219W        W29423   2.316  14.110  16.566  0.1990 -0.0214  0.3374
11220W        W29424  10.766   0.060  11.340  0.2590 -0.2036 -0.1966
11221W        W29425  15.283   4.502  16.191  0.3148 -0.0212 -0.3019
11222W        W29426  11.533  12.201   5.083 -0.3234  0.0330 -0.1738
11223W        W29427  12.918  17.294  17.078  0.2762 -0.5289 -0.0776
11224W        W29428  13.811   3.994   3.705  0.0742  0.1647 -0.0093
11225W        W29429   0.296  13.385  12.076  0.1814 -0.2179  0.2077
11226W        W29430   7.762  12.010   3.382 -0.1086  0.2783  0.1363
11227W        W29431  12.798  10.325   4.070  0.1282  0.2382 -0.0002
11228W        W29432   2.605   0.315  14.529 -0.1190 -0.0071  0.0407
11229W        W29433  16.657  14.197  13.840  0.0578 -0.0238 -0.1779
11230W        W29434  11.463  14.186   5.448 -0.0314 -0.0672  0.3739
11231W        W29435   0.978  16.789  13.009  0.1662 -0.1035  0.0595
11232W        W29436  14.088   1.447  16.597 -0.0548 -0.0638  0.2094
11233W        W29437   2.768   9.364  13.539  0.0712 -0.1347 -0.0019
11234W        W29438   6.426  13.146   2.156 -0.0149 -0.1464  0.1055
11235W        W29439   0.885  14.728  15.034 -0.0513  0.4130  0.3815
11236W        W29440  14.255   4.654   0.564  0.0526 -0.1728 -0.1342
11237W        W29441  13.562  11.135   2.212  0.2606 -0.0406  0.1417
11238W        W29442  13.042   7.890  12.929  0.0525  0.1724 -0.2124
11239W        W29443  15.028   3.836  14.223  0.0431  0.0200  0.1192
11240W        W29444   6.045   9.379  13.210 -0.0522 -0.2704  0.5112
11241W        W29445   8.707   0.246  16.853  0.1320  0.2119  0.0437
11242W        W29446   7.961   8.458  16.319 -0.0998 -0.1507 -0.2364
11243W        W29447  14.033  11.324   5.379  0.0654 -0.0826  0.0694
11244W        W29448   5.262   5.567  13.146  0.0798  0.2235  0.1542
11245W        W29449  11.060   9.285   4.259  0.0176 -0.1782  0.0134
11246W        W29450  12.950  14.954   0.935  0.0863 -0.0673  0.2400
11247W        W29451  13.364  14.763  13.185  0.0456 -0.1290 -0.3582
11248W        W29452   4.332  13.776  13.393  0.3074 -0.2703 -0.0870
11249W        W29453   5.532   4.795  12.320 -0.1976 -0.0134 -0.2135
11250W        W29454  15.634  16.886   2.448  0.1447 -0.2788  0.0974
11251W        W29455  12.654   4.421   2.230  0.2238  0.1154 -0.1778
11252W        W29456   9.777   4.579  16.538 -0.0116 -0.0125  0.1506
11253W        W29457  16.656   6.641   1.615 -0.2314  0.0663 -0.2033
11254W        W29458   0.731   6.931  16.310  0.1037 -0.2973  0.1562
11255W        W29459  10.511   2.523  12.657 -0.2544  0.1727 -0.3601
11256W        W29460   5.811   7.596  14.558  0.0230 -0.1144  0.2890
11257W        W29461   9.455  16.546   4.604  0.2039  0.2472  0.4775
11258W        W29462   7.656   3.567   5.021  0.0645  0.1658 -0.0111
11259W        W29463  11.352  13.978   0.659  0.1518  0.0583  0.0866
11260W        W29464   6.160   0.730   4.922  0.0383 -0.2030  0.1691
11261W        W29465   5.367   9.119   3.039  0.2191  0.3454 -0.1130
11262W        W29466  10.222   6.749  17.435 -0.1010  0.1579  0.0338
11263W        W29467   1.504  14.973  16.846  0.3750 -0.0994 -0.2372
11264W        W29468  10.942  10.268  12.549 -0.1459  0.1183 -0.0413
11265W        W29469   1.356  10.195   0.256 -0.1565  0.0453 -0.0781
11266W        W29470  11.770  16.787   1.625 -0.0230 -0.4577 -0.3613
11267W        W29471   5.983   7.209  15.834  0.0239  0.0069  0.2724
11268W        W29472   4.892  12.729   2.671 -0.3431  0.1811  0.2125
11269W        W29473   4.318   4.544   0.650  0.0041 -0.0638 -0.3140
11270W        W29474  12.475   0.676  16.215 -0.3251 -0.2011 -0.0544
11271W        W29475  12.282   7.658   3.701  0.2363 -0.0885  0.0119
11272W        W29476  14.906  13.377  17.049  0.1963 -0.0926 -0.2870
11273W        W29477   3.656   9.755   5.015 -0.0122  0.3861 -0.2694
11274W        W29478  16.538  15.831   4.025  0.1428  0.1933  0.0662
11275W        W29479   6.058   1.652   1.975  0.3054 -0.1138 -0.0894
11276W        W29480   2.470  15.755  12.704  0.2406 -0.1511 -0.1817
11277W        W29481  16.416   6.645  15.790  0.1538 -0.0594  0.0229
11278W        W29482   1.752  13.806  12.722  0.1142  0.1332 -0.0437
11279W        W29483  15.419   0.265   5.359 -0.1668 -0.1469 -0.0159
11280W        W29484   4.061   0.259   5.359  0.1000  0.0707 -0.0972
11281W        W29485   3.073   7.555  15.160 -0.2462 -0.1579 -0.2004
11282W        W29486  16.937  13.790  16.695 -0.3437  0.3234 -0.0432
11283W        W29487   2.872  14.898  13.189  0.0081  0.0942 -0.0552
11284W        W29488  12.063   2.869  17.408 -0.3582 -0.1641  0.2963
11285W        W29489  16.434   6.154   4.418 -0.0977 -0.1057 -0.2820
11286W        W29490  10.089   8.969  12.512  0.3045  0.5212 -0.1489
11287W        W29491   1.600   7.105   4.640 -0.1371 -0.0486 -0.1593
11288W        W29492  15.181   6.654   0.948 -0.2328  0.4073 -0.0127
11289W        W29493   6.599  15.388  16.733 -0.3320 -0.1057  0.1797
11290W        W29494   8.312   9.617  15.397  0.0429  0.2860 -0.3001
11291W        W29495   3.619  15.626  13.591 -0.0987 -0.3426  0.0903
11292W        W29496  15.286   7.126   1.875  0.1672 -0.3467  0.2777
11293W        W29497  16.971   5.228   2.514  0.1069 -0.0409 -0.0683
11294W        W29498  10.493   1.213   1.013 -0.3394  0.0484  0.1618
11295W        W29499   9.147   8.230   2.248  0.0274 -0.1128  0.0752
11296W        W29500   7.571  15.320  16.970 -0.1270  0.0957 -0.1376
11297W        W29501   5.627   6.648   0.514  0.1061 -0.2277 -0.0082
11298W        W29502  10.865   4.224   4.671  0.1152 -0.2208  0.1598
11299W        W29503  16.586   3.815  12.493 -0.0927 -0.0177 -0.0391
11300W        W29504  15.084   2.066  13.529 -0.3113 -0.0770  0.3948
11301W        W29505   0.034  10.345  15.618 -0.2792  0.2012  0.3477
11302W        W29506   1.420  11.722   0.594 -0.0209 -0.1033  0.0613
11303W        W29507   6.222  16.146  16.723  0.2225 -0.0384  0.2038
11304W        W29508   7.541  10.026  16.293  0.1598 -0.0609 -0.0858
11305W        W29509  15.835   4.996   0.378  0.0236 -0.1390  0.3759
11306W        W29510   9.704   3.903  16.830 -0.1259 -0.4778  0.0204
11307W        W29511   3.436   3.454  12.735 -0.1144  0.2408 -0.0121
11308W        W29512  10.525   7.402   0.844  0.0791 -0.0287 -0.0122
11309W        W29513   2.852   9.652   0.757  0.1117  0.2080  0.1263
11310W        W29514  10.835  15.029   0.965  0.0450 -0.1332 -0.1866
11311W        W29515   7.049   6.786   2.683 -0.1126 -0.0335  0.0628
11312W        W29516   8.083   2.629  13.998  0.1958 -0.1358  0.2177
11313W        W29517  10.777  10.096  13.847 -0.2078 -0.1510  0.0898
11314W        W29518  14.662   1.952  15.263  0.0897 -0.1702  0.0255
11315W        W29519  16.400   1.717  12.987  0.0478  0.0957 -0.3323
11316W        W29520  10.194  15.282  12.445  0.2622 -0.1035 -0.0132
11317W        W29521  16.111   6.284  13.353  0.2825 -0.3627  0.0977
11318W        W29522  15.081  14.343   0.276  0.0725 -0.0736  0.3727
11319W        W29523  10.276   8.804  17.502 -0.2984  0.1227 -0.1480
11320W        W29524   4.588  10.181  14.279  0.3494 -0.0689  0.1819
11321W        W29525   7.789   4.760   4.894  0.1152  0.0028 -0.2732
11322W        W29526  12.517  14.476  13.555 -0.0165  0.2062  0.1217
11323W        W29527   8.614  10.997  13.393  0.2427  0.2275  0.0089
11324W        W29528  14.567   2.521   0.011 -0.0355 -0.0170  0.0891
11325W        W29529   0.456   7.873   4.617  0.4121  0.0377  0.0198
11326W        W29530   6.573  16.549   4.423  0.0444 -0.1227 -0.3395
11327W        W29531   7.209  16.808   0.882 -0.1219  0.1448  0.0248
11328W        W29532  13.598  12.494   2.859  0.1565  0.1085  0.1588
11329W        W29533  10.720   9.048  13.107 -0.1095 -0.0369 -0.0415
11330W        W29534  16.607  10.621  15.176  0.0628 -0.1204 -0.1830
11331W        W29535   3.276  15.232   2.019 -0.2503  0.1832 -0.1239
11332W        W29536  12.585   7.579  14.656 -0.0505  0.1477  0.0116
11333W        W29537  14.279  16.850  13.392 -0.1324  0.1527 -0.0488
11334W        W29538  12.305  10.654  14.383 -0.1940  0.0673 -0.2822
11335W        W29539   4.980   3.852   4.604  0.1635 -0.1472  0.1567
11336W        W29540   9.163  11.720  13.478 -0.1630  0.0471  0.2310
11337W        W29541   2.573   6.943   0.601  0.0764  0.1697  0.0896
11338W        W29542  11.353   4.972   5.259 -0.1084 -0.0886 -0.0665
11339W        W29543  12.976  11.904   4.752 -0.2009 -0.4731  0.1249
11340W        W29544   7.506  14.802  15.920 -0.1041  0.2124 -0.1849
11341W        W29545   7.961  13.513   5.008  0.3954 -0.2469 -0.2084
11342W        W29546  13.058  15.847   0.420  0.0576  0.2897  0.0556
11343W        W29547   0.952  15.638  14.607 -0.1339  0.0395 -0.0209
11344W        W29548   2.432   6.664   2.599 -0.0572  0.0395  0.1460
11345W        W29549   7.955   3.383  17.048 -0.0654  0.0077 -0.0437
11346W        W29550  15.410   4.190  11.931 -0.0424  0.1790 -0.0660
11347W        W29551  12.894  11.845   2.206 -0.0133  0.0045 -0.0778
11348W        W29552   7.774   5.116  14.421 -0.1256 -0.0452  0.2163
11349W        W29553  10.226  12.645  15.531 -0.1177 -0.1283 -0.1251
11350W        W29554   7.525   5.295   4.419  0.0870 -0.2657 -0.1671
11351W        W29555   9.395   7.191  13.123 -0.0286 -0.0940 -0.1259
11352W        W29556   0.970  14.015   5.438  0.0698 -0.2370  0.0629
11353W        W29557   6.725   5.842   2.091 -0.0876  0.0816  0.4096
11354W        W29558   4.045   2.431   0.765 -0.1044  0.0036  0.4970
11355W        W29559   4.169  12.543  13.560 -0.0553 -0.0302 -0.0336
11356W        W29560   2.415   4.869   4.393 -0.0896  0.1374  0.1799
11357W        W29561  16.420   3.325  14.637  0.2210 -0.1233 -0.0788
11358W        W29562   4.012   3.110   0.960  0.0222  0.2705  0.1265
11359W        W29563  10.253   2.519  13.184 -0.0229 -0.2110 -0.4088
11360W        W29564   0.349   8.314  13.864 -0.0824  0.0495  0.0062
11361W        W29565   2.788  13.811   1.826  0.0172 -0.1113 -0.1018
11362W        W29566   8.402  16.314  15.587 -0.1648 -0.2980 -0.0416
11363W        W29567   1.094  16.131   0.225 -0.1085 -0.1326 -0.0803
11364W        W29568   4.469  14.056   4.113 -0.2092  0.0608  0.2038
11365W        W29569   8.096  15.382  13.587  0.0310  0.1528  0.0356
11366W        W29570  12.299   3.360   4.498  0.1961 -0.0618 -0.2512
11367W        W29571  11.108   0.499   0.139  0.0617 -0.1466  0.2166
11368W        W29572  12.274   1.848   3.029 -0.0088 -0.0384 -0.2712
11369W        W29573  13.813  15.637   2.466 -0.1993 -0.0301  0.0480
11370W        W29574   3.180   7.110  16.774  0.0946 -0.1533  0.1000
11371W        W29575   1.051  10.056  14.005  0.2477 -0.1052 -0.0134
11372W        W29576   6.971   7.208  15.641  0.0365  0.2642  0.3027
11373W        W29577  12.178   1.099  16.863 -0.0196 -0.1310 -0.1610
11374W        W29578  11.220  11.747   1.202 -0.1176 -0.0620  0.0490
11375W        W29579   1.662  10.263  13.114  0.1335  0.2638 -0.1685
11376W        W29580   2.533  14.362  17.463 -0.2528 -0.0096 -0.0165
11377W        W29581   4.884   6.936  15.766 -0.0253  0.3217  0.2995
11378W        W29582   5.665  11.406  15.503 -0.2748 -0.0134 -0.0616
11379W        W29583   7.469  13.400   2.185  0.3161 -0.2153 -0.2678
11380W        W29584   3.160   4.363  13.919  0.2900  0.0702  0.0616
11381W        W29585   1.996   7.933  12.477  0.0643  0.0055 -0.1601
11382W        W29586   6.487   5.805   5.014  0.1313  0.0192 -0.0839
11383W        W29587  13.844  11.898   2.844  0.0590 -0.3859 -0.2654
11384W        W29588   5.188  14.040  13.798 -0.0993 -0.3065 -0.1765
11385W        W29589   0.291   6.363  14.563  0.0089 -0.2961  0.0142
11386W        W29590   4.708  15.591   5.245 -0.0347 -0.1375 -0.2669
11387W        W29591   5.434  17.020   4.872  0.3067  0.0551  0.3691
11388W        W29592  12.004  12.066   3.314  0.2508 -0.3243  0.1187
11389W        W29593  15.663  11.211   0.529  0.0089  0.1216 -0.1800
11390W        W29594   0.682   4.615   4.913 -0.1027 -0.1282 -0.0402
11391W        W29595   6.377  15.545  15.745 -0.2383  0.1988  0.1951
11392W        W29596   5.593   8.491   3.766 -0.2666 -0.1942 -0.2295
11393W        W29597   2.212  11.641  16.911  0.1682  0.2883 -0.0221
11394W        W29598  15.245  16.827   2.097  0.0249  0.1145 -0.1162
11395W        W29599   8.341  10.646   3.909 -0.0111 -0.1138 -0.2216
11396W        W29600   2.035   1.020   3.743 -0.0390  0.2982 -0.0794
11397W        W29601   9.280  11.160  14.590 -0.0696 -0.1225 -0.2415
11398W        W29602   9.865  12.037   1.064 -0.2409 -0.1759  0.2094
11399W        W29603  15.923  13.801  16.800  0.0585  0.2381  0.1948
11400W        W29604   4.199   1.080  14.078 -0.0061 -0.2047 -0.2124
11401W        W29605   7.963   8.690  11.490  0.1008 -0.4170 -0.2552
11402W        W29606   3.847   1.372   2.287 -0.2592  0.1033  0.1300
11403W        W29607   9.721  10.558   4.430  0.1398 -0.0542  0.1580
11404W        W29608   8.550  10.954  15.186 -0.0239 -0.2057 -0.0212
11405W        W29609   8.066  15.081  11.379 -0.2778  0.2941  0.2795
11406W        W29610   2.374  13.771  15.992 -0.0235 -0.0384  0.0693
11407W        W29611   5.587   2.857  15.734  0.0034  0.1244 -0.1929
11408W        W29612   8.041  12.624   2.369 -0.0422  0.1087 -0.1569
11409W        W29613   2.614   4.858  13.515 -0.0660 -0.4082 -0.3148
11410W        W29614  10.519   0.031  17.091  0.1419  0.1323 -0.0618
11411W        W29615  15.937  13.283  15.212 -0.0820  0.1264 -0.1759
11412W        W29616   6.095  16.762   1.115 -0.0103 -0.2930  0.1709
11413W        W29617   4.050   5.138  13.797  0.0381  0.1850  0.0497
11414W        W29618   3.133   3.196   1.490  0.0519 -0.1323  0.1256
11415W        W29619  14.392   6.688  16.950 -0.0404 -0.2666 -0.0603
11416W        W29620  13.147   9.014   3.768  0.3825  0.1804  0.1450
11417W        W29621   6.427   9.675  15.841 -0.2413  0.0786  0.1787
11418W        W29622  14.929   8.743  15.544  0.1111 -0.0194 -0.0841
11419W        W29623  17.017   2.291   4.955  0.0054  0.2673  0.0508
11420W        W29624   8.217   0.303  16.956  0.1768 -0.1769 -0.2710
11421W        W29625  10.610  11.639  12.329  0.0663 -0.1816 -0.0653
11422W        W29626  16.063   5.270  14.725  0.0551  0.0067 -0.1887
11423W        W29627  10.538  13.754  16.210 -0.2898  0.0937 -0.1195
11424W        W29628   1.967  16.290   4.034  0.0464 -0.0136  0.2964
11425W        W29629  10.551   8.388  12.307 -0.0842  0.2958  0.1142
11426W        W29630   0.619   9.165   2.004 -0.1378 -0.0183  0.0390
11427W        W29631  13.060   6.457  14.112  0.0431 -0.0989 -0.0182
11428W        W29632   1.429   0.840   2.748  0.1071 -0.1838 -0.0095
11429W        W29633   0.359  16.265  14.403 -0.5115  0.2084 -0.0128
11430W        W29634   3.043   3.201   4.340 -0.0545  0.1759  0.0668
11431W        W29635   2.114  14.904  17.378 -0.0621  0.1929 -0.2065
11432W        W29636   4.644  12.550  14.818 -0.0800 -0.0680  0.0154
11433W        W29637  11.012   8.194   2.875 -0.0920 -0.0305  0.0593
11434W        W29638   3.479   0.707   1.034  0.0663 -0.0487  0.4082
11435W        W29639  12.310   4.963  13.399  0.1727 -0.2594  0.2797
11436W        W29640   8.794   0.908  16.160 -0.3044 -0.0161 -0.1393
11437W        W29641  10.099  16.431  15.027  0.0784 -0.0746 -0.2016
11438W        W29642  17.201   1.323   5.545  0.0409  0.2384 -0.2228
11439W        W29643  13.417  14.051  17.428 -0.1131  0.0345 -0.0328
11440W        W29644   4.919  15.888  14.506  0.4652 -0.0646  0.1037
11441W        W29645   8.603   8.349   0.787 -0.3229  0.0365  0.2838
11442W        W29646   9.872  10.987  16.631  0.1648  0.0456  0.0455
11443W        W29647   1.534  12.763   5.297  0.2269  0.0544  0.1294
11444W        W29648  10.233  16.304  13.857 -0.0016 -0.3032 -0.0148
11445W        W29649   5.414  14.089  14.303 -0.1879  0.5671 -0.0310
11446W        W29650   0.098   3.938  15.261  0.0121 -0.0855 -0.0741
11447W        W29651   0.701   9.263   1.365  0.0252  0.2649  0.1388
11448W        W29652   0.904   0.039  17.099 -0.2238 -0.3539  0.1254
11449W        W29653   7.920   7.372   3.506  0.0810  0.0518 -0.3100
11450W        W29654   0.696   2.730  16.309 -0.0288 -0.1158  0.0057
11451W        W29655   4.600   6.678   0.213  0.1959  0.1923  0.1617
11452W        W29656   2.262   7.316   0.916  0.0618  0.0305 -0.1216
11453W        W29657   2.342   6.331  13.955 -0.0655  0.2588 -0.3101
11454W        W29658   6.102   8.661   3.427 -0.1246  0.0200  0.1891
11455W        W29659   3.241  10.791   5.172  0.2074 -0.0193  0.2076
11456W        W29660   8.975   6.687  16.389  0.0656  0.3325 -0.0532
11457W        W29661   7.500  14.064   1.640 -0.0529  0.0741 -0.0090
11458W        W29662   7.274   0.423   3.405 -0.1841 -0.0827  0.2468
11459W        W29663   8.837   3.612  15.547 -0.0357 -0.0025  0.4977
11460W        W29664   2.006  12.502   5.378 -0.2496 -0.0314 -0.1676
11461W        W29665   4.250   7.379  15.056  0.0264  0.0700  0.1020
11462W        W29666   7.054  16.168   4.281  0.2739  0.1081 -0.2285
11463W        W29667  15.630  12.948  14.947 -0.1379  0.2046  0.1148
11464W        W29668  12.668   3.553  12.036  0.1473  0.0048  0.0747
11465W        W29669  13.344   1.827   0.319 -0.2549  0.1553  0.2125
11466W        W29670   0.307   7.699  15.166  0.1118 -0.0146  0.0523
11467W        W29671  11.333  11.597  15.334 -0.0323  0.0556 -0.1191
11468W        W29672   4.531  11.927   0.764 -0.4275  0.0243  0.1721
11469W        W29673   5.003   3.577  12.232 -0.0313 -0.1690 -0.0492
11470W        W29674   5.131  12.799  13.499 -0.0682 -0.0298 -0.0725
11471W        W29675   2.315   0.634  15.851  0.0985 -0.4008 -0.1732
11472W        W29676  13.997  14.710  13.819 -0.3242  0.0074 -0.4170
11473W        W29677  14.099   3.230  16.858 -0.0193  0.2265  0.0271
11474W        W29678   2.416  16.437   1.756 -0.3996  0.1377 -0.5267
11475W        W29679   5.887   6.920   1.778  0.0668 -0.2665  0.0274
11476W        W29680  11.343  16.357   2.998 -0.0455  0.2267  0.1665
11477W        W29681   4.159  10.944  12.691  0.1347  0.2499  0.1085
11478W        W29682  16.493  13.414   1.582 -0.0669 -0.4447 -0.2092
11479W        W29683   1.699   3.748   1.121 -0.0486  0.2155 -0.1411
11480W        W29684  14.724   9.859   4.527  0.1811 -0.0689 -0.0153
11481W        W29685   4.143   5.548  14.055 -0.1370 -0.3974 -0.2925
11482W        W29686   1.814  11.658   1.850 -0.1161 -0.5378  0.1054
11483W        W29687  10.961   7.969  14.458  0.2107  0.1214  0.0632
11484W        W29688  11.811   7.528   4.478  0.1115  0.2543 -0.2216
11485W        W29689  17.120   3.679   0.077 -0.1994 -0.1150 -0.1180
11486W        W29690   6.943   0.783  12.461  0.0222  0.0739  0.1065
11487W        W29691   2.447  10.987   2.883 -0.0547  0.5536 -0.0043
11488W        W29692   9.335   7.254  14.750 -0.0157 -0.0613  0.0983
11489W        W29693   3.033  17.291   3.757 -0.0926 -0.0755 -0.1080
11490W        W29694   4.399  10.716   3.543  0.0493  0.2716  0.0230
11491W        W29695  16.247  10.219  16.862  0.0420 -0.0246 -0.0462
11492W        W29696  10.112   1.753   0.332 -0.0048 -0.0375 -0.1283
11493W        W29697   8.689  16.029   2.413  0.2115  0.3361  0.0559
11494W        W29698  15.180   1.922  12.775  0.0953 -0.0622  0.0489
11495W        W29699  11.814   6.383  17.348 -0.5100  0.4197 -0.2999
11496W        W29700   2.166   9.798   1.498  0.0873 -0.0194  0.1440
11497W        W29701   3.707  13.161   2.415 -0.0606  0.0577 -0.3315
11498W        W29702  14.448  11.359   3.230  0.0556  0.0874  0.2833
11499W        W29703   9.847   0.347   3.477  0.0695  0.3429 -0.1061
11500W        W29704  15.543   9.643  12.835 -0.0306  0.1330 -0.1215
11501W        W29705  16.286  14.694   2.423 -0.2371 -0.0389  0.0525
11502W        W29706   9.903   6.159  16.539  0.0188 -0.1166 -0.1697
11503W        W29707  15.584  14.133  13.075 -0.0661  0.0643 -0.1691
11504W        W29708  10.049  13.752   2.648  0.2078 -0.2480  0.0616
11505W        W29709   8.381  17.038  17.123  0.0591  0.0591 -0.4359
11506W        W29710  15.840   8.766   4.428  0.1969 -0.2283  0.1682
11507W        W29711  12.488   4.108  11.862 -0.1158 -0.1663  0.2819
11508W        W29712   4.672   9.478  17.396 -0.0972  0.0864  0.1759
11509W        W29713  16.485   7.159  14.234 -0.0303 -0.0762  0.2200
11510W        W29714   3.045   7.535   2.973  0.1403 -0.3104 -0.5308
11511W        W29715  16.740  16.479   2.161  0.0446  0.2257  0.3578
11512W        W29716   8.349   7.300  17.285  0.0094  0.6169  0.1852
11513W        W29717  14.797  12.760  17.499  0.0793  0.0309 -0.1170
11514W        W29718   7.326   8.435  14.223 -0.5861 -0.1235 -0.0026
11515W        W29719   6.299   4.355   5.394 -0.0051 -0.3162 -0.0413
11516W        W29720  14.191   9.739  17.000  0.0308 -0.2954  0.1465
11517W        W29721   6.795   1.396   1.846 -0.2489 -0.0707 -0.0894
11518W        W29722  14.657  15.562  17.431 -0.0826  0.1621 -0.0616
11519W        W29723   1.635   2.858   2.290  0.0486 -0.1237  0.1149
11520W        W29724   2.603   0.171   3.490  0.1794  0.0360 -0.1401
11521W        W29725   3.739   1.799   3.401  0.0369 -0.1534 -0.1607
11522W        W29726   4.164   0.986   4.355  0.1603  0.1402 -0.0858
11523W        W29727   9.665  13.058   4.368  0.2237 -0.2481  0.1082
11524W        W29728   7.549   4.052   0.997  0.0641  0.3944 -0.1397
11525W        W29729   9.993   5.330  14.782 -0.4079 -0.1095  0.1936
11526W        W29730   5.280  16.539   0.460 -0.2195 -0.1904 -0.2536
11527W        W29731   0.902   2.434  16.713  0.1376  0.4326 -0.2645
11528W        W29732   4.911   3.924  16.489  0.1597 -0.2597 -0.2016
11529W        W29733  11.315   7.260  12.178 -0.0586  0.0203 -0.2490
11530W        W29734  10.563   4.184   4.107 -0.2398 -0.0417 -0.0522
11531W        W29735   1.489   3.802   0.580 -0.2096 -0.0422 -0.2041
11532W        W29736   4.564   7.602   1.687 -0.3828  0.1332  0.1010
11533W        W29737  16.125   0.798  15.322  0.0189 -0.0609 -0.1591
11534W        W29738   6.796  16.170   1.265 -0.2406 -0.4002  0.0447
11535W        W29739  10.413   5.549   4.106  0.0038  0.2518  0.1796
11536W        W29740   2.749   9.757  15.333 -0.3726 -0.0749 -0.0188
11537W        W29741  13.959   4.984  15.576 -0.1692 -0.1863 -0.0020
11538W        W29742   7.106  10.623   0.335  0.1025 -0.0890 -0.0178
11539W        W29743   4.480   3.343  16.032 -0.1302  0.1629  0.1788
11540W        W29744  10.975   0.956   4.040  0.0646 -0.0153  0.1223
11541W        W29745   7.561   2.496   1.292 -0.2020  0.0395 -0.2108
11542W        W29746   6.950   9.568  13.802 -0.0014 -0.1895  0.0163
11543W        W29747  15.508   1.553   0.381  0.0480  0.0210  0.1809
11544W        W29748   0.890   3.336   3.743 -0.1151  0.0736 -0.0038
11545W        W29749  13.007   5.815   0.894 -0.1643  0.0228 -0.0388
11546W        W29750   5.741   4.292  15.893 -0.3832  0.1819 -0.2722
11547W        W29751  15.255   2.729  12.960 -0.0233  0.0565 -0.0108
11548W        W29752  14.062   6.010  14.065 -0.0430 -0.0850  0.1174
11549W        W29753   3.250  13.602  14.097  0.0019  0.1230  0.2802
11550W        W29754   1.451   6.474  15.615 -0.0036  0.1291 -0.0559
11551W        W29755   4.712   1.830  16.013  0.0245 -0.1027 -0.2191
11552W        W29756   9.487   1.864  13.181 -0.0247 -0.0641  0.2859
11553W        W29757  11.212   7.170  15.024  0.0500  0.1154 -0.0668
11554W        W29758  11.219   1.474   4.008 -0.1698  0.1352  0.0807
11555W        W29759  11.485   7.340   0.778 -0.1304 -0.0118 -0.0073
11556W        W29760   0.978   0.163   3.921  0.0524  0.0796 -0.1196
11557W        W29761  15.651   3.092   1.440  0.0527 -0.1824  0.0338
11558W        W29762   8.267  13.705  16.557  0.2441  0.0734  0.0056
11559W        W29763   9.414  10.405   2.060  0.5089  0.1327  0.0776
11560W        W29764   1.250   8.782  13.529  0.0724  0.3219 -0.1517
11561W        W29765  15.486   3.627  16.227 -0.1491 -0.2086 -0.0716
11562W        W29766   8.910   5.894  16.972 -0.1486  0.0193 -0.1663
11563W        W29767   2.520  13.162   2.459 -0.0618 -0.2703  0.0368
11564W        W29768   3.901   3.503  15.834 -0.2406  0.1635 -0.0332
11565W        W29769   7.536  13.892   3.589  0.0198  0.1353  0.0471
11566W        W29770   0.888   8.276   3.978 -0.3259 -0.1972  0.0235
11567W        W29771   2.852   1.984   3.776  0.2602 -0.1315  0.0208
11568W        W29772  14.749  16.196   5.869 -0.0971  0.1302  0.0038
11569W        W29773   7.927  17.152  16.871 -0.1691 -0.0186 -0.0351
11570W        W29774  11.877   3.245   2.116 -0.1631 -0.0571  0.0997
11571W        W29775  12.466  12.107   1.922 -0.0045  0.1191 -0.1764
11572W        W29776  14.226   4.531  16.128  0.1955 -0.1774 -0.0177
11573W        W29777  10.015   2.517   4.646 -0.1997  0.1290 -0.0858
11574W        W29778   5.097  11.989   4.650  0.2533  0.1702  0.3491
11575W        W29779  15.532  16.866   2.922  0.1522  0.2530 -0.0592
11576W        W29780  14.127   3.038   5.125 -0.0088  0.1074 -0.2755
11577W        W29781   7.862   1.869   4.198  0.1875 -0.1626  0.0903
11578W        W29782   6.426  10.445  15.431 -0.0252  0.2749  0.0751
11579W        W29783   3.875  12.710  13.018 -0.0034 -0.0122 -0.1874
11580W        W29784  16.479  17.192  16.042  0.0239  0.2030 -0.0422
11581W        W29785  14.818   4.205  12.595 -0.1292 -0.3102 -0.0991
11582W        W29786   4.615  14.008   5.531  0.3072 -0.0568  0.2032
11583W        W29787   0.655  14.481  13.182 -0.2619 -0.1409 -0.2082
11584W        W29788  16.030   1.927   3.671 -0.0773  0.1058  0.0924
11585W        W29789   2.950   3.033  16.256  0.1315  0.1355  0.1343
11586W        W29790   1.119  10.658  15.093 -0.0169  0.0202  0.1420
11587W        W29791  15.146  16.690   2.601 -0.1071  0.3987 -0.0107
11588W        W29792   9.467   7.571  14.257  0.0144 -0.1129  0.0328
11589W        W29793   6.160  10.547  16.821 -0.0992  0.1328 -0.2427
11590W        W29794   5.706  11.941   1.567 -0.2893 -0.0723 -0.0759
11591W        W29795   9.443   2.303  13.455  0.1647 -0.1378  0.3932
11592W        W29796   4.292   0.952  14.617 -0.1486  0.0981 -0.1715
11593W        W29797   3.390   2.737  14.311  0.2438  0.0843  0.0512
11594W        W29798   4.485  12.864  14.375 -0.4448 -0.1094 -0.0691
11595W        W29799   5.639  13.341   6.209  0.1802  0.0248 -0.0434
11596W        W29800   7.770   8.850  12.449  0.1472 -0.1594  0.0177
11597W        W29801   0.425  13.158  15.265  0.1896 -0.3075  0.1615
11598W        W29802   7.775  10.064   0.495 -0.0053  0.0166 -0.1272
11599W        W29803  11.032   3.465  12.137 -0.0469  0.3633  0.1285
11600W        W29804  15.402   3.542   4.027  0.1089 -0.2831 -0.1764
11601W        W29805   9.142   3.072   2.936  0.0986 -0.0443  0.1777
11602W        W29806  16.561   9.131   2.398  0.3395  0.1044  0.1972
11603W        W29807   9.615  12.754  17.482 -0.1246  0.0407 -0.0584
11604W        W29808   7.846   9.448   2.115  0.4133 -0.0194  0.0428
11605W        W29809  13.152  10.309  15.612  0.1673 -0.1501 -0.0882
11606W        W29810   2.346   4.614  12.263  0.2508 -0.1507  0.1504
11607W        W29811   4.720   3.764   5.012  0.0062  0.2707  0.2520
11608W        W29812   5.390   9.704  14.915 -0.1699 -0.1861 -0.0919
11609W        W29813   9.557   6.280   4.933  0.0887 -0.2928  0.0337
11610W        W29814   4.435   2.976  15.234  0.0936  0.1756 -0.0599
11611W        W29815  12.951   0.291  12.829 -0.1271  0.2153  0.0948
11612W        W29816   9.314   2.109   3.983  0.1542 -0.1608  0.0927
11613W        W29817  16.960  16.782  13.114  0.0254 -0.1723 -0.2347
11614W        W29818   3.275  10.907  16.630  0.0332 -0.3036 -0.1210
11615W        W29819  16.579   0.745  14.019  0.0458 -0.0292 -0.0617
11616W        W29820   0.390   4.713  12.754  0.0657 -0.0968 -0.0120
11617W        W29821  11.388   2.815  13.923  0.0922  0.0890  0.0189
11618W        W29822  12.594  16.524   5.304  0.5421  0.2296 -0.0778
11619W        W29823   8.128  16.690   2.420 -0.1191  0.2890 -0.2707
11620W        W29824  13.170   3.299  16.672 -0.2255  0.0264  0.1016
11621W        W29825   0.803  10.979  14.896  0.1994  0.0079  0.0666
11622W        W29826   9.633  16.022   1.383 -0.1437  0.0523 -0.3264
11623W        W29827   7.990   4.505   3.187  0.2208  0.0268 -0.0742
11624W        W29828   2.098   4.676   1.289 -0.0778  0.0551 -0.1073
11625W        W29829   9.718   0.738   4.808 -0.4104  0.1065  0.0039
11626W        W29830  10.926   7.912   1.510  0.2579  0.2013  0.3155
11627W        W29831   3.568  17.006  15.616 -0.0706  0.4564  0.2115
11628W        W29832  11.957   6.110  14.656  0.0622 -0.2789 -0.0380
11629W        W29833  13.620   1.157  17.061 -0.2760 -0.1475  0.0653
11630W        W29834  15.418  15.682   4.642 -0.2105 -0.0114 -0.3727
11631W        W29835   5.573   3.213   3.156 -0.0683 -0.0785  0.0162
11632W        W29836  11.444  12.359  15.560 -0.0422  0.0957 -0.2021
11633W        W29837  14.802   0.093   1.413 -0.0047 -0.1660 -0.1920
11634W        W29838   2.097  13.395  15.705 -0.1471  0.1282 -0.1875
11635W        W29839   9.958   4.191   2.148 -0.3549 -0.0585 -0.1613
11636W        W29840  17.013  14.326   0.646 -0.1742  0.0314 -0.1070
11637W        W29841  13.231   5.346   0.031  0.0857  0.0036 -0.0454
11638W        W29842  10.568  10.733   5.350  0.2958  0.3169  0.2560
11639W        W29843  13.107  15.630   3.658  0.0639  0.0747 -0.1370
11640W        W29844  11.343   2.483   1.160  0.2032 -0.2562  0.0864
11641W        W29845  16.582   1.236  14.170  0.0445 -0.2341 -0.2152
11642W        W29846  12.535   7.855  12.997  0.1566 -0.0630  0.1398
11643W        W29847   9.869  16.049  14.058  0.2003 -0.0768  0.1800
11644W        W29848  10.435   4.495  14.325  0.0066  0.0864 -0.1930
11645W        W29849   3.260  16.050  15.695  0.0406 -0.0899  0.0946
11646W        W29850  12.419   8.973  11.298  0.2319  0.2293  0.0129
11647W        W29851   9.494   4.151   1.408  0.0981  0.0910 -0.1570
11648W        W29852   3.845   8.905   2.367  0.3570  0.1546  0.1060
11649W        W29853   4.795   4.847   1.910  0.0741 -0.1289 -0.0665
11650W        W29854  13.894  12.954  13.269  0.3053 -0.3116 -0.0985
11651W        W29855   6.422   2.173   3.021 -0.2163 -0.0119  0.1106
11652W        W29856   9.496   3.282  14.621  0.0018 -0.0245 -0.2379
11653W        W29857   5.678   3.210   1.115 -0.1355 -0.2451  0.2604
11654W        W29858   3.777   8.241   0.381  0.1229  0.0098 -0.0438
11655W        W29859  13.130   4.126  17.132 -0.0687  0.0404  0.1530
11656W        W29860   4.910  15.347   3.281 -0.1267 -0.1373 -0.1082
11657W        W29861  16.821   8.080   2.545 -0.0374  0.1064 -0.0258
11658W        W29862   5.170  10.055  13.128  0.2376  0.0040 -0.1505
11659W        W29863  12.365   1.176   0.378 -0.1957 -0.0317  0.1590
11660W        W29864   2.351   7.561   2.393  0.0279  0.0996 -0.1356
11661W        W29865   5.625   8.409   4.212 -0.4989  0.0354 -0.2468
11662W        W29866   2.279   6.645  16.692  0.3502  0.0672 -0.1962
11663W        W29867  16.578   7.801  12.418 -0.2191 -0.0751  0.1742
11664W        W29868   5.639   6.345   1.088 -0.1668  0.0981 -0.1313
11665W        W29869  11.049   8.539   1.614  0.0629 -0.0952  0.1420
11666W        W29870   0.415   1.606   4.634  0.2017 -0.1249  0.0057
11667W        W29871   3.007   7.374  15.642  0.2595 -0.0416 -0.1097
11668W        W29872  16.538   0.503   2.735  0.0039 -0.0638 -0.2752
11669W        W29873  12.151   4.492  17.042  0.1381  0.0115  0.4409
11670W        W29874  16.205   6.690  16.246  0.3109  0.0348  0.3875
11671W        W29875  10.270   5.372   2.604  0.2377 -0.0709 -0.0592
11672W        W29876   8.656   2.489   2.582  0.1418  0.3892 -0.2440
11673W        W29877   2.696   7.146   3.113 -0.1303 -0.3427 -0.1368
11674W        W29878   9.349  11.499  13.994 -0.2359  0.3185  0.2085
11675W        W29879   1.143  11.954  17.159  0.1810 -0.1555  0.1854
11676W        W29880  15.333   8.162   2.683  0.0665 -0.0644  0.4923
11677W        W29881   6.164  12.862  16.363  0.2300  0.3213  0.5060
11678W        W29882   0.508  12.423  14.760 -0.1547 -0.1661 -0.2245
11679W        W29883  16.348  10.800   5.647 -0.0726 -0.0287  0.3832
11680W        W29884   7.553   5.447   0.605 -0.3436 -0.0067  0.1143
11681W        W29885   6.013   4.731  16.071 -0.1738 -0.2516  0.1659
11682W        W29886  13.605   5.139  14.215  0.0741 -0.3402  0.2228
11683W        W29887   6.820   5.261  13.321  0.5539 -0.1513  0.0223
11684W        W29888  12.329  13.011   0.924  0.1187 -0.4653  0.0183
11685W        W29889   4.460   2.789  13.112  0.1720  0.0789  0.1931
11686W        W29890   3.805   9.345   5.257 -0.0902  0.0347 -0.2613
11687W        W29891  16.479   7.951  13.612  0.2568 -0.1316 -0.1335
11688W        W29892  10.254   9.995  13.267  0.0391 -0.1143  0.1206
11689W        W29893  15.236  12.372   2.652  0.0278  0.0537  0.3210
11690W        W29894   8.539  11.816   4.676  0.0451 -0.1082 -0.0749
11691W        W29895   3.427  10.007   4.621  0.0057  0.1782 -0.1392
11692W        W29896  10.851  14.730  14.543  0.0202 -0.4024  0.2800
11693W        W29897  12.376  16.323   4.126  0.2516  0.1167  0.1438
11694W        W29898   7.933  10.501  13.605  0.0692 -0.0114 -0.1687
11695W        W29899   2.546   2.427  15.814 -0.3924  0.1790  0.0506
11696W        W29900  15.803   2.983   2.646  0.0732  0.1917 -0.0624
11697W        W29901  12.446   0.749  14.180  0.2832 -0.2677  0.1990
11698W        W29902   2.360  10.227  14.498 -0.0039 -0.0247 -0.1190
11699W        W29903  15.055  10.863   2.130 -0.1606 -0.1182  0.0260
11700W        W29904  16.545  15.647  14.919 -0.0588 -0.1697  0.1179
11701W        W29905   7.715  13.054   2.529 -0.2217 -0.4257  0.0243
11702W        W29906   3.233   9.129   4.410 -0.0104  0.3583  0.2300
11703W        W29907  10.104  15.265  12.991  0.0560 -0.2300  0.0133
11704W        W29908  13.160   4.379  16.216  0.2052 -0.0715 -0.1613
11705W        W29909   4.279   5.870   0.745  0.1755 -0.4343 -0.3557
11706W        W29910   9.338   5.006   2.242  0.3293 -0.0780  0.2906
11707W        W29911  16.130   3.296  16.514  0.3084  0.2313 -0.1868
11708W        W29912   9.706   9.846   2.856  0.0958 -0.0500  0.1447
11709W        W29913  17.149   8.437  16.203  0.0397  0.0122 -0.1905
11710W        W29914  15.927  16.425   3.213  0.1065  0.0229  0.0019
11711W        W29915  14.192   9.734   5.202 -0.2690 -0.1083  0.0976
11712W        W29916  16.433   5.033   4.636 -0.0602 -0.1402  0.2850
11713W        W29917   2.621  17.045   3.842  0.0335 -0.1138 -0.1824
11714W        W29918  17.137  12.694   0.740  0.0530 -0.1718 -0.4847
11715W        W29919  16.987  11.343   1.501  0.1356 -0.2046  0.5251
11716W        W29920  10.279   8.346  15.018 -0.1676 -0.3257 -0.0208
11717W        W29921   5.110  10.587   5.509  0.2299 -0.0508 -0.2134
11718W        W29922  10.185  14.065  13.300  0.0458 -0.1945  0.0358
11719W        W29923  12.878  14.048  14.233  0.0109 -0.0240  0.0944
11720W        W29924   6.707   8.628  17.311  0.0520  0.1239  0.2697
11721W        W29925   9.521   3.643  12.385  0.2200 -0.2636 -0.2054
11722W        W29926   1.434   1.613   2.022  0.1870 -0.1110  0.1043
11723W        W29927   7.407   8.050   2.072 -0.0091  0.5052 -0.1304
11724W        W29928  17.301   9.875  14.505  0.0142 -0.5261 -0.2307
11725W        W29929   4.721  10.926   2.376 -0.0505  0.0270  0.2354
11726W        W29930   3.587   1.895  15.558 -0.1243 -0.2405  0.1450
11727W        W29931   6.428   3.670  12.704 -0.1362  0.0481 -0.1839
11728W        W29932   9.799  12.223   5.445  0.3050  0.1188  0.0360
11729W        W29933  11.952   7.359   2.025  0.0101  0.2796 -0.1545
11730W        W29934  14.261   9.176   5.181  0.0939 -0.3500  0.2403
11731W        W29935   4.490   7.519   3.517  0.1164  0.0455 -0.0813
11732W        W29936   6.045   1.678   5.051 -0.2613 -0.0061  0.1108
11733W        W29937   0.719  13.030   5.086 -0.1389  0.1277 -0.0649
11734W        W29938   4.972  10.436   1.636  0.3120 -0.0661  0.1603
11735W        W29939  13.902  14.837   4.052  0.0162 -0.1275 -0.1613
11736W        W29940  15.220   8.723   3.235 -0.1715  0.1596 -0.2979
11737W        W29941  13.728  11.610   0.023 -0.0407  0.1008 -0.2008
11738W        W29942   4.086  13.367   5.046 -0.2004  0.3283 -0.1371
11739W        W29943   2.610  11.627  14.567  0.1962  0.2186  0.0902
11740W        W29944   9.855  16.604  17.240  0.0562  0.0785  0.0413
11741W        W29945   9.891  16.253  16.022  0.1074 -0.0555  0.0238
11742W        W29946   8.095  16.623  11.981  0.1173  0.1808 -0.2427
11743W        W29947   9.343   6.921   3.015  0.0457  0.1657  0.1586
11744W        W29948  11.213  14.141  15.576 -0.0951  0.1270 -0.1863
11745W        W29949  15.060  16.974  13.749 -0.3269 -0.2150  0.0287
11746W        W29950   2.359  12.375   4.685 -0.2502 -0.0532 -0.1394
11747W        W29951  14.701  14.774   5.536 -0.0299  0.3787 -0.0699
11748W        W29952  15.078   5.649   0.801  0.2423 -0.0094  0.1250
11749W        W29953   9.306  10.110   5.057 -0.0172  0.2013  0.0045
11750W        W29954  17.129  13.045  15.838  0.2850  0.1245  0.5156
11751W        W29955  13.182   9.388  14.090 -0.0348 -0.3283  0.1503
11752W        W29956  15.122   8.874  17.369  0.0856 -0.1119 -0.0172
11753W        W29957   1.232   9.405  14.909  0.1411  0.1343 -0.2193
11754W        W29958  10.574  12.218  16.465 -0.0346  0.1196  0.1734
11755W        W29959   3.344   1.057  14.525  0.1254  0.2696 -0.3040
11756W        W29960   7.002  16.171   0.368 -0.0493  0.0167  0.0735
11757W        W29961  16.634   4.964   0.152 -0.1599 -0.1476 -0.0972
11758W        W29962  11.540   7.781   3.424 -0.0137 -0.0100 -0.1478
11759W        W29963   5.049   5.713   0.954 -0.0356 -0.1178 -0.3382
11760W        W29964   0.596   5.896   4.356  0.2046 -0.3825  0.2384
11761W        W29965   0.238  12.728  15.000  0.1413 -0.0656 -0.0859
11762W        W29966  11.160  12.493   4.892  0.0635 -0.0956 -0.1158
11763W        W29967  10.326   7.728  17.332  0.1695  0.3654  0.0711
11764W        W29968   2.340  17.143   2.268 -0.2553 -0.0408  0.1095
11765W        W29969   4.134  10.001  12.855 -0.1764  0.0980 -0.0419
11766W        W29970   7.364   1.793   2.134 -0.2105 -0.1549 -0.0911
11767W        W29971   7.017   6.100   3.439 -0.0381 -0.2674  0.1824
11768W        W29972   7.151   2.915  13.018  0.2452 -0.0726 -0.1215
11769W        W29973  12.268   0.772  14.737  0.0017 -0.0856  0.0747
11770W        W29974   0.173  11.424  13.100  0.0184 -0.2573  0.2555
11771W        W29975  14.075  16.400   4.589  0.1050 -0.0942 -0.1156
11772W        W29976  16.256  15.780  14.343 -0.1035 -0.0671  0.0600
11773W        W29977  16.623  10.940   4.854  0.1358  0.1562 -0.3759
11774W        W29978   7.681  15.092  14.399  0.0251 -0.1310 -0.1067
11775W        W29979   2.521  13.197  15.392  0.1358  0.1258 -0.1253
11776W        W29980  15.941   7.306  14.241 -0.0319  0.0375  0.0227
11777W        W29981   2.386   3.744   1.692 -0.3377  0.0285  0.1131
11778W        W29982   7.860  17.300   1.149 -0.1855 -0.1054  0.2125
11779W        W29983   5.098   1.175   0.636  0.4673  0.0513  0.2849
11780W        W29984   2.403   6.134  15.013  0.3427  0.1867  0.2210
11781W        W29985   8.565  15.128  12.735 -0.2080 -0.0731  0.1306
11782W        W29986  13.069  10.059   5.297 -0.0491  0.1075  0.1250
11783W        W29987  13.010   5.784  15.050 -0.2226 -0.3377 -0.0257
11784W        W29988  14.750   3.436  14.447 -0.2624 -0.1218  0.2402
11785W        W29989   5.432  10.657   4.154  0.0174 -0.0653 -0.0287
11786W        W29990  12.545   5.494  15.086  0.0304  0.0630 -0.0134
11787W        W29991   8.765   0.978  13.229  0.0338 -0.1780  0.0416
11788W        W29992   3.797  15.486  12.482 -0.2225  0.3092 -0.1258
11789W        W29993   9.056  15.903  16.031 -0.1546 -0.0854  0.0933
11790W        W29994   9.359  16.179   0.566  0.0044  0.0500 -0.1793
11791W        W29995   1.472  10.584   1.286  0.0093  0.1932  0.1060
11792W        W29996  14.516   2.314  13.008 -0.2663  0.0503 -0.1918
11793W        W29997   5.486  15.724  12.093 -0.0830  0.0884  0.0832
11794W        W29998   1.500  15.746   2.302 -0.0013 -0.3031  0.2253
11795W        W29999   6.652   0.931   4.880  0.2940 -0.3115 -0.0080
11796W        W30000  11.542   6.045   1.428  0.2023  0.2301 -0.1349
11797W        W30001  10.071   6.073   0.062  0.0180  0.2639  0.2273
11798W        W30002   6.366   1.999   3.983  0.1000 -0.0156  0.0966
11799W        W30003  13.461  12.636  15.778  0.0646 -0.0811  0.1483
11800W        W30004  15.532  15.411   2.861  0.3450  0.0662  0.0188
11801W        W30005   4.795   6.871  13.520 -0.1900  0.0425  0.1128
11802W        W30006   1.463   3.431  15.506 -0.0978  0.1212 -0.0036
11803W        W30007  16.063   6.642   0.105  0.3014  0.0517  0.2868
11804W        W30008   5.538  16.343   1.676 -0.0891  0.0741 -0.0922
11805W        W30009  11.947  16.463  13.903 -0.0818 -0.0204  0.3854
11806W        W30010  16.913  13.532   3.846 -0.2689  0.0975  0.1137
11807W        W30011  14.630  15.385  15.332 -0.0649  0.1762 -0.1309
11808W        W30012   9.953   8.350  13.640 -0.1388  0.3173 -0.2639
11809W        W30013  12.655   9.160  14.192  0.0871 -0.1527  0.2151
11810W        W30014  13.797   2.140   3.597 -0.2667 -0.1278 -0.0253
11811W        W30015   7.863   9.561   0.441  0.0571  0.0166  0.2851
11812W        W30016  16.278   1.187  12.863 -0.1966  0.1557 -0.2981
11813W        W30017  16.711   6.110   2.486 -0.1004 -0.1837  0.1736
11814W        W30018  12.280   7.535   2.415 -0.4533  0.1648 -0.1220
11815W        W30019  14.144   3.851   2.040 -0.0429  0.4003  0.2618
11816W        W30020   0.590   3.747   0.401 -0.1274  0.1998 -0.1956
11817W        W30021   3.076  10.021  14.917 -0.0102 -0.0520 -0.1324
11818W        W30022  14.383   5.136  14.850  0.0654  0.0299 -0.3810
11819W        W30023   2.361  11.725   2.213  0.1652  0.0657  0.0276
11820W        W30024   6.307  10.405   1.422  0.2234 -0.3110 -0.0596
11821W        W30025  11.050   5.036   0.026  0.2341  0.1515  0.2571
11822W        W30026   4.134   9.266   2.722 -0.0447 -0.1283  0.1913
11823W        W30027  11.042  13.402  15.072  0.2628  0.1638  0.0231
11824W        W30028  12.314  17.139  15.732 -0.1971 -0.1273  0.0990
11825W        W30029  10.939   5.554   0.277 -0.0210 -0.3385  0.1559
11826W        W30030   0.436   3.811   4.756  0.1929 -0.1237  0.0949
11827W        W30031   9.296   7.053   0.241 -0.3511  0.0409  0.0712
11828W        W30032  14.446  12.891   3.309 -0.1928  0.1421  0.1637
11829W        W30033  12.207  13.762   2.787 -0.0904  0.1546  0.3096
11830W        W30034  10.290   5.909   3.332 -0.1137 -0.1212 -0.3699
11831W        W30035  16.107   6.027   4.124  0.0387  0.0597  0.0121
11832W        W30036   8.886   0.136   3.336  0.1425  0.0187 -0.0529
11833W        W30037  10.015  14.095   4.659 -0.1695  0.1200 -0.0614
11834W        W30038   6.118   9.762  16.199 -0.3947  0.0047 -0.1634
11835W        W30039   5.109  16.817  12.301  0.0207  0.3571 -0.0806
11836W        W30040  12.381  16.004   2.690  0.0092 -0.0173 -0.2217
11837W        W30041   4.208   0.288   3.190 -0.1991  0.1748  0.2200
11838W        W30042  10.388  14.147  14.297  0.1073  0.0044  0.0329
11839W        W30043   9.700  14.930  16.420  0.0592  0.3092  0.0209
11840W        W30044   6.532  16.467   2.760  0.0189 -0.2529 -0.2478
11841W        W30045  12.243   0.604  16.656  0.0286 -0.1048  0.2713
11842W        W30046   1.632   3.934   4.033  0.2143  0.1621  0.2525
11843W        W30047   0.109  10.636  15.243  0.4229 -0.1653  0.0254
11844W        W30048  12.585  17.236   1.832  0.1275  0.1580 -0.3209
11845W        W30049  15.731   5.152   1.821 -0.0679  0.0327  0.1854
11846W        W30050   9.509   6.450   1.646  0.0313 -0.0020  0.1896
11847W        W30051   9.136  10.660   4.334 -0.1189  0.0454  0.1448
11848W        W30052   8.353  10.871  16.179 -0.1736 -0.2200  0.0718
11849W        W30053  16.317  16.649   6.083 -0.1056  0.2370 -0.2369
11850W        W30054   7.151   0.121   2.239  0.1512 -0.0533  0.1060
11851W        W30055  10.426   8.859  16.502  0.2592  0.1578  0.2178
11852W        W30056   1.562   2.121   4.773  0.0609  0.2206 -0.0802
11853W        W30057  11.178   4.143   1.982  0.0896 -0.0175  0.3367
11854W        W30058  15.348   0.198   5.837 -0.0707 -0.2096 -0.0347
11855W        W30059   2.990  13.852   4.536  0.3412  0.0057  0.0433
11856W        W30060   3.956  16.482   3.476  0.0572 -0.1460  0.0639
11857W        W30061  10.625   3.698   3.981 -0.0939  0.0435  0.1136
11858W        W30062  15.855   0.127  12.583 -0.1571  0.1411  0.0855
11859W        W30063   6.522  14.512   2.793  0.0870  0.1098  0.0956
11860W        W30064   9.354   1.496   0.774  0.4098 -0.2577  0.1832
11861W        W30065   6.557  11.835   1.907 -0.1515 -0.2639  0.2039
11862W        W30066   0.145   2.697  13.837  0.2640 -0.1524 -0.2295
11863W        W30067   4.299   3.391   3.882  0.0445  0.0689 -0.0678
11864W        W30068   2.108  12.309  15.718 -0.3136  0.1363 -0.0757
11865W        W30069  14.098  10.736  12.910 -0.1351  0.0024 -0.0966
11866W        W30070   7.246   7.273  16.231  0.0573 -0.0714 -0.0014
11867W        W30071  11.667   5.660  14.405 -0.0862  0.0662  0.1934
11868W        W30072  15.771  15.568   1.140  0.1814  0.3055  0.2461
11869W        W30073   0.278  15.715   2.898  0.1413  0.0833 -0.0684
11870W        W30074  11.590   0.016  11.976 -0.0886 -0.0532  0.2364
11871W        W30075  15.591   0.593   1.396 -0.0900 -0.0473 -0.0852
11872W        W30076  17.156  17.144   3.820 -0.0122 -0.3426  0.0031
11873W        W30077  12.666  17.277   3.018 -0.1946 -0.1423  0.0980
11874W        W30078  10.042   8.524   4.841 -0.2578  0.2818 -0.0580
11875W        W30079   3.307  10.455  12.784 -0.2069  0.0268 -0.0135
11876W        W30080  10.886   6.995  14.655 -0.0613 -0.0629  0.1969
11877W        W30081   4.248  12.451   2.191  0.0802 -0.0519  0.3425
11878W        W30082   0.829  10.563   5.949  0.0699 -0.0966  0.0472
11879W        W30083   1.826   7.907   4.880  0.0227  0.1611 -0.2939
11880W        W30084   8.237   1.602  14.767  0.0502  0.2400 -0.0217
11881W        W30085  10.963  14.508  15.841  0.3417  0.0744 -0.1811
11882W        W30086   8.489  12.308  13.971 -0.2324 -0.2824  0.4543
11883W        W30087   8.496   8.749  15.705  0.0059  0.0590 -0.1582
11884W        W30088   5.409  11.820  12.453  0.2310 -0.0658 -0.2837
11885W        W30089   0.308  11.456  16.458  0.1790 -0.1351 -0.1023
11886W        W30090  11.432  16.871   0.126 -0.0670 -0.1514 -0.4455
11887W        W30091   7.394  12.317  13.807  0.0803  0.0143  0.0562
11888W        W30092   8.688   5.913  17.453 -0.0048  0.0082 -0.0606
11889W        W30093   4.382   3.444   1.843  0.1077  0.4756 -0.4086
11890W        W30094  13.704   0.602   3.090  0.2374 -0.1288 -0.0981
11891W        W30095   4.719   2.612   0.218 -0.1800  0.1713  0.1396
11892W        W30096  13.929   5.704   1.841 -0.1731  0.0007 -0.0170
11893W        W30097  14.104  12.254   4.187 -0.2934  0.2330  0.1185
11894W        W30098   0.657  12.048   1.721  0.0918 -0.1062 -0.0045
11895W        W30099   7.243  14.266   1.131  0.2789 -0.1057 -0.3199
11896W        W30100   7.390   3.638   4.421 -0.0413  0.1727 -0.0943
11897W        W30101   2.912   3.150   1.043 -0.1927  0.1807  0.2486
11898W        W30102  11.858   4.183  15.223  0.0859  0.0137  0.0674
11899W        W30103  14.618  11.209   1.734 -0.1484 -0.2194  0.2242
11900W        W30104   8.526   0.574   1.432 -0.0981 -0.0596 -0.1699
11901W        W30105  12.732  14.663   1.300  0.0705  0.0337  0.1641
11902W        W30106  15.282   9.314   0.634  0.2008 -0.1225 -0.0518
11903W        W30107   2.117   3.744  15.875 -0.0969 -0.0051 -0.2026
11904W        W30108   9.400  13.727   1.652 -0.2103 -0.1132  0.0262
11905W        W30109   8.937  10.996   0.755  0.2676 -0.2164  0.2875
11906W        W30110  16.958   0.151  13.466 -0.3359 -0.0155 -0.3161
11907W        W30111   1.783  14.850   2.693 -0.1229 -0.2429 -0.2122
11908W        W30112   9.140  14.904   0.208  0.2912 -0.1894  0.5472
11909W        W30113  16.115  11.302  12.585  0.0123  0.1635  0.2279
11910W        W30114   1.671  12.163  15.986 -0.0962 -0.1149  0.0657
11911W        W30115   6.492   5.137  15.571  0.2733 -0.1253 -0.2216
11912W        W30116   2.386   6.043   0.399 -0.2622  0.1803  0.0240
11913W        W30117  11.917   5.867   4.610  0.0650 -0.1656  0.0707
11914W        W30118  11.655  11.487  12.361  0.0888 -0.1375 -0.1456
11915W        W30119  10.008   8.412   4.084  0.0071  0.1184  0.0841
11916W        W30120   9.430  14.759   2.662 -0.1753  0.1573 -0.1172
11917W        W30121   7.006   9.477   0.344  0.1555 -0.0340 -0.0038
11918W        W30122   4.813  15.283   4.813 -0.2601 -0.5489 -0.1056
11919W        W30123   3.739  16.004   6.179  0.0737 -0.3164 -0.0241
11920W        W30124  12.114  10.193   2.386 -0.2788 -0.2704  0.0261
11921W        W30125  15.418   7.781   3.452 -0.0000 -0.0146 -0.0302
11922W        W30126  13.133   3.794   0.116 -0.1529  0.2140  0.0696
11923W        W30127  16.687   1.494   5.372 -0.0036  0.3190  0.1059
11924W        W30128   3.745  14.124   0.286  0.0726 -0.1897 -0.4733
11925W        W30129   5.457  14.242   3.742 -0.2043 -0.0631 -0.0375
11926W        W30130   4.882  13.818   2.627 -0.0684  0.0461  0.1164
11927W        W30131   7.751   0.373   1.713  0.0287 -0.1327  0.1031
11928W        W30132  15.464  12.785  15.786 -0.4875  0.0335 -0.2553
11929W        W30133   3.051  15.301   1.525 -0.0148  0.2492 -0.0104
11930W        W30134  14.188  12.265   2.698  0.0739  0.1437 -0.1001
11931W        W30135   1.470   8.733   2.083  0.1286  0.1209  0.0327
11932W        W30136   5.855  11.600   1.178  0.1733  0.2707  0.0650
11933W        W30137  12.880   8.245  17.392 -0.2671 -0.0173  0.2612
11934W        W30138  17.007   1.850   5.234  0.1565 -0.0505 -0.3032
11935W        W30139   8.177  15.736   2.670  0.0929 -0.2200  0.1110
11936W        W30140   7.601   6.076  16.864  0.0460 -0.1325  0.0420
11937W        W30141   1.873   5.869   6.029  0.0817 -0.0247  0.0067
11938W        W30142  15.835  10.322  11.472 -0.2950 -0.0772  0.1801
11939W        W30143  16.365   1.888  16.693  0.1382  0.0472  0.1919
11940W        W30144  14.149  10.500  13.938 -0.2342  0.1706  0.0470
11941W        W30145  13.979   1.559   4.852 -0.2116 -0.1592  0.0120
11942W        W30146   4.944   6.063  14.124  0.0321 -0.0360 -0.0679
11943W        W30147  12.098   8.888  12.816 -0.2054  0.1079 -0.1774
11944W        W30148  15.813  12.929   4.350 -0.0695 -0.0869 -0.1231
11945W        W30149  11.454  16.425   5.727 -0.1175 -0.3439 -0.0458
11946W        W30150   7.633   1.968  14.376  0.3542  0.1805 -0.0099
11947W        W30151   5.638   9.645   1.004 -0.3785 -0.3630 -0.0026
11948W        W30152   8.879  15.957  13.434 -0.0879  0.1039 -0.2647
11949W        W30153   8.790   7.113   0.650  0.2350 -0.2306 -0.0113
11950W        W30154  16.792   7.258  11.182 -0.3189  0.0940  0.4000
11951W        W30155   3.698   3.502  14.807  0.0683 -0.0429 -0.1310
11952W        W30156  17.149   2.780  14.698  0.0632 -0.0117 -0.0518
11953W        W30157   1.186  12.119  15.672 -0.2050 -0.0097 -0.0058
11954W        W30158   1.827   9.876  14.382  0.1228 -0.1749  0.0617
11955W        W30159   2.498   0.009   1.487 -0.0360 -0.0310  0.1392
11956W        W30160  14.188   2.152   3.901 -0.2313  0.4165  0.1152
11957W        W30161  16.545  15.700  15.707 -0.2916  0.1257 -0.2744
11958W        W30162   9.188  13.832   0.036 -0.1662  0.0956 -0.2053
11959W        W30163  13.981   3.403   1.611  0.0586  0.0762 -0.2974
11960W        W30164  12.838  13.439   2.241  0.1200 -0.0568  0.0870
11961W        W30165   4.067   8.276  12.678 -0.0246  0.2696 -0.1929
11962W        W30166   2.734  13.292   1.556 -0.2770 -0.0077 -0.1553
11963W        W30167   4.947  14.626  15.223 -0.0421  0.1208 -0.0007
11964W        W30168   9.122   4.665  14.409  0.1469 -0.0857 -0.1570
11965W        W30169   7.046   3.812   5.617 -0.2404  0.0854 -0.0311
11966W        W30170   8.444   9.861   1.153  0.2816 -0.1734  0.0110
11967W        W30171   0.401  16.936   0.393 -0.0444 -0.1597 -0.0301
11968W        W30172  13.013   6.837   5.730  0.1384 -0.0249  0.0901
11969W        W30173   0.913  11.729   1.329 -0.3677 -0.0401  0.0732
11970W        W30174   9.665   7.476   4.308 -0.0840  0.0688 -0.0630
11971W        W30175  11.521   1.172   5.126 -0.1223  0.2441  0.0765
11972W        W30176   0.300   7.673   1.471 -0.0189  0.1499  0.1409
11973W        W30177   3.560  14.808  15.240  0.3500 -0.2927  0.1307
11974W        W30178  14.423   6.549   5.174 -0.2508  0.0463 -0.3787
11975W        W30179  16.240   4.350   5.896 -0.3109 -0.0885  0.1926
11976W        W30180  16.412  12.171   1.103  0.0811 -0.0876  0.1636
11977W        W30181  13.352   0.260  17.307  0.0197  0.0330  0.0511
11978W        W30182  13.771  12.522  15.409  0.2384 -0.0163  0.0273
11979W        W30183  10.862  12.536  13.917 -0.2210  0.1323 -0.2648
11980W        W30184  13.114   9.013   1.979 -0.0925 -0.2449 -0.0855
11981W        W30185  11.781  11.256   4.164  0.3386  0.0413  0.2588
11982W        W30186  12.164   0.381   4.888  0.2728  0.3522 -0.0187
11983W        W30187   1.919  14.242  13.804  0.0387 -0.0217 -0.0495
11984W        W30188  13.990   7.417  17.098  0.2951 -0.0603  0.2011
11985W        W30189  15.203   1.087  16.740  0.2285  0.0108  0.1357
11986W        W30190   2.044   7.733   0.697  0.0320  0.0970  0.2540
11987W        W30191   4.096  10.417   1.470  0.2246  0.1062 -0.1380
11988W        W30192   2.504   3.510   5.939  0.1319  0.1108 -0.0037
11989W        W30193  13.123  13.005   4.614  0.0946  0.0915  0.0560
11990W        W30194   3.627   3.427  16.306 -0.0230  0.0238  0.0717
11991W        W30195   1.272   7.073  17.421  0.0901 -0.0728 -0.2454
11992W        W30196   6.865  14.615   1.393  0.1281  0.1278  0.2889
11993W        W30197   8.401   6.054   3.632  0.0667 -0.0169  0.2915
11994W        W30198   0.255  14.743  12.635 -0.1543  0.0796  0.2685
11995W        W30199  12.398   8.626   2.261 -0.2710 -0.1529  0.0849
11996W        W30200  10.293   5.605  12.747 -0.2112 -0.0256  0.0068
11997W        W30201   0.800  13.039  12.647 -0.1150 -0.1007 -0.0184
11998W        W30202   8.536  15.327  12.218 -0.1919 -0.2364 -0.3066
11999W        W30203  12.009   0.542  16.218 -0.0764 -0.1992 -0.0444
12000W        W30204  14.722   0.600  14.822  0.1792  0.1597 -0.0824
12001W        W30205  12.078  16.218   2.316  0.1813 -0.1264 -0.1945
12002W        W30206  10.816  12.296   1.406 -0.0032 -0.1623  0.0867
12003W        W30207   1.862   1.339   3.305  0.0620 -0.3788  0.2472
12004W        W30208  16.123   9.059   3.373  0.1451 -0.0994 -0.0880
12005W        W30209   8.355  14.363  14.103  0.1719 -0.1611  0.0019
12006W        W30210  14.621   1.400  15.873 -0.0696 -0.0121 -0.0100
12007W        W30211   7.868   5.360   1.010 -0.0765 -0.1456 -0.0023
12008W        W30212   4.325  14.309  15.718  0.1151  0.0707  0.1301
12009W        W30213  12.116   4.476  14.901 -0.0880 -0.3982  0.0201
12010W        W30214   2.971   6.609   0.537  0.0464 -0.0650  0.0825
12011W        W30215  11.210   2.055   1.519  0.1425  0.2808  0.1050
12012W        W30216  11.812   3.897   0.872  0.0769 -0.1913  0.0004
12013W        W30217   4.974  14.185   3.093 -0.0231 -0.1526  0.2944
12014W        W30218  13.932   0.861   4.755  0.0497  0.1538  0.1897
12015W        W30219   0.847   6.788   4.694 -0.0999  0.2205 -0.0583
12016W        W30220   0.550  10.042  13.260 -0.0570  0.0910  0.1586
12017W        W30221   2.873  10.714  16.366 -0.0989 -0.0296  0.2037
12018W        W30222  15.445   1.774   0.858  0.2288 -0.0559 -0.0175
12019W        W30223  13.914  11.887  12.974 -0.2209 -0.0314  0.1798
12020W        W30224  15.908   3.765  12.500 -0.2808 -0.1040 -0.4629
12021W        W30225   0.117  13.882  17.008 -0.0554  0.1362  0.1188
12022W        W30226   2.116  10.214   1.142  0.1048 -0.2725  0.2253
12023W        W30227   1.710   1.392  16.820  0.2269  0.2574 -0.1332
12024W        W30228   4.367   1.542  16.236  0.0931  0.2677 -0.2890
12025W        W30229  11.862  12.258   4.122 -0.1417 -0.1216 -0.2955
12026W        W30230   0.462   2.806  16.750  0.2736  0.0224  0.1202
12027W        W30231   6.035   2.889  17.172 -0.1704  0.0538  0.0403
12028W        W30232   5.311   6.153  11.909 -0.0142 -0.3277  0.3078
12029W        W30233   8.076   3.470   1.970 -0.1943 -0.1244 -0.1207
12030W        W30234   8.314   3.974  16.389  0.1364 -0.0125  0.0230
12031W        W30235   2.986  14.805   6.092 -0.1167  0.0620  0.1582
12032W        W30236  15.525  17.180  16.811  0.0416  0.1101  0.2428
12033W        W30237  16.071   1.200   0.654 -0.0134  0.0328 -0.1364
12034W        W30238  14.855   2.054  13.967 -0.1377 -0.1341 -0.0520
12035W        W30239   2.220   3.141  13.947 -0.0062 -0.0480 -0.2433
12036W        W30240   5.630  14.045  15.509  0.2309 -0.0996  0.1837
12037W        W30241  16.384   8.511   2.580 -0.0024 -0.2780  0.3423
12038W        W30242  16.671   0.799   4.881 -0.0804 -0.1040 -0.1192
12039W        W30243   0.602   5.594  16.108 -0.0035  0.0905 -0.1044
12040W        W30244  16.128   2.056   2.313 -0.0031 -0.2294  0.0525
12041W        W30245   9.197   8.323  12.609  0.2411 -0.2600  0.0185
12042W        W30246   4.873   5.728   2.857  0.2163  0.0716  0.0724
12043W        W30247   4.021   6.400  17.234 -0.0874  0.1399 -0.2413
12044W        W30248   1.476   6.413  12.353  0.1298 -0.0531  0.1705
12045W        W30249   5.737  14.604   1.843  0.3277  0.0443  0.2441
12046W        W30250   1.602   4.171  16.248 -0.4375  0.1209  0.3096
12047W        W30251  11.760   7.411   2.534 -0.3520  0.0829  0.0664
12048W        W30252   8.608   2.378   0.087  0.0971 -0.2418 -0.0815
12049W        W30253   3.654  15.608   0.685 -0.2840 -0.2952  0.2880
12050W        W30254  13.641   6.225  12.378  0.1750 -0.0549  0.0848
12051W        W30255  14.830  13.503  12.041 -0.1057 -0.0241 -0.0857
12052W        W30256  10.204  17.178   4.034  0.0241 -0.2157  0.1253
12053W        W30257  11.819   8.724   0.578  0.1831  0.0631  0.0258
12054W        W30258  14.236   3.902   0.085  0.0149 -0.2255 -0.0078
12055W        W30259  13.021  15.341   2.805 -0.1187  0.1865  0.1788
12056W        W30260   9.995   7.501   2.874  0.0022  0.1830  0.0816
12057W        W30261   9.144   6.401   2.908 -0.0290  0.0997 -0.0732
12058W        W30262   4.606  11.241  14.106  0.2019 -0.0423  0.1702
12059W        W30263  14.414  17.209   4.665  0.4477  0.1407 -0.2665
12060W        W30264  10.158   4.916  16.369 -0.1731 -0.0839  0.0785
12061W        W30265   3.548   2.514   5.189  0.2170 -0.1306 -0.0386
12062W        W30266  15.577   5.747  16.097  0.0029  0.0823 -0.1078
12063W        W30267  11.239   9.069  14.408 -0.0671  0.0331 -0.1252
12064W        W30268   1.409   5.694  17.173 -0.1619 -0.0043 -0.1299
12065W        W30269   1.023   8.109  15.825 -0.1349  0.0086 -0.0591
12066W        W30270  12.024   1.971   4.483  0.0703 -0.0640  0.2164
12067W        W30271  13.937   1.050  12.486  0.0648 -0.2260 -0.1027
12068W        W30272   3.438   3.331   2.506 -0.0061  0.1367 -0.1557
12069W        W30273   5.471   4.054   0.154 -0.1840  0.2017  0.1463
12070W        W30274   3.480  10.084   1.245  0.1612 -0.0421 -0.2330
12071W        W30275   0.644  15.818   1.955 -0.2216  0.1254  0.1517
12072W        W30276  10.866   2.900   2.435 -0.2622  0.1954 -0.2004
12073W        W30277   6.274   1.486  12.849  0.2612  0.0703 -0.4099
12074W        W30278  14.706   8.462  16.958 -0.0563  0.2498  0.1664
12075W        W30279  16.752   7.539   0.272  0.0230 -0.1263 -0.1802
12076W        W30280  12.652  13.033  13.130 -0.3086 -0.3149  0.0615
12077W        W30281  16.584   5.736  16.249 -0.0250  0.3753  0.1620
12078W        W30282   4.879   6.760  15.284 -0.1499  0.1132  0.1157
12079W        W30283  15.428   2.865   4.068  0.1489 -0.0220 -0.3075
12080W        W30284   6.081   3.310  14.480  0.2079  0.1398 -0.0154
12081W        W30285   3.098  13.737   2.706  0.4086 -0.0775 -0.0210
12082W        W30286  13.915   3.679  16.219 -0.1302 -0.2207  0.0821
12083W        W30287   4.961   5.744   3.703 -0.0722 -0.0172 -0.0847
12084W        W30288   3.438   7.106   2.570  0.1364  0.2787  0.1540
12085W        W30289   3.641  17.191  17.339 -0.0060  0.0392  0.1020
12086W        W30290   0.181   9.912  16.407  0.2665  0.3524  0.0779
12087W        W30291   2.151  13.338   2.784 -0.1677 -0.3341 -0.4495
12088W        W30292   6.703  17.284   3.789 -0.0238 -0.0709  0.1522
12089W        W30293   8.439   2.369  15.556  0.3364 -0.2126 -0.3432
12090W        W30294  10.415   3.937   0.488 -0.0698  0.2268  0.3133
12091W        W30295  15.027   7.873   1.734 -0.0400 -0.0872  0.0933
12092W        W30296   4.010  16.978   3.717  0.2009 -0.1327  0.3037
12093W        W30297  17.070   2.283  14.659 -0.0477  0.1965  0.0743
12094W        W30298   5.658  11.808   3.503  0.0878  0.0896  0.1384
12095W        W30299   0.191   8.374   4.603  0.1690  0.0250 -0.0256
12096W        W30300   6.908   2.286   0.462 -0.1523  0.1003 -0.2307
12097W        W30301   8.398   1.319  13.832  0.0710  0.0558  0.0006
12098W        W30302   9.471   3.781  14.974  0.1319 -0.1063 -0.3125
12099W        W30303  11.340  16.026  15.690  0.2132  0.0131 -0.1215
12100W        W30304  11.612  15.068  12.355  0.0794  0.0968  0.2395
12101W        W30305  11.258  13.643   3.274 -0.1462 -0.2603 -0.1782
12102W        W30306   6.525  11.328  13.878 -0.1684 -0.2740 -0.2552
12103W        W30307   6.771  15.745   4.478  0.2410  0.0327 -0.3937
12104W        W30308   3.917  12.794   2.130  0.0737  0.1502 -0.1816
12105W        W30309  10.005  11.441   2.715  0.2166 -0.1255 -0.2850
12106W        W30310   1.443   5.178   2.102  0.0846 -0.0348 -0.1276
12107W        W30311  10.109  13.906   5.599  0.2390  0.2604 -0.2444
12108W        W30312   3.429   4.295  12.584  0.0033 -0.1544 -0.2690
12109W        W30313   5.296   4.745  14.922  0.0207  0.0350 -0.4105
12110W        W30314   3.082  12.388  16.435  0.0033  0.1671 -0.2042
12111W        W30315   5.927  11.871   2.454  0.2126 -0.0582 -0.0469
12112W        W30316   6.445   7.001   5.145 -0.0308 -0.0377  0.1639
12113W        W30317   9.204   6.825  13.933 -0.1366 -0.0790  0.1888
12114W        W30318  16.131   7.654  12.639 -0.0850  0.0381  0.1738
12115W        W30319  12.811   9.608   5.400  0.0392 -0.0230 -0.0358
12116W        W30320  17.300   1.005   1.684 -0.1650 -0.1839 -0.0299
12117W        W30321  16.960   8.164  14.481 -0.1112  0.1054  0.0142
12118W        W30322  13.103   1.400   4.544  0.0143 -0.0513 -0.2289
12119W        W30323  15.547   5.434  14.690 -0.0489 -0.3511  0.0608
12120W        W30324  14.552  15.863   1.010  0.0246 -0.0784 -0.0538
12121W        W30325  11.476   9.965  14.510  0.2104 -0.0439 -0.2648
12122W        W30326   4.321   2.192   2.151 -0.0213 -0.1543  0.1469
12123W        W30327   9.535   3.484  11.846 -0.1496 -0.1228 -0.0248
12124W        W30328   9.557   5.963   2.234  0.1873  0.1650  0.1466
12125W        W30329   8.605   0.494   0.322  0.2189 -0.1309 -0.1301
12126W        W30330   3.502   3.741   0.718  0.0080  0.1733  0.1771
12127W        W30331   2.370  14.659   0.300  0.1539  0.1590 -0.1762
12128W        W30332   5.340  11.089  15.251  0.1351  0.1371 -0.1168
12129W        W30333  16.965  13.725   1.467 -0.3839  0.0919 -0.2698
12130W        W30334  13.533  10.665  14.058  0.1604 -0.1150 -0.0007
12131W        W30335   7.533  13.877  16.041 -0.2828  0.1284  0.1003
12132W        W30336   2.917   5.742  16.218 -0.2615  0.1498 -0.0956
12133W        W30337   5.043   5.043   0.175 -0.0290  0.3303  0.0266
12134W        W30338   2.049   2.801   2.632  0.2111 -0.1339 -0.2475
12135W        W30339   5.917  14.766  15.286  0.3105 -0.0914  0.1336
12136W        W30340  17.081   8.282  17.178 -0.1445 -0.2236 -0.0765
12137W        W30341  14.619   2.260  17.047 -0.1090  0.1208  0.2954
12138W        W30342   3.044   3.677   2.694  0.0125  0.0232  0.0781
12139W        W30343   9.864  14.546  14.669  0.1311  0.0605  0.0168
12140W        W30344  15.538  15.043   0.974  0.1281 -0.1421 -0.1379
12141W        W30345   6.332   5.516   1.263  0.0142 -0.4799 -0.0596
12142W        W30346  17.220  11.701   1.969  0.0844 -0.1891 -0.0474
12143W        W30347  10.306   5.825  16.643 -0.2170  0.0475 -0.3545
12144W        W30348   9.718   9.746   3.740 -0.1326  0.2485  0.0175
12145W        W30349  13.974   6.859   5.557  0.1529  0.1574 -0.1349
12146W        W30350  12.108   3.559   0.611  0.0028  0.1907  0.0956
12147W        W30351   8.689   2.654  13.791  0.3052  0.5348  0.0827
12148W        W30352   1.601  11.068  17.286  0.0443 -0.3081 -0.3631
12149W        W30353   6.125  15.061   0.833 -0.3296 -0.1437 -0.1138
12150W        W30354  16.661   2.368  12.486 -0.0479  0.0020 -0.3174
12151W        W30355  10.991   7.042  14.074  0.0486  0.1550  0.0805
12152W        W30356  13.889  10.330  13.136 -0.3864 -0.0053 -0.0609
12153W        W30357  12.036  11.703   2.790  0.0448  0.3053  0.0594
12154W        W30358   0.211   5.818   5.948 -0.0279  0.3512  0.1891
12155W        W30359  14.972   2.563  13.954 -0.1312  0.2576 -0.0249
12156W        W30360  14.302   4.219   3.993  0.0925  0.3277 -0.0855
12157W        W30361  15.030  14.778  17.458 -0.0183 -0.1630 -0.2654
12158W        W30362   5.057  13.156  12.607 -0.1032 -0.0607  0.0993
12159W        W30363  16.516  13.243   3.563 -0.0085  0.0500  0.0845
12160W        W30364  11.171  11.572  16.756  0.1589  0.0054  0.2265
12161W        W30365  10.870   1.143  14.348 -0.0514 -0.1124 -0.2001
12162W        W30366   0.333  11.065  12.750  0.3413 -0.1209 -0.1833
12163W        W30367   1.207   3.024  13.006  0.0447 -0.0648 -0.2524
12164W        W30368   0.806   0.063  16.337 -0.2075  0.1745 -0.1526
12165W        W30369  16.070  12.624   2.124  0.0247 -0.3826 -0.0478
12166W        W30370   7.923   9.260  15.366  0.2471  0.2580 -0.0937
12167W        W30371  16.760   8.709   1.895  0.3872 -0.1691 -0.1560
12168W        W30372   5.288  10.856  14.790 -0.0782 -0.1650  0.3763
12169W        W30373   1.589  11.106   1.181  0.2940 -0.0588 -0.0858
12170W        W30374   7.512  13.535   1.537  0.1351 -0.1980 -0.3074
12171W        W30375  14.989   3.775   1.443  0.0795 -0.0336  0.1441
12172W        W30376  11.795  15.062  15.646 -0.1782  0.1022  0.1695
12173W        W30377   7.069   1.405  17.044  0.1293  0.1069  0.1210
12174W        W30378   1.929   5.622   4.687  0.2415  0.0440  0.1903
12175W        W30379   5.885  11.198   4.609 -0.1027 -0.0204 -0.0597
12176W        W30380   7.193  13.412   3.562  0.1931  0.0361 -0.1668
12177W        W30381   0.527  11.188   3.385 -0.0307 -0.1194 -0.5273
12178W        W30382   7.144  12.072  16.871  0.2013  0.1656 -0.0676
12179W        W30383  10.117  10.299   1.338 -0.1256 -0.0506  0.2378
12180W        W30384  14.371   6.096  16.685 -0.0629 -0.0200  0.0065
12181W        W30385   8.207   5.792  16.251 -0.1313  0.2351  0.2243
12182W        W30386   7.236   5.597  16.160  0.1296 -0.0041  0.0465
12183W        W30387   2.703   1.495   6.111  0.1380  0.3785 -0.0269
12184W        W30388   3.308   0.514  12.193  0.0243 -0.0272  0.2151
12185W        W30389   3.546   3.289   5.801 -0.2013 -0.1399  0.0051
12186W        W30390  15.909   9.444   5.058 -0.1964 -0.2609  0.2740
12187W        W30391  12.358   4.617   2.662 -0.0205 -0.2106 -0.3476
12188W        W30392  15.362  10.137   2.512 -0.0431 -0.2008  0.1923
12189W        W30393   3.817  16.390   2.290 -0.0680  0.1027  0.1273
12190W        W30394  15.694   5.478   2.833  0.1333  0.0547 -0.1629
12191W        W30395  10.488   7.369   2.663  0.0097 -0.2569 -0.0401
12192W        W30396   6.089   7.849   2.651 -0.1810  0.1816  0.1574
12193W        W30397   5.103  15.438  17.293  0.2902  0.2513  0.1705
12194W        W30398   8.227  12.047   0.280 -0.4539  0.0149  0.0589
12195W        W30399  15.353  14.996  15.841 -0.0981  0.3551 -0.0142
12196W        W30400   9.784   9.757  15.235  0.0139 -0.1733 -0.0385
12197W        W30401  10.742   3.063  16.802  0.0205 -0.1114  0.1152
12198W        W30402  13.818   0.389  13.355 -0.0023  0.0335 -0.3653
12199W        W30403   8.517   7.150  13.312  0.0551 -0.0171 -0.0685
12200W        W30404   1.644  17.165  16.566  0.3143  0.1565 -0.0326
12201W        W30405   4.852   0.749   2.213 -0.2576 -0.0051  0.2037
12202W        W30406   8.170  13.441   0.268 -0.0646  0.1377 -0.0941
12203W        W30407  10.524  15.449  14.944 -0.0831  0.3179  0.0794
12204W        W30408  15.287   4.331   1.306  0.0851  0.0487  0.1600
12205W        W30409   5.713  14.817  13.431  0.3223 -0.1880 -0.1079
12206W        W30410   4.755   3.871  12.585 -0.0689 -0.1089 -0.1562
12207W        W30411  14.263  12.136   5.942  0.2383  0.0508 -0.0019
12208W        W30412   3.873  13.139   1.046  0.0687  0.0877  0.0482
12209W        W30413   5.872  15.851   1.546 -0.4210  0.0603  0.4887
12210W        W30414   9.678  14.104  13.001  0.0191  0.0184  0.1800
12211W        W30415  16.385   8.972   3.812  0.0394 -0.1744 -0.1662
12212W        W30416   5.256   7.809  15.330  0.2865 -0.0590  0.1552
12213W        W30417  15.017   5.256  13.608 -0.2735 -0.0693  0.1823
12214W        W30418   0.066   8.673  13.285  0.0010  0.1814 -0.1478
12215W        W30419  14.661  12.348   1.224 -0.2108  0.2956  0.3298
12216W        W30420   8.793  11.910   2.810 -0.2130  0.2740 -0.0490
12217W        W30421  13.508   9.566   1.137 -0.0457 -0.3141 -0.1851
12218W        W30422  11.677   7.757   1.646  0.1762 -0.3796 -0.1664
12219W        W30423   9.603   4.750   4.841  0.1991 -0.2074  0.2844
12220W        W30424   6.201   1.161  15.381  0.2026 -0.0454  0.0527
12221W        W30425  12.194  12.506  17.077 -0.0081  0.1129 -0.0921
12222W        W30426   9.890   9.777   0.879 -0.0106  0.0240 -0.3284
12223W        W30427  14.735  12.627  15.288 -0.1345 -0.0935 -0.1717
12224W        W30428   4.565   4.860   2.982 -0.2519 -0.0098 -0.0111
12225W        W30429  11.602  14.116   6.500  0.0200  0.0050 -0.0915
12226W        W30430  10.881  14.992  13.262  0.2729 -0.2375  0.0613
12227W        W30431   7.682   6.465  15.910 -0.0491 -0.1022 -0.1035
12228W        W30432   2.811  17.254   2.441 -0.0877  0.0333  0.3746
12229W        W30433  11.877  12.501   2.352 -0.2492  0.1306  0.1017
12230W        W30434  15.192  13.072  17.287  0.1833  0.0971  0.0092
12231W        W30435   6.871   8.345  16.829 -0.2705 -0.5799 -0.0398
12232W        W30436   7.063   5.865  15.179 -0.2219  0.0045 -0.1249
12233W        W30437   8.328   6.772   2.880  0.0908  0.0581  0.0976
12234W        W30438  14.240  17.108  15.104 -0.3059  0.0770  0.1360
12235W        W30439  15.957  11.042   3.049 -0.1294 -0.0099 -0.0923
12236W        W30440   5.769   1.707  16.906  0.0439  0.1739 -0.3162
12237W        W30441   5.297   3.976  13.765  0.0099  0.1438  0.0791
12238W        W30442   3.219   7.202   3.553  0.1135 -0.1160  0.1833
12239W        W30443   6.514   6.999  14.316 -0.1849 -0.1759 -0.2902
12240W        W30444  15.651   1.204  14.022  0.0862 -0.1090  0.0616
12241W        W30445  13.204   4.559   4.704 -0.1596 -0.0037  0.1852
12242W        W30446   2.176   7.165   5.758 -0.0577  0.2381  0.2422
12243W        W30447   5.978  16.173   0.188 -0.0025 -0.0100  0.0513
12244W        W30448  16.777  10.383  16.801  0.0153 -0.0952 -0.0481
12245W        W30449   2.128   7.200   3.308 -0.2358 -0.2682  0.0260
12246W        W30450   8.715  10.811  14.765 -0.0200 -0.3962  0.1844
12247W        W30451  12.489   9.725   5.993 -0.0554 -0.2594 -0.1190
12248W        W30452   9.955  15.922  15.676  0.0168 -0.0807 -0.2388
12249W        W30453   1.748   8.056   5.344 -0.2107 -0.1979  0.1983
12250W        W30454  11.455   5.872  13.943  0.3214 -0.1504  0.0601
12251W        W30455  13.706   6.854  13.145 -0.2380  0.0047 -0.0064
12252W        W30456  12.407   7.820   5.081  0.1009 -0.0657  0.2720
12253W        W30457   5.288   1.283   0.106  0.1541 -0.2043  0.0469
12254W        W30458   2.961   1.531   0.940  0.0041 -0.0321 -0.1142
12255W        W30459   0.537   2.467  17.165  0.0559 -0.0309 -0.2831
12256W        W30460   7.634  12.328   2.346 -0.0201 -0.0080  0.2135
12257W        W30461  14.190  11.246  13.557 -0.2495  0.1058  0.2745
12258W        W30462  14.214   4.249  12.492 -0.2290 -0.0174 -0.0347
12259W        W30463   8.224   1.489   3.364 -0.0523  0.0595 -0.0142
12260W        W30464   3.908  16.662  15.471  0.0435 -0.0897  0.2041
12261W        W30465   3.889  13.510   5.699  0.2221  0.1152 -0.1901
12262W        W30466   5.247  15.403  14.879  0.0886  0.1132  0.0316
12263W        W30467   8.016  13.714   3.368  0.1399 -0.3063  0.0049
12264W        W30468  13.078  13.275   1.226 -0.0144 -0.0241 -0.0972
12265W        W30469  15.320   8.559   1.109 -0.1563 -0.2269  0.1464
12266W        W30470  12.965   2.114  12.982 -0.1269 -0.1231  0.1661
12267W        W30471   5.155   1.953   2.011 -0.2791 -0.1155  0.1442
12268W        W30472   6.482   7.740   3.057  0.1484 -0.0219  0.0266
12269W        W30473  12.391  11.117   2.197  0.2289  0.0234  0.2599
12270W        W30474   3.621   3.069  13.468 -0.1277 -0.0731 -0.3146
12271W        W30475  10.770  10.649   4.877 -0.0575  0.4529 -0.2086
12272W        W30476   9.149  15.167   2.842 -0.1959 -0.0652  0.0893
12273W        W30477   1.516   9.389  16.372  0.0420 -0.0963 -0.0018
12274W        W30478  13.418  14.137  15.392  0.0315 -0.2765  0.2371
12275W        W30479   6.169  11.448   2.710 -0.0281 -0.0452 -0.1182
12276W        W30480  15.070   6.504  17.223  0.0490  0.2332 -0.1365
12277W        W30481  17.226  15.770  15.719  0.1107 -0.1309 -0.3740
12278W        W30482  13.626  13.049  12.162 -0.2331  0.0654 -0.1530
12279W        W30483   9.700   3.498  16.503  0.1990 -0.2033  0.1157
12280W        W30484   9.341   3.098  16.351 -0.1860  0.2177 -0.2201
12281W        W30485   6.723   1.798  13.840  0.1262  0.0527  0.0208
12282W        W30486  12.819  14.808   5.136  0.1667 -0.0657 -0.1255
12283W        W30487  10.034  11.879   4.058 -0.1714  0.0013  0.0220
12284W        W30488   7.291   8.334  15.916  0.2576 -0.1948  0.0733
12285W        W30489   3.510   8.013   0.929 -0.1762  0.1236 -0.1236
12286W        W30490  12.281  15.208   0.639 -0.0333  0.0724  0.3415
12287W        W30491  10.501   9.941  16.004 -0.0445 -0.2060  0.0322
12288W        W30492  15.439  14.840   1.453 -0.0234 -0.4988  0.1362
12289W        W30493   2.826  13.863  14.134 -0.1182 -0.1380 -0.3670
12290W        W30494   5.028  15.089  15.489 -0.0955 -0.0736 -0.0827
12291W        W30495   9.480   5.173   1.160  0.1473 -0.1878  0.1997
12292W        W30496   1.248  10.031  14.934 -0.0544 -0.1568 -0.1208
12293W        W30497  17.065  14.729  12.395  0.2869 -0.4768  0.0768
12294W        W30498   0.349  10.041   1.217  0.1261  0.0603 -0.0537
12295W        W30499  16.586   8.898   3.348  0.0009  0.1229 -0.1342
12296W        W30500   9.868  11.358  15.421  0.3812 -0.3758 -0.1834
12297W        W30501   7.385  12.221  15.873 -0.0446 -0.1263  0.3524
12298W        W30502  11.673  15.362   5.061  0.0780 -0.1435  0.0422
12299W        W30503  11.748   7.511  13.611 -0.4053  0.2795  0.1682
12300W        W30504   7.196   7.565  17.349  0.2042 -0.1082 -0.1251
12301W        W30505  11.721  10.363  15.475  0.1205  0.1507 -0.1708
12302W        W30506   7.582   2.601   3.576 -0.0240 -0.2019 -0.1406
12303W        W30507   1.974  16.100   0.967 -0.0099  0.0387 -0.0482
12304W        W30508  14.716   8.273   1.561  0.0916 -0.2982 -0.1756
12305W        W30509  13.063  11.640  14.211 -0.0997  0.2088  0.0211
12306W        W30510  12.114  10.622  13.507 -0.2178 -0.2121 -0.1779
12307W        W30511  11.793  15.261  13.587  0.2225 -0.0090  0.0635
12308W        W30512  15.408   6.953   1.378  0.2474 -0.3177  0.2623
12309W        W30513  12.258  10.356   3.327  0.0780 -0.0056 -0.0505
12310W        W30514  12.201  12.196  12.927  0.0598 -0.0852  0.0490
12311W        W30515  16.843   2.582  16.110 -0.0229 -0.0450 -0.0478
12312W        W30516  14.128   8.776   4.662 -0.1256 -0.0754  0.0732
12313W        W30517   5.686  13.957  13.892 -0.2023 -0.0788 -0.1052
12314W        W30518  14.663   6.940   2.571  0.1501 -0.2451  0.1436
12315W        W30519   1.780   3.343   4.033  0.1551 -0.3310 -0.1338
12316W        W30520  14.085  11.748   3.333  0.0248 -0.0609 -0.0833
12317W        W30521   8.516  12.542   2.097  0.0585 -0.0187 -0.0117
12318W        W30522   0.221   4.412  13.773 -0.1902  0.0952 -0.0562
12319W        W30523   1.810  17.241  14.124  0.0389 -0.1307  0.0374
12320W        W30524   2.847  12.259  13.050 -0.0518  0.1725  0.0748
12321W        W30525  12.324  10.429   4.262 -0.0980 -0.1713 -0.0846
12322W        W30526  10.520   8.193   2.759  0.1776 -0.0660  0.0229
12323W        W30527   5.055  15.169   5.266 -0.1391 -0.2073 -0.0587
12324W        W30528  16.679  14.611  14.781 -0.0359  0.3148 -0.1183
12325W        W30529  15.110   6.229   1.964 -0.2048  0.1001 -0.2078
12326W        W30530  16.993  13.550   5.173 -0.1308 -0.3257  0.1849
12327W        W30531   1.642  12.216   3.211 -0.0596 -0.1444 -0.1950
12328W        W30532   2.695   6.169   3.912  0.1096 -0.1801  0.3977
12329W        W30533   7.937   1.114   2.491  0.1328 -0.1841  0.2260
12330W        W30534   8.178   8.165  13.805  0.2892 -0.2163  0.0140
12331W        W30535   0.412   1.244   3.203 -0.0322  0.2138  0.3484
12332W        W30536  17.225  10.669   2.824  0.1852 -0.2253  0.2875
12333W        W30537  11.751  16.324   5.004 -0.2894  0.2751 -0.0613
12334W        W30538  10.038  17.234   5.232  0.1847  0.0351 -0.0457
12335W        W30539   4.086  15.079  14.435 -0.1934  0.2076  0.1826
12336W        W30540   0.618  10.559   0.785  0.2500  0.2643 -0.0242
12337W        W30541   4.862   7.137   0.399 -0.1283 -0.1217  0.0126
12338W        W30542   9.399  11.555   3.399  0.1451 -0.0383  0.2481
12339W        W30543   2.630   5.501  14.258 -0.0002  0.0439 -0.1350
12340W        W30544   9.791  16.438   2.736 -0.0910  0.1611 -0.2972
12341W        W30545  10.560   3.012  12.382 -0.1239  0.1021 -0.1791
12342W        W30546   4.333   5.580  17.039  0.1258  0.1901 -0.0304
12343W        W30547   0.400  15.172   0.676  0.0496  0.0258  0.2229
12344W        W30548   3.254  15.568   1.198  0.1543  0.1799  0.2314
12345W        W30549  15.546   2.711   2.312 -0.0450 -0.3699 -0.2667
12346W        W30550   6.751   6.304   1.930  0.0344 -0.2116 -0.0298
12347W        W30551  12.603   2.599   1.268 -0.0446  0.0396 -0.2849
12348W        W30552  12.805  17.056   2.317 -0.1650 -0.0400  0.2625
12349W        W30553   3.578   5.558  14.450  0.3832  0.1235  0.1392
12350W        W30554  12.671   8.076  12.544 -0.2484  0.0278  0.0782
12351W        W30555   7.663   8.935   0.245 -0.0643  0.1438  0.1785
12352W        W30556   8.224  12.082   3.589 -0.0084  0.0562 -0.0635
12353W        W30557   9.580   0.250   4.952 -0.2335  0.0565  0.0537
12354W        W30558   4.287   0.100  15.147  0.2819 -0.0933  0.2211
12355W        W30559   1.102   0.570   5.403  0.6017  0.1057 -0.0414
12356W        W30560   3.979  11.259   2.136 -0.1463 -0.2692  0.0335
12357W        W30561   9.434   0.788  16.070  0.0054  0.2130  0.3162
12358W        W30562  11.322   5.536  12.971  0.1535  0.1019 -0.0515
12359W        W30563   1.181   9.792   2.554  0.0512 -0.0391  0.0610
12360W        W30564   9.048  10.629  17.119  0.0179 -0.3845 -0.0668
12361W        W30565   1.195   4.487   4.845  0.0262  0.0793 -0.0629
12362W        W30566  13.851   4.545   3.859  0.3044 -0.1661  0.2120
12363W        W30567   3.174  10.078   5.145  0.1823 -0.2148 -0.0131
12364W        W30568   3.947  11.991  15.831 -0.2338  0.1487 -0.1188
12365W        W30569   0.935  11.376   5.769 -0.1078  0.1299 -0.0637
12366W        W30570   1.714   2.971   1.711  0.0634 -0.3538 -0.0619
12367W        W30571  10.654   1.513  11.182  0.0218  0.0974 -0.0894
12368W        W30572   9.318   2.525  16.767  0.1308 -0.2117  0.2948
12369W        W30573  13.873   5.651  13.793 -0.2905 -0.1468  0.1058
12370W        W30574   1.634   7.368  11.227  0.0778 -0.1525 -0.1496
12371W        W30575  14.667  17.023   0.332 -0.2135 -0.3024 -0.1790
12372W        W30576   1.036   5.350  12.243 -0.1484 -0.1664 -0.2245
12373W        W30577   6.139   7.941  16.952  0.0194  0.0820  0.0507
12374W        W30578   8.417   5.162   1.963 -0.5343 -0.1717  0.1940
12375W        W30579  11.583   5.452   4.383 -0.1914 -0.1951 -0.1377
12376W        W30580   0.081   1.013   2.869 -0.1603  0.2196 -0.1638
12377W        W30581  11.141   4.594   3.395 -0.0965  0.1839  0.0549
12378W        W30582  12.166  11.981   1.475  0.0752 -0.0809 -0.3853
12379W        W30583   5.803   5.569   2.679 -0.1646  0.0686  0.2342
12380W        W30584  10.081   9.230  17.293 -0.0232  0.0776  0.0755
12381W        W30585   0.154   9.069   1.798 -0.1467  0.0376  0.1175
12382W        W30586  10.564  15.512   5.812  0.1516 -0.0387 -0.0919
12383W        W30587  11.828   4.084   4.446 -0.2965 -0.3152  0.0976
12384W        W30588   6.263   1.620   3.638  0.1671  0.2661 -0.1421
12385W        W30589   4.008  10.106   4.688 -0.1007  0.1125  0.0613
12386W        W30590   5.981   4.889  13.156  0.0909  0.1083 -0.1828
12387W        W30591   8.633   3.602  16.565 -0.3598  0.3253  0.0042
12388W        W30592   5.290   3.533   1.972  0.0278  0.1488  0.1670
12389W        W30593   8.199   9.082  11.674 -0.0664  0.0445  0.4419
12390W        W30594   3.282  10.240   4.152 -0.0573  0.0321 -0.5615
12391W        W30595  11.595   2.266   4.862 -0.0004 -0.0428  0.0206
12392W        W30596  10.262   5.656  15.510  0.1288  0.0646 -0.2485
12393W        W30597   9.940   6.257   1.479  0.0478 -0.1896  0.0575
12394W        W30598  12.900   8.680   4.037  0.1573  0.2481 -0.0099
12395W        W30599  11.923  11.500   3.324  0.1385 -0.1337 -0.0327
12396W        W30600  10.656  11.290  13.166 -0.0297  0.0643  0.2861
12397W        W30601   4.513   1.062   3.024 -0.1956 -0.0990  0.4077
12398W        W30602  12.669  16.739  14.891 -0.2075  0.2142 -0.0049
12399W        W30603   3.733  15.930   1.087  0.0858  0.0175 -0.2816
12400W        W30604   5.901  10.273  15.405 -0.4008  0.1697  0.0764
12401W        W30605  14.628   3.005   3.444 -0.0317  0.0322 -0.1753
12402W        W30606  11.800   8.547  13.941 -0.0290  0.0441  0.1212
12403W        W30607  14.260  14.389   2.146 -0.0020 -0.0095  0.0712
12404W        W30608   1.420  12.550  13.737 -0.2460  0.1285  0.1421
12405W        W30609   2.661  13.835   4.127  0.3091  0.4129 -0.1401
12406W        W30610   6.029  10.560  14.453  0.0937  0.1042 -0.0107
12407W        W30611   8.955   1.960  12.121  0.2067 -0.1235  0.2593
12408W        W30612  12.219   6.504   2.835 -0.2398 -0.2323  0.2054
12409W        W30613   1.064  10.809  16.572  0.2704 -0.1096 -0.1588
12410W        W30614   0.251   9.638  15.058 -0.1504  0.0379 -0.0613
12411W        W30615  15.008   8.975   4.197 -0.0506  0.3377 -0.0404
12412W        W30616   8.921  12.537   2.413 -0.0615  0.1465 -0.1640
12413W        W30617  10.153   2.837  15.417  0.2153 -0.0506  0.0832
12414W        W30618  13.800  10.551   2.734  0.2171 -0.1852  0.3764
12415W        W30619   9.963   9.477   0.294  0.1701  0.1938  0.2189
12416W        W30620   8.185  13.268   2.681 -0.0342 -0.0851 -0.3741
12417W        W30621   8.270   7.636   3.182  0.0507 -0.0055 -0.1853
12418W        W30622  10.906   6.271   3.004 -0.0783  0.0575 -0.4408
12419W        W30623   1.276   8.544   4.153 -0.1008 -0.0949  0.2301
12420W        W30624  15.341   1.896  14.091 -0.0311  0.2449 -0.2239
12421W        W30625  11.522   1.582   6.095  0.2370 -0.1905 -0.2013
12422W        W30626   1.140  13.090   3.432 -0.0844 -0.2470  0.1117
12423W        W30627  12.469  15.926  16.147 -0.2544  0.0745  0.0380
12424W        W30628   5.733  12.340   1.928  0.3640  0.2061  0.0959
12425W        W30629  12.564   5.847   0.234  0.0688 -0.0225  0.1643
12426W        W30630   1.372  10.843   0.698  0.0128  0.0839  0.1633
12427W        W30631  12.421  13.732  16.709  0.2110 -0.0473 -0.3293
12428W        W30632  16.518  11.062  15.444 -0.0511  0.2672  0.1437
12429W        W30633  13.990   1.060   2.340 -0.0958  0.0065 -0.0404
12430W        W30634  10.366  14.619  14.522  0.1878  0.0478  0.3756
12431W        W30635   4.127  14.986   0.321  0.2336 -0.1072  0.4914
12432W        W30636  13.135   5.671   3.378  0.2574  0.0094 -0.2148
12433W        W30637   2.432   5.629   4.774  0.0784  0.0997 -0.0649
12434W        W30638  16.302  12.436   3.927 -0.1413  0.3240 -0.1895
12435W        W30639   3.248  11.597   5.973  0.0826  0.2032  0.1040
12436W        W30640   5.312   5.090  13.514  0.1132 -0.0035  0.2740
12437W        W30641  13.738   8.153  13.415  0.1933  0.0173 -0.1185
12438W        W30642  10.406   3.290  17.111  0.0959 -0.1948  0.2168
12439W        W30643  16.200   8.248   1.280 -0.0614 -0.0660  0.0725
12440W        W30644  12.653  11.747   0.224  0.2099 -0.0049  0.0399
12441W        W30645   0.132   3.723  12.943  0.0439  0.1323  0.1777
12442W        W30646  15.628   4.279   4.189  0.2236 -0.0335  0.0317
12443W        W30647   6.645  16.528   0.918  0.0505  0.0658 -0.1098
12444W        W30648   0.053  11.943   1.059  0.1504 -0.0156 -0.0146
12445W        W30649   8.535  16.579   1.719 -0.1383  0.0833  0.2354
12446W        W30650  15.447   5.537   3.585  0.2581 -0.1737  0.0684
12447W        W30651  14.765   6.466   4.804 -0.3855  0.1266 -0.2148
12448W        W30652   8.274  11.295   1.772 -0.1437  0.1293  0.0624
12449W        W30653   5.211   3.551   3.263  0.0762 -0.2052 -0.0752
12450W        W30654   5.361   1.562  15.346 -0.1476 -0.1028 -0.0793
12451W        W30655   9.472  12.466   1.623  0.1360  0.0740 -0.0988
12452W        W30656   5.431   5.483  10.919  0.2321 -0.0416  0.0968
12453W        W30657  11.175  13.213   1.186  0.0761 -0.2112  0.2925
12454W        W30658   3.603  15.360  17.282  0.0936  0.3971  0.2494
12455W        W30659   8.358  13.895   0.471  0.1661  0.1445  0.0388
12456W        W30660   4.206  12.080  15.410  0.1959  0.0643  0.0582
12457W        W30661   0.557   7.321  13.296 -0.0615  0.2461 -0.0063
12458W        W30662   3.428   5.291   3.551  0.0588  0.1378  0.1402
12459W        W30663  15.788  14.563   1.630 -0.0014  0.0265  0.1333
12460W        W30664   2.790   7.926   4.721  0.2748 -0.0437 -0.2986
12461W        W30665   3.281  13.216   1.508  0.3196  0.1188 -0.0361
12462W        W30666  13.141  10.943   0.777  0.0747 -0.1864  0.2424
12463W        W30667   4.087   4.869   1.664  0.0204 -0.2458 -0.1522
12464W        W30668   0.978  16.467  14.993  0.0350 -0.3788 -0.3938
12465W        W30669   1.745  10.240  12.562  0.2402 -0.1064  0.2548
12466W        W30670   4.359  16.810  14.532  0.2250  0.3685  0.1239
12467W        W30671   6.212  15.551   4.569  0.2274 -0.0031 -0.0860
12468W        W30672   3.481   6.723   3.577  0.1047 -0.0548 -0.1057
12469W        W30673  10.066   1.215  16.557 -0.0924  0.0817  0.0508
12470W        W30674  16.634  12.827  12.439 -0.2706  0.1485 -0.2400
12471W        W30675   4.583   0.515  15.536 -0.0002  0.0798  0.0277
12472W        W30676  14.596  15.851   3.629  0.0267 -0.1048 -0.2077
12473W        W30677   5.088   9.420   4.919 -0.1805 -0.0842  0.2798
12474W        W30678  10.002  15.387  14.855  0.3126 -0.0301 -0.0770
12475W        W30679  10.344  15.773   4.191  0.1592  0.1447 -0.0966
12476W        W30680   8.994   6.890  13.433  0.0542 -0.0553  0.0259
12477W        W30681   7.692  15.168  12.673  0.3056  0.0526  0.1339
12478W        W30682   0.463  17.127   1.202 -0.1632  0.0776  0.1474
12479W        W30683  12.564   4.378   1.300 -0.1243 -0.0919  0.0331
12480W        W30684   2.116   0.344   3.333  0.1697 -0.0061  0.0930
12481W        W30685  14.901  14.520  12.926  0.2425  0.0607 -0.1906
12482W        W30686   8.035  12.454   3.296  0.1896 -0.1528 -0.0092
12483W        W30687  16.681   9.463   6.507  0.0453  0.0077  0.0207
12484W        W30688  16.773   0.085  15.042 -0.0551  0.0238  0.0820
12485W        W30689   2.418   4.345   3.883 -0.0551  0.2333 -0.1267
12486W        W30690   1.065  12.804   1.426  0.2754 -0.0106  0.1246
12487W        W30691  13.295   6.519   4.552  0.0016  0.0157 -0.1589
12488W        W30692   0.879   2.732   4.794 -0.2585 -0.0837  0.1719
12489W        W30693   3.605   0.196   1.000  0.0357  0.0409  0.2191
12490W        W30694   3.868  14.573  13.398 -0.4089 -0.1727  0.1833
12491W        W30695   6.678   5.144   2.572 -0.1902 -0.5092 -0.0437
12492W        W30696  11.846  15.900   4.712 -0.0160  0.0797 -0.1156
12493W        W30697   7.400   1.880   2.588  0.0422  0.0126 -0.0712
12494W        W30698  13.436  12.106   1.114  0.4447 -0.0813  0.1505
12495W        W30699   7.057  12.493  15.546  0.1332 -0.0347  0.1993
12496W        W30700   9.255   9.795  13.591  0.0777  0.0529 -0.1333
12497W        W30701  17.145   2.446  12.409  0.0438  0.1158  0.0328
12498W        W30702   5.675   3.613  13.371 -0.0437 -0.1252  0.1381
12499W        W30703   4.277   1.966   4.947 -0.1583  0.0362 -0.1366
12500W        W30704  13.130   4.858  17.421 -0.0747  0.4067 -0.2392
12501W        W30705  10.072   5.723   2.932 -0.2756  0.0917  0.0178
12502W        W30706  10.199  10.678  16.189 -0.2778 -0.0429 -0.0062
12503W        W30707   8.162   6.969   3.329  0.1354  0.0588  0.2186
12504W        W30708   9.087   1.432  13.245 -0.0025  0.3129 -0.1391
12505W        W30709  17.167   8.212   0.913 -0.0769 -0.2549  0.0619
12506W        W30710  15.418  14.798   4.042  0.0142 -0.2443  0.0827
12507W        W30711   6.578   7.612   2.552  0.2439 -0.2478  0.0807
12508W        W30712  16.079  16.727   0.061 -0.0517  0.0196 -0.0233
12509W        W30713   8.093  15.614  14.515 -0.3949  0.0650 -0.0210
12510W        W30714   3.256   6.990   3.994  0.0922 -0.1869 -0.3197
12511W        W30715  16.843   6.597   2.411  0.2199  0.1018 -0.0987
12512W        W30716   3.301   3.641  14.142  0.1945  0.0495 -0.2175
12513W        W30717   0.199  16.738   5.106  0.0700  0.1868  0.0316
12514W        W30718  14.533   3.533   2.275  0.0062  0.0721 -0.3136
12515W        W30719   7.547  14.596   6.135 -0.2251  0.1564 -0.4692
12516W        W30720   1.195   8.604  17.381  0.4015  0.0646  0.2471
12517W        W30721   8.071   7.024   4.696 -0.0386 -0.2290 -0.1852
12518W        W30722   4.452   7.745  13.422 -0.3040  0.0870 -0.1141
12519W        W30723   6.523  13.743   0.877  0.0554 -0.0281  0.0614
12520W        W30724   9.399  15.608   2.935 -0.1907 -0.3828  0.0455
12521W        W30725  13.939   0.466  14.318 -0.0736 -0.3533 -0.1605
12522W        W30726   8.310  16.129  16.888  0.0234  0.0050  0.1038
12523W        W30727   0.036   3.058   4.556 -0.1724 -0.0695  0.1666
12524W        W30728  10.102  14.117   3.574  0.2181  0.1724  0.3886
12525W        W30729  16.383   1.526   2.893  0.0222  0.0767 -0.2196
12526W        W30730   8.735  16.959   1.324 -0.1014  0.1262 -0.2095
12527W        W30731  15.434  13.094   4.033 -0.2984  0.0698  0.0682
12528W        W30732   8.139  15.236   0.719 -0.0145 -0.1964 -0.0414
12529W        W30733  16.472   8.979  12.358  0.1497  0.1510 -0.0077
12530W        W30734  17.107   5.470  14.722 -0.0978  0.2706 -0.0346
12531W        W30735   6.015   3.973  16.843  0.0206 -0.1883 -0.1988
12532W        W30736  13.924  14.292   0.789  0.0604 -0.2910 -0.0678
12533W        W30737  13.028  13.195  15.115 -0.0298 -0.0598 -0.1585
12534W        W30738   9.868   9.005   4.846 -0.2877 -0.4986  0.1892
12535W        W30739  10.304   5.727  11.994  0.2617  0.1182 -0.2034
12536W        W30740   4.346   5.929  12.528 -0.1818  0.1276 -0.1524
12537W        W30741   5.036  15.089   4.147  0.1432  0.1513  0.1230
12538W        W30742   2.151   1.271  17.506 -0.2434  0.2181 -0.1726
12539W        W30743  14.795  13.817   0.052  0.1017 -0.2945 -0.1473
12540W        W30744  10.289   1.386  15.327 -0.1556 -0.2110  0.1391
12541W        W30745  16.652  13.239   4.122 -0.1339  0.0801 -0.2793
12542W        W30746   0.766  14.891   2.992  0.4634  0.3142 -0.2813
12543W        W30747  13.631  11.438  17.074 -0.0380  0.1711 -0.0739
12544W        W30748  14.090   1.481  11.601  0.0072  0.1759  0.1087
12545W        W30749   1.976  11.485   0.420 -0.1185  0.0101 -0.0637
12546W        W30750  11.220   6.137  15.300 -0.2039  0.0494 -0.1436
12547W        W30751  12.983  10.112   1.830  0.0405  0.3169 -0.2988
12548W        W30752   9.701   8.792   3.872  0.0983 -0.2724 -0.0702
12549W        W30753   1.018  13.265  14.633  0.0327 -0.0689 -0.1124
12550W        W30754  15.809  13.282  11.661 -0.0866 -0.2246 -0.0620
12551W        W30755  16.668   7.568  15.948 -0.2158 -0.0539 -0.0837
12552W        W30756  14.135  15.487  13.066 -0.1447 -0.0372 -0.1250
12553W        W30757  13.303   2.720  16.752 -0.1303 -0.1725 -0.0502
12554W        W30758   5.006   0.205   3.097  0.2112  0.1512 -0.2817
12555W        W30759  15.199   5.847   3.901  0.2800 -0.1957  0.1279
12556W        W30760  16.846  15.023   2.978  0.0408  0.1192 -0.0701
12557W        W30761  12.286   1.569  16.160 -0.2252  0.2776 -0.1743
12558W        W30762  16.379  10.963   2.728 -0.2043 -0.1907 -0.0519
12559W        W30763   7.421   5.315  15.768  0.0572 -0.1327  0.0761
12560W        W30764  10.526  10.992   1.832 -0.1115  0.1546  0.0201
12561W        W30765  14.402  14.856  13.632 -0.1381  0.0945 -0.1119
12562W        W30766  14.228   1.749   1.394  0.4004 -0.1736 -0.5567
12563W        W30767   2.880  14.727  13.842  0.0497 -0.1039 -0.2618
12564W        W30768  11.591  14.026   1.578 -0.0188 -0.1513  0.1437
12565W        W30769   4.531  11.331  12.698  0.2154 -0.0263 -0.3478
12566W        W30770   3.479   5.126   5.018  0.0958 -0.0644 -0.2793
12567W        W30771   7.207   1.862  11.796 -0.3150 -0.0238 -0.0505
12568W        W30772  11.510  15.342   2.929 -0.0878  0.0363 -0.1621
12569W        W30773  13.797   0.425   2.647 -0.0508  0.2344 -0.0174
12570W        W30774   9.234   5.099  17.113 -0.1419 -0.0858 -0.0640
12571W        W30775   5.764   8.006   3.838 -0.0056  0.1261 -0.1713
12572W        W30776   8.226   5.567   4.848 -0.3384 -0.1057 -0.0450
12573W        W30777   3.483  13.237  15.545 -0.1219 -0.1760 -0.1199
12574W        W30778  17.122  15.509  13.114 -0.0980 -0.0891  0.0236
12575W        W30779   7.712   0.097  16.294  0.2329  0.2818  0.1617
12576W        W30780  12.918  16.078   5.250  0.0531 -0.1562  0.1399
12577W        W30781   2.725   9.262   2.034 -0.0463  0.0604 -0.0056
12578W        W30782   0.030  12.786  16.198  0.0370 -0.1795  0.0008
12579W        W30783   7.893   0.290   2.347 -0.2348 -0.2482  0.0187
12580W        W30784  12.104  17.110  15.067 -0.0090  0.1736 -0.3590
12581W        W30785   4.937   7.602   0.330  0.0193  0.0556 -0.0853
12582W        W30786  11.292   2.719  15.181  0.1782  0.3574  0.0027
12583W        W30787   5.015  13.328   2.216  0.2046  0.0533  0.0846
12584W        W30788  14.728   0.244  17.000  0.2517 -0.2013  0.1475
12585W        W30789   6.643   0.590  12.061  0.0704 -0.1907 -0.2375
12586W        W30790   6.298  12.111  15.231 -0.0732 -0.3764  0.0442
12587W        W30791   0.798   4.586   2.617  0.0588 -0.0325  0.1422
12588W        W30792   1.994   4.226  12.285  0.0268 -0.0513  0.0433
12589W        W30793   1.569  15.272  12.938 -0.3282  0.1293 -0.0651
12590W        W30794   8.229   3.155   0.929 -0.1687  0.4262  0.1213
12591W        W30795  13.345   7.749  14.756  0.0834  0.2026  0.0456
12592W        W30796  10.843  16.246  16.552 -0.1510  0.0664  0.3795
12593W        W30797  16.025   2.487   4.565 -0.1856  0.3270 -0.0551
12594W        W30798   7.730   5.029  16.679  0.0126  0.2727  0.2956
12595W        W30799   7.731   9.539   3.386  0.1081 -0.0529  0.0906
12596W        W30800  12.773   7.167  12.257 -0.4977  0.2197  0.2076
12597W        W30801  12.874  16.838   1.263  0.1016 -0.3066 -0.1136
12598W        W30802  14.624  13.698   0.566 -0.0440  0.1335 -0.0724
12599W        W30803   8.025   9.460  13.604 -0.1061  0.3274 -0.0592
12600W        W30804  13.312   1.022   2.260  0.1727  0.0900 -0.2758
12601W        W30805  14.658   3.046  16.273 -0.1678 -0.0692 -0.1129
12602W        W30806  17.178   9.110  16.339 -0.1736  0.0252  0.0704
12603W        W30807   4.938   8.800   3.129 -0.0208  0.2541 -0.4542
12604W        W30808   2.440  17.162   0.465  0.0864  0.1745  0.2489
12605W        W30809   1.949   1.051   2.781 -0.3173 -0.2232 -0.3265
12606W        W30810   4.014  16.857  12.818 -0.1982 -0.2570 -0.0512
12607W        W30811   7.662   6.958  13.226 -0.1101  0.0256  0.2126
12608W        W30812  15.789  12.285  12.685 -0.0068 -0.1141  0.1077
12609W        W30813  15.039   1.619   3.147  0.1922 -0.0725 -0.0611
12610W        W30814   9.104   5.559   0.777 -0.0232  0.2024  0.0592
12611W        W30815  17.136   3.431  16.053 -0.1553  0.0309  0.1435
12612W        W30816   6.555   3.718   4.247 -0.2438 -0.1943  0.1749
12613W        W30817   5.955   6.212   3.505  0.1044 -0.0602 -0.2202
12614W        W30818  12.499   1.710   4.433 -0.1479 -0.0802 -0.2932
12615W        W30819  10.287  15.333  14.024  0.3459 -0.2017 -0.0224
12616W        W30820   5.208   7.583  14.239 -0.1789 -0.0051  0.0164
12617W        W30821  10.895  16.297   0.473  0.0621 -0.1759 -0.1718
12618W        W30822  15.257   6.668   4.423 -0.0150 -0.1690  0.2594
12619W        W30823  11.078   1.084   5.292 -0.0662 -0.2168  0.1919
12620W        W30824  15.135   1.977   1.689 -0.1522  0.2603 -0.0756
12621W        W30825   6.084  13.620   0.399 -0.0268 -0.1891  0.2566
12622W        W30826  10.289  13.170  16.878  0.3005  0.2914 -0.1983
12623W        W30827  13.934   8.653   1.071  0.1753 -0.0348  0.0279
12624W        W30828  14.039   0.036   4.943 -0.0253  0.0962 -0.0565
12625W        W30829   8.694   2.153  13.001  0.4198 -0.0456  0.2728
12626W        W30830   8.645  14.096  16.702 -0.0424  0.0175 -0.4030
12627W        W30831  15.424   0.866   1.019 -0.2788 -0.0572  0.0478
12628W        W30832   1.301   8.782  14.750  0.1161 -0.2276  0.0918
12629W        W30833  15.895   6.988  17.072  0.1804 -0.1285  0.0855
12630W        W30834  14.496   0.269   5.068  0.1767  0.0299 -0.1688
12631W        W30835   9.860  17.170  14.901 -0.0437 -0.2270 -0.2221
12632W        W30836  10.167  10.722  14.453 -0.2466 -0.1401  0.0024
12633W        W30837  16.363   5.634   1.074  0.0144 -0.2876 -0.0300
12634W        W30838  14.515   4.628   1.812  0.1877  0.0661 -0.1152
12635W        W30839  12.458  10.315   2.786 -0.0133 -0.2581 -0.0722
12636W        W30840  15.348  11.626  15.525  0.1421 -0.1045 -0.2200
12637W        W30841  16.080   4.592   2.929  0.0530 -0.2186 -0.1766
12638W        W30842   1.026   4.010   0.423 -0.0303 -0.0267  0.1377
12639W        W30843  13.421   2.297   4.458  0.2216  0.0801  0.0726
12640W        W30844   6.442   6.368   3.489  0.1242 -0.0808 -0.0682
12641W        W30845   6.278  14.615  16.633 -0.0001  0.0818  0.1740
12642W        W30846   8.978   4.406  12.260 -0.0519 -0.0898 -0.1760
12643W        W30847   2.481   1.874   4.870 -0.2204  0.0206  0.2907
12644W        W30848  10.047   6.319   5.110  0.0339 -0.0229 -0.2296
12645W        W30849  11.506  12.992   0.812 -0.2404  0.0843  0.0311
12646W        W30850   4.601   9.305   0.877  0.1594  0.0420 -0.1215
12647W        W30851   6.242  10.685   4.730 -0.0901  0.1300  0.1286
12648W        W30852   1.090   4.508  13.495 -0.1784  0.2672  0.0292
12649W        W30853   5.212  13.741  12.494 -0.0363  0.1007 -0.0065
12650W        W30854   0.710  12.861   3.469 -0.0807 -0.1422  0.1435
12651W        W30855   0.865   3.422  17.168 -0.0570  0.3990  0.2064
12652W        W30856   5.174   0.711  16.786 -0.0564 -0.1441  0.0838
12653W        W30857  11.332   9.009   1.318  0.1166 -0.0145 -0.3383
12654W        W30858   9.618   0.608   3.957 -0.3519  0.2222 -0.2954
12655W        W30859   6.545   3.457  16.493 -0.3261  0.3540 -0.1192
12656W        W30860   4.388   9.112  16.503 -0.1382  0.0439  0.1142
12657W        W30861   7.938   6.404  14.953  0.0382  0.0742 -0.0080
12658W        W30862   0.968   1.260  15.566 -0.0500 -0.0896 -0.0146
12659W        W30863   5.734  13.864   3.544 -0.1809 -0.0067  0.1316
12660W        W30864   0.615  15.213  13.746  0.1156  0.0509  0.0357
12661W        W30865   9.869   1.642   2.812  0.1607  0.0415  0.1775
12662W        W30866   1.980   9.487  16.681 -0.1185 -0.1294 -0.1028
12663W        W30867   4.569   6.908   3.539  0.0258  0.1875  0.0080
12664W        W30868  14.121   1.801   0.853 -0.2636 -0.0106  0.0185
12665W        W30869  11.164   2.617  15.965  0.0868 -0.1328 -0.0617
12666W        W30870  17.262   0.603  16.215 -0.1096 -0.0347 -0.0964
12667W        W30871  14.756   3.721   4.687  0.3564 -0.1447 -0.1859
12668W        W30872   8.330   6.014  14.901 -0.2721 -0.0764 -0.0153
12669W        W30873  16.262   9.238  16.835 -0.1395 -0.0275 -0.1380
12670W        W30874   8.051   2.325   0.435 -0.1406 -0.1011  0.1271
12671W        W30875  13.587   3.082   0.549  0.2368 -0.0812  0.0757
12672W        W30876   9.845   0.139  13.250 -0.3116 -0.2503 -0.1984
12673W        W30877   8.659   7.761   2.896  0.2082 -0.0383 -0.0561
12674W        W30878  17.175   1.285   3.371  0.3057  0.1406 -0.0680
12675W        W30879  16.590   1.616   4.419 -0.1559 -0.1873 -0.0978
12676W        W30880  14.310  13.282  13.508 -0.0974 -0.1249 -0.1144
12677W        W30881  16.234  10.004   4.632 -0.2220 -0.0722  0.2228
12678W        W30882   4.195  14.148  16.931 -0.1612  0.2336 -0.0914
12679W        W30883   8.334  11.351  13.098  0.2798 -0.0481  0.1133
12680W        W30884  10.602  12.565   5.440  0.1193  0.2790 -0.0028
12681W        W30885   8.786  11.320   4.434  0.0612 -0.3008  0.3297
12682W        W30886  13.211   2.045  16.962 -0.0554  0.2544 -0.1481
12683W        W30887   5.403   4.919   4.444  0.0696 -0.0025 -0.1426
12684W        W30888   0.497   1.677   0.173 -0.1648 -0.2533  0.2008
12685W        W30889  15.664   2.576   4.902 -0.0893  0.1671 -0.0530
12686W        W30890  15.982  12.501   2.962 -0.0040 -0.0876  0.0955
12687W        W30891   9.478  16.958   1.668 -0.2545  0.2361  0.1878
12688W        W30892  12.443   9.421  15.442 -0.0945 -0.0712  0.2636
12689W        W30893  12.030   4.480   1.762  0.1847  0.0854 -0.4115
12690W        W30894   3.592   3.784   5.665 -0.0748 -0.1132 -0.2083
12691W        W30895   8.925  14.447  14.858 -0.2321 -0.0555 -0.1019
12692W        W30896  11.839   4.107  14.657  0.0314 -0.1383  0.3368
12693W        W30897   0.900   4.824   5.447 -0.3402  0.0995  0.0160
12694W        W30898   5.761   0.381   2.810  0.0750 -0.1273  0.0952
12695W        W30899   2.461   2.349   1.300  0.2205 -0.1182  0.3084
12696W        W30900   1.032   4.689  14.805 -0.0006 -0.0834  0.4209
12697W        W30901  13.586  14.567   0.499  0.2367  0.0105 -0.0416
12698W        W30902   5.963   0.570  12.574  0.0306 -0.0213 -0.0730
12699W        W30903   9.217   7.914  16.443 -0.3908  0.0147  0.2275
12700W        W30904   1.911  12.855  14.568 -0.1118 -0.0561  0.1677
12701W        W30905   6.671   7.859   3.994 -0.0181 -0.1975  0.1819
12702W        W30906  16.054  14.114   1.736  0.1367 -0.0641  0.0464
12703W        W30907  13.270  10.279  16.486 -0.0133 -0.0573  0.3755
12704W        W30908   8.064   5.908  16.707 -0.4074 -0.2052 -0.1104
12705W        W30909  10.773  15.966  15.685 -0.2138  0.1481 -0.1617
12706W        W30910   3.064   0.835  12.769 -0.0615 -0.1088 -0.3541
12707W        W30911  13.414  13.997  16.905 -0.2911 -0.1781  0.4166
12708W        W30912  16.741  11.722   1.875  0.0876  0.0628 -0.0869
12709W        W30913  13.072  16.345  13.000 -0.0621 -0.0065  0.1034
12710W        W30914  16.237  12.891  15.116 -0.0684 -0.3774 -0.0191
12711W        W30915   2.572  16.752   0.672 -0.2107 -0.1689 -0.2084
12712W        W30916   5.154   8.431   4.348  0.0114  0.1187 -0.0072
12713W        W30917  16.267   3.011   4.479  0.1521 -0.3101 -0.0534
12714W        W30918   2.622  16.054   0.042 -0.1000 -0.0460  0.1828
12715W        W30919   1.127   3.563  14.299 -0.3354 -0.0457 -0.1250
12716W        W30920   0.812  14.876   0.231  0.1162 -0.2723 -0.1106
12717W        W30921   8.119   3.808   4.941  0.1848 -0.0188  0.0005
12718W        W30922   8.708   9.795  14.581  0.2135  0.2098  0.5043
12719W        W30923   8.807   7.196  15.879  0.2053  0.2176 -0.0724
12720W        W30924   4.545  11.790   0.256 -0.0610  0.0412  0.1112
12721W        W30925   8.210  11.806   0.900 -0.1148  0.1906  0.1181
12722W        W30926  15.519  12.921  16.277 -0.3349 -0.1297 -0.0115
12723W        W30927  12.242   5.981   3.222  0.1400 -0.1012  0.1386
12724W        W30928   9.607   8.133   4.788 -0.0992  0.3612  0.3830
12725W        W30929   0.766  17.189  15.514  0.3781  0.1673 -0.0073
12726W        W30930   5.601   6.241   4.054  0.0371 -0.3067 -0.1012
12727W        W30931  16.118  12.547   0.652 -0.0799  0.0613 -0.0578
12728W        W30932  15.878  15.005  15.792 -0.2149 -0.2104  0.3347
12729W        W30933  16.451   4.839  17.140 -0.0396 -0.0445 -0.0648
12730W        W30934   4.932   4.452  15.207 -0.1719  0.0926  0.2648
12731W        W30935   3.464  12.182  14.249  0.0016 -0.1184 -0.1933
12732W        W30936   2.874   9.731  14.350 -0.3197  0.1246  0.0909
12733W        W30937  11.794  11.930  15.539  0.0724  0.2108 -0.0063
12734W        W30938   8.534  14.945   3.667  0.0487  0.2262 -0.1412
12735W        W30939  12.340  11.314  13.756 -0.1763  0.1890 -0.1341
12736W        W30940  11.051  12.213  13.557 -0.1971 -0.1206 -0.2104
12737W        W30941  14.288   2.736  17.162  0.1310  0.0354 -0.0980
12738W        W30942   3.741   4.057  14.635 -0.0056 -0.0387  0.0353
12739W        W30943  12.674   7.180   2.480 -0.0033 -0.3112  0.0079
12740W        W30944   1.904  15.851   3.592  0.1033 -0.0874 -0.0558
12741W        W30945  15.660  16.606  13.064 -0.2426  0.0718 -0.0758
12742W        W30946  16.540   7.657  16.816 -0.0730 -0.0969  0.1923
12743W        W30947   9.603  14.257  15.548 -0.0993 -0.1264  0.2322
12744W        W30948  14.740  15.666  14.583 -0.0180 -0.1432 -0.2577
12745W        W30949  13.246   6.751  16.993  0.0173 -0.2181 -0.1762
12746W        W30950   2.806   2.521   2.474  0.0623  0.1134 -0.0472
12747W        W30951  12.443   9.219  16.677  0.1030  0.0631 -0.0763
12748W        W30952   1.637   6.713   2.246 -0.1571  0.4753  0.0901
12749W        W30953  14.458   3.832  12.591  0.0058  0.1973 -0.2305
12750W        W30954  14.597  14.516   2.805  0.1154  0.0664 -0.2422
12751W        W30955  13.611   7.578   2.050  0.1452 -0.3683 -0.2002
12752W        W30956   8.322  11.360   4.551  0.3718 -0.0605 -0.0858
12753W        W30957  16.936  13.185  14.451  0.0901  0.0622  0.0304
12754W        W30958   0.801   5.952  12.947  0.2717  0.1789  0.0759
12755W        W30959  16.303   3.484  12.800  0.2658  0.0194  0.1336
12756W        W30960  11.547   4.319   0.653 -0.2474 -0.3867 -0.2390
12757W        W30961  14.366  15.937  14.419 -0.0938  0.1630  0.2554
12758W        W30962   3.904  15.143   4.522  0.1726  0.0579 -0.3356
12759W        W30963   3.801   5.904   4.797  0.0456 -0.1619 -0.2015
12760W        W30964  11.594  15.246   2.464 -0.1208 -0.4026  0.0981
12761W        W30965   1.544   1.782  16.523 -0.2208  0.1065  0.1737
12762W        W30966   9.564  13.402  15.739  0.0763 -0.3467 -0.0011
12763W        W30967   2.045   1.481   0.784 -0.0474 -0.0401  0.0372
12764W        W30968   3.293   2.882   2.796 -0.2494 -0.0046 -0.2306
12765W        W30969   6.754  10.488  12.604 -0.0298  0.0599 -0.2638
12766W        W30970   4.861   7.426  13.244 -0.3373 -0.3127  0.1227
12767W        W30971   6.606  10.938   1.515 -0.0929  0.0217 -0.3131
12768W        W30972   9.287   9.714   4.773 -0.0243 -0.1571  0.1927
12769W        W30973   0.538  13.313   3.607  0.1486  0.1853  0.0079
12770W        W30974   4.601   1.751  12.273  0.2829 -0.1276  0.1361
12771W        W30975  14.390  10.142  12.092 -0.0301  0.1295  0.1828
12772W        W30976   9.704  11.072  12.414 -0.0453  0.1486  0.1169
12773W        W30977   0.070  11.446   1.152 -0.1595  0.0770 -0.2999
12774W        W30978   4.403   2.248  16.920  0.0690 -0.1540 -0.0353
12775W        W30979  13.629  10.039  17.342 -0.3392  0.1906  0.1267
12776W        W30980   0.005   7.781   1.091 -0.0994 -0.0274  0.0073
12777W        W30981   4.981   2.613  16.366  0.2283 -0.0440  0.1351
12778W        W30982   0.132  13.791  13.635  0.2063  0.1018  0.0625
12779W        W30983   0.322  14.770   0.407 -0.2818  0.0471 -0.0103
12780W        W30984   2.147   0.693   0.196 -0.0506 -0.2698 -0.1043
12781W        W30985  10.697   8.446   3.196  0.1198  0.5707 -0.0671
12782W        W30986   3.229   4.841   2.674  0.1368 -0.0764 -0.0500
12783W        W30987   8.576   4.891  15.128 -0.1137 -0.2605  0.1612
12784W        W30988   6.593  14.990   0.733 -0.0155 -0.2923 -0.0331
12785W        W30989   2.883   2.370   1.988  0.2848  0.0874  0.0645
12786W        W30990   1.898  10.963   3.632  0.0722  0.1234  0.1210
12787W        W30991   3.128   6.683  12.258  0.0617 -0.0907  0.1335
12788W        W30992   5.841   2.269   2.316  0.0451  0.0893  0.1269
12789W        W30993  15.596   9.594   1.229  0.1214  0.1477  0.1963
12790W        W30994   1.198   8.536  16.113 -0.0817  0.0289 -0.1156
12791W        W30995   1.408   5.729  16.687  0.1262 -0.1135 -0.2196
12792W        W30996  10.799   9.550  16.731  0.0741  0.1000 -0.2044
12793W        W30997   8.743  13.047  14.797 -0.0255 -0.0094 -0.2714
12794W        W30998   5.143   1.922  15.684  0.1056 -0.1588 -0.0188
12795W        W30999   4.031  11.802  13.771 -0.0693 -0.3703  0.2335
12796W        W31000  14.804   3.794   3.478 -0.1078 -0.0212  0.0514
12797W        W31001   5.100  10.139   2.653  0.1552 -0.0698 -0.1480
12798W        W31002   0.699   9.395   4.454  0.0038 -0.1929 -0.1495
12799W        W31003   2.945   5.095   1.082  0.0626  0.0575  0.2007
12800W        W31004   7.983  12.815  16.906  0.3503 -0.0397 -0.1467
12801W        W31005  14.816   4.183  17.128 -0.1827 -0.1624  0.3948
12802W        W31006   8.866   6.780   3.067 -0.1390 -0.0972 -0.0250
12803W        W31007  11.292  16.941  17.088  0.0308  0.4150 -0.2123
12804W        W31008  10.422  15.291  17.444 -0.1638 -0.2965  0.1871
12805W        W31009   5.544   9.772   1.925 -0.1396 -0.0496  0.1269
12806W        W31010  13.341  12.270  15.444 -0.3960  0.1123  0.3892
12807W        W31011   4.129  16.062  16.665  0.2257 -0.2679  0.1421
12808W        W31012   8.857   9.530  17.020 -0.2846 -0.0059 -0.1669
12809W        W31013   9.144  12.868   4.310 -0.4213 -0.2486  0.0781
12810W        W31014   9.562  11.740   5.350 -0.0636 -0.1334 -0.0255
12811W        W31015  15.740   7.987   2.454 -0.1160  0.0398  0.1145
12812W        W31016   8.979  12.480   5.289  0.0409  0.0913  0.0972
12813W        W31017   1.663   7.441   1.033 -0.0237  0.0980 -0.1082
12814W        W31018   9.311  12.139   5.540 -0.2959 -0.2317  0.2424
12815W        W31019   8.347  11.538   1.300 -0.0484  0.2590 -0.0962
12816W        W31020   8.880   0.471   0.726 -0.1749  0.1855 -0.0798
12817W        W31021   9.790   9.060   5.345  0.2637  0.0134 -0.0610
12818W        W31022  10.676   8.336   1.105  0.1251 -0.1540  0.1024
12819W        W31023  13.286  10.248  13.988 -0.1742 -0.0285  0.2221
12820W        W31024  14.679  11.371  13.644  0.0693  0.1874 -0.5930
12821W        W31025  17.264  11.857   5.042 -0.0202 -0.0832  0.2783
12822W        W31026  12.140   9.952   1.966  0.4343 -0.0311 -0.1925
12823W        W31027   6.832  11.018   3.792 -0.1472  0.3827 -0.2280
12824W        W31028  16.669   1.022  13.139  0.3243 -0.0035 -0.2078
12825W        W31029   5.832   9.795  11.922  0.2147  0.0229  0.4901
12826W        W31030  12.944   4.040   1.211  0.0772 -0.2376 -0.2218
12827W        W31031  14.246  16.199   4.124 -0.0736  0.3726 -0.2377
12828W        W31032  10.719   8.730   3.638  0.3082 -0.2380 -0.0877
12829W        W31033  12.983   6.496   2.980  0.0347  0.0753 -0.0160
12830W        W31034  15.202   6.368   0.492 -0.2478 -0.0032  0.2567
12831W        W31035   8.942  17.210   0.805  0.0336  0.0471 -0.3052
12832W        W31036   8.804   9.404  15.478  0.1485  0.0230 -0.1548
12833W        W31037  11.715   0.470  16.904 -0.0736  0.2757  0.2785
12834W        W31038   9.264   5.596  17.063  0.1817 -0.1590 -0.0443
12835W        W31039   0.874   6.618   2.848  0.0019 -0.0161 -0.1832
12836W        W31040   5.931  14.367   3.566  0.0104 -0.1509  0.1650
12837W        W31041   7.452   5.238  12.412 -0.0188 -0.0203  0.0250
12838W        W31042  14.880  15.794   5.567 -0.1003  0.3633  0.2028
12839W        W31043  14.865   3.040   1.051 -0.1933 -0.1215  0.3237
12840W        W31044   7.812  16.936  14.618 -0.1388 -0.0713 -0.3255
12841W        W31045   3.469   2.044  13.349  0.1528  0.1054 -0.1041
12842W        W31046   9.616  11.512   1.653  0.4174  0.1842  0.2496
12843W        W31047   5.217  15.522  12.585 -0.0342 -0.3003 -0.1795
12844W        W31048   1.373   3.194  14.761  0.0477  0.0236  0.1183
12845W        W31049   0.344   0.744   1.935 -0.1708 -0.1268  0.3308
12846W        W31050   6.542   2.874  16.885  0.3672  0.3418 -0.0086
12847W        W31051   2.301  13.261   4.755  0.1293  0.0528  0.0353
12848W        W31052  16.814   1.818   1.189 -0.0107  0.2855  0.1593
12849W        W31053   3.340   2.387  13.754 -0.0533  0.0018  0.0730
12850W        W31054   3.301   2.788  16.040 -0.2067 -0.0321 -0.2344
12851W        W31055   7.535  10.622  14.886  0.2337  0.2162  0.2853
12852W        W31056   8.483   2.974   5.124  0.1392  0.0027 -0.0821
12853W        W31057   7.638   8.722  15.874 -0.0350 -0.1922 -0.0956
12854W        W31058  11.265   9.873   2.956 -0.0602  0.1056 -0.3042
12855W        W31059  11.333   0.564  13.393 -0.2631  0.0012  0.1486
12856W        W31060   0.617  17.019  17.449 -0.0334 -0.1657  0.1435
12857W        W31061  12.059   1.029  11.966  0.2584 -0.0380 -0.2120
12858W        W31062   9.502   0.941  12.807 -0.1160 -0.0651  0.1257
12859W        W31063  13.620   2.395  15.319  0.0239  0.1559  0.1386
12860W        W31064   4.992  10.434  11.226 -0.1895  0.1585  0.0228
12861W        W31065   2.587   3.528   2.518  0.0564  0.0934 -0.0865
12862W        W31066  11.235   9.913  15.035  0.0511 -0.0921 -0.3079
12863W        W31067   9.994   7.032  13.799  0.1805  0.1348 -0.0120
12864W        W31068  16.154  14.091  13.615 -0.2127  0.1337 -0.1957
12865W        W31069   8.502   9.017   1.408  0.3687 -0.1699  0.1645
12866W        W31070  17.092   2.729   4.214  0.1938  0.1614 -0.0909
12867W        W31071  12.643  10.937   5.322 -0.1433  0.1119  0.1841
12868W        W31072   5.779   5.219  14.121 -0.1281 -0.1851  0.1389
12869W        W31073   4.679   2.070   0.315  0.0864  0.2689  0.2338
12870W        W31074  14.029   3.644   4.010  0.0874 -0.0697  0.1547
12871W        W31075  16.402   2.200  12.892  0.0250 -0.0710 -0.0068
12872W        W31076  13.142   2.863  15.861 -0.2104  0.0473  0.1233
12873W        W31077  12.054   3.159  14.021 -0.1610  0.0065  0.2597
12874W        W31078  11.279   9.536  12.512  0.1931  0.4953  0.0922
12875W        W31079   7.554  14.618  15.345 -0.1420 -0.2396  0.0698
12876W        W31080  15.576   4.366  14.892 -0.0612 -0.1053 -0.0562
12877W        W31081  14.419  12.675  12.988 -0.1787  0.3083  0.2509
12878W        W31082  14.238   2.166  17.332 -0.1660  0.0725 -0.3638
12879W        W31083  14.359   0.001   1.628  0.1300  0.0828  0.0698
12880W        W31084   7.117  14.181  17.210  0.0123  0.1452  0.1166
12881W        W31085  14.863   4.199   4.712  0.0525  0.1442 -0.2031
12882W        W31086   3.043   0.981  14.117 -0.0320  0.2615  0.2247
12883W        W31087  13.059   6.677   0.335  0.0957 -0.1646  0.0408
12884W        W31088   7.299   6.489   0.433 -0.0501 -0.0285 -0.0495
12885W        W31089  11.619   5.012  15.167 -0.2567  0.0797 -0.1707
12886W        W31090  17.294   5.562   5.021 -0.2003 -0.2689  0.0304
12887W        W31091  14.515   6.135   2.329 -0.1466 -0.1747 -0.0416
12888W        W31092  14.051   6.547   1.232 -0.2684  0.2394 -0.0503
12889W        W31093   8.184  15.989   3.143  0.0718  0.0801 -0.0270
12890W        W31094  14.722   3.910  14.749  0.1771 -0.0282  0.0108
12891W        W31095   8.009   2.379  17.029  0.0533 -0.0599  0.0833
12892W        W31096  16.922  15.304   0.434  0.0306  0.0780 -0.0290
12893W        W31097  11.687  10.069   3.270  0.1303  0.2825  0.0228
12894W        W31098  15.924   9.398   0.870 -0.0280 -0.2078 -0.0225
12895W        W31099   8.325  16.291   2.649  0.2498  0.0189 -0.0987
12896W        W31100  13.792  15.255  14.019  0.0578 -0.1743  0.2972
12897W        W31101   1.179  14.841   3.883 -0.0234 -0.1418  0.0929
12898W        W31102  11.193  14.674  16.256  0.1672 -0.1961 -0.0951
12899W        W31103  13.977  11.267   1.714  0.0635 -0.3090 -0.0718
12900W        W31104   8.112  13.237  17.156  0.0097  0.0729 -0.2103
12901W        W31105   1.244  13.955  13.559 -0.0502  0.3100  0.1255
12902W        W31106  17.061  16.391   0.974  0.0201  0.0650 -0.0343
12903W        W31107   3.204   4.949   5.515 -0.3176 -0.0924  0.0746
12904W        W31108   3.401   1.848   2.558  0.0998  0.0453  0.2393
12905W        W31109   1.685  11.572   2.709 -0.2339 -0.1664  0.0485
12906W        W31110  10.052  14.758   4.063  0.0507 -0.1041  0.3264
12907W        W31111  13.440   4.179   5.034  0.0578 -0.2875  0.2342
12908W        W31112  12.331  16.918  12.734 -0.1681  0.2772 -0.2887
12909W        W31113   7.275   3.232  17.295 -0.1181 -0.1783 -0.1426
12910W        W31114  17.084   1.670   2.407  0.0017 -0.1680 -0.1590
12911W        W31115   2.923   2.957   5.165  0.2791  0.4377 -0.0786
12912W        W31116  13.668   6.951   1.542  0.3352 -0.1104 -0.3960
12913W        W31117   1.639  11.943  17.126  0.1945  0.1517 -0.0125
12914W        W31118   0.672   6.855   4.232  0.1937  0.0164 -0.1068
12915W        W31119   2.638   6.257  16.525  0.1952 -0.3303 -0.1884
12916W        W31120   0.852   3.225  13.290 -0.1029 -0.1911 -0.0112
12917W        W31121   9.459   1.629  15.889 -0.0680 -0.1988  0.0672
12918W        W31122   4.219   5.570   2.151 -0.0619  0.1023 -0.1679
12919W        W31123   6.115   3.132   5.433 -0.1984  0.1127 -0.1820
12920W        W31124   0.076   0.268   0.028  0.3586  0.4519 -0.5977
12921W        W31125   6.303  13.231   3.655 -0.0649 -0.1537  0.0584
12922W        W31126  11.586   4.514  12.964  0.1430 -0.0294  0.2600
12923W        W31127   0.955   9.917  15.846  0.1750 -0.0616 -0.1685
12924W        W31128   8.656  14.997   2.557 -0.0595 -0.1506 -0.2728
12925W        W31129  16.732   5.715  13.596  0.0189  0.0270  0.0641
12926W        W31130  14.669   0.815  16.585 -0.2380 -0.0625  0.0111
12927W        W31131   0.260  16.790   4.082  0.0622 -0.2079 -0.3883
12928W        W31132  10.786   9.454  13.913 -0.4339  0.0475 -0.0573
12929W        W31133  14.248  13.320   1.519 -0.1026 -0.0185 -0.0389
12930W        W31134   4.411   0.577  14.876  0.1731  0.4984 -0.2885
12931W        W31135   2.675  15.823   3.224 -0.0377 -0.0537  0.0448
12932W        W31136   4.278   1.178   3.469  0.0544  0.1440 -0.0031
12933W        W31137  16.362   9.629  13.544 -0.2824 -0.2540 -0.0617
12934W        W31138   6.075  11.188   2.226 -0.1025 -0.0679 -0.0207
12935W        W31139  11.556  13.337   5.131  0.3898  0.0183  0.2405
12936W        W31140  15.684   3.615  14.554  0.0361  0.0498 -0.3258
12937W        W31141  13.166  11.077  16.141 -0.0072 -0.0186 -0.5317
12938W        W31142   3.782   8.191  15.981 -0.0714 -0.1113  0.3088
12939W        W31143   3.421   6.060  15.870 -0.0590 -0.0299  0.1454
12940W        W31144   3.395   8.557   2.188 -0.0388 -0.0815  0.0663
12941W        W31145   9.004   9.608  11.894 -0.1290  0.0976  0.0191
12942W        W31146  13.493  12.423   5.419  0.2125  0.0546 -0.1052
12943W        W31147   6.902   8.822  16.455 -0.0543 -0.1783 -0.0146
12944W        W31148  16.582   3.755  14.375 -0.1545  0.0258 -0.0487
12945W        W31149   7.312   4.184   2.436 -0.2795  0.1963 -0.0721
12946W        W31150  15.814   2.046   4.707  0.2936  0.0417 -0.0061
12947W        W31151   6.021   5.178  15.659 -0.0685  0.1424  0.1052
12948W        W31152  15.816  15.290   0.200  0.0492  0.1962  0.2322
12949W        W31153   4.937   9.032  17.231  0.0430  0.2873  0.1058
12950W        W31154   7.810   2.715  14.861 -0.1236 -0.1455 -0.1252
12951W        W31155  13.534  14.969  13.609  0.1966 -0.0429  0.1785
12952W        W31156  13.256  15.049  12.748 -0.0296  0.2664  0.2535
12953W        W31157  11.063   2.372  17.303 -0.0902  0.2932  0.0121
12954W        W31158   0.464   1.768  16.619  0.3309  0.0573  0.1124
12955W        W31159  14.155   6.995  17.340  0.1149 -0.4628  0.0830
12956W        W31160   3.080   2.458   3.737 -0.2089  0.1661  0.1993
12957W        W31161   3.589   4.104   3.550 -0.1179  0.1969  0.1268
12958W        W31162   2.658   2.906   4.581  0.1691  0.1962 -0.1960
12959W        W31163  13.923  10.492   5.457 -0.1491 -0.0068 -0.1109
12960W        W31164  12.944  14.263  12.417  0.0111 -0.2195  0.0516
12961W        W31165   4.560   3.961  12.155  0.0232  0.1317 -0.1020
12962W        W31166  16.834  14.690   4.936  0.1623 -0.0358  0.0036
12963W        W31167  14.641  14.723   2.078  0.1769  0.1643  0.1751
12964W        W31168  16.914   8.134  12.740 -0.0456  0.0553 -0.2184
12965W        W31169  15.173  12.585  17.139  0.1731 -0.3058 -0.0210
12966W        W31170  14.813   5.033   5.011  0.0612 -0.0670 -0.0180
12967W        W31171   6.096   0.959  15.835 -0.2461  0.1511  0.0957
12968W        W31172   1.963  13.406  14.343  0.2448  0.1720 -0.1137
12969W        W31173  14.984  13.639  16.624  0.0007 -0.1094 -0.0645
12970W        W31174   6.159  16.549   2.012  0.1053 -0.2839 -0.2025
12971W        W31175  15.789   5.072  15.481 -0.4187 -0.1401 -0.1035
12972W        W31176  12.721   7.340   3.771 -0.2519 -0.1607  0.0319
12973W        W31177   7.459   6.265  15.150  0.2719 -0.1787 -0.1745
12974W        W31178   6.011   3.442   3.024  0.1440 -0.1339 -0.1809
12975W        W31179   9.728  12.837   4.866 -0.0471  0.1546  0.0745
12976W        W31180   4.157  17.020  17.161  0.1759 -0.1776 -0.4528
12977W        W31181   0.959   6.580  15.287 -0.2231  0.2368 -0.0664
12978W        W31182   9.130  11.838  12.597 -0.1316  0.0371 -0.1710
12979W        W31183  15.479  13.487   3.697 -0.0938  0.3004 -0.0617
12980W        W31184   1.924   7.686   3.318 -0.1193  0.0137 -0.0807
12981W        W31185  12.643  17.205   3.761  0.1859 -0.0395  0.0591
12982W        W31186  12.844   7.614   4.707  0.0678 -0.0424  0.1520
12983W        W31187   5.984   2.214  15.198 -0.4257 -0.3441 -0.0717
12984W        W31188  16.213   0.187  13.390 -0.2087  0.2269  0.0819
12985W        W31189   5.101   4.622  13.176 -0.0926  0.0467  0.0561
12986W        W31190  14.709  14.315  17.404  0.2206  0.2183 -0.1544
12987W        W31191  15.321   3.359   1.070 -0.2650  0.3762 -0.2260
12988W        W31192   1.891  12.534  17.331 -0.1558 -0.1812  0.5367
12989W        W31193  12.043  12.589  13.413  0.1652  0.0142  0.0063
12990W        W31194  11.412   8.902   0.799 -0.0808 -0.1103 -0.1582
12991W        W31195  17.071  10.981  12.406  0.0824  0.0622 -0.0050
12992W        W31196   0.760   7.773  15.535  0.0633  0.3766 -0.3088
12993W        W31197   7.226   7.895   3.774  0.1544  0.0487  0.1771
12994W        W31198   4.565   5.311   2.779  0.1160  0.3312 -0.0517
12995W        W31199   4.267   5.101  17.216 -0.1753 -0.1348 -0.0958
12996W        W31200  13.818   4.948  13.203  0.1448  0.1736  0.0788
12997W        W31201   1.069   5.752   4.170 -0.1996  0.0610 -0.1614
12998W        W31202  16.728   3.267  13.057  0.2867  0.2514 -0.5635
12999W        W31203   2.130   6.947  12.167 -0.3391  0.1061 -0.1081
13000W        W31204   6.862  14.597  14.410 -0.0834  0.2790  0.0661
13001W        W31205  10.258   2.284   2.158  0.2564  0.1722  0.1580
13002W        W31206   5.186  16.508   6.182  0.0448 -0.1757  0.0162
13003W        W31207  13.437   4.146  12.144 -0.0481  0.2943  0.0288
13004W        W31208   5.931   1.658  11.459  0.0741  0.0052  0.0739
13005W        W31209   4.789   5.279   3.796  0.2387 -0.0982  0.1649
13006W        W31210  10.750   7.006   2.048  0.1255  0.2035  0.1086
13007W        W31211   9.280   1.069  11.907 -0.0915  0.1325  0.2601
13008W        W31212  11.707   8.099   0.545 -0.1689 -0.1743 -0.1784
13009W        W31213  13.986  13.153   0.402  0.3903  0.0149  0.1702
13010W        W31214   8.596   7.241   2.991 -0.0400 -0.3630  0.3483
13011W        W31215   0.279   7.965  13.510 -0.0702  0.2143  0.1961
13012W        W31216   9.392  15.425   1.939 -0.1551  0.1462 -0.0718
13013W        W31217   2.944  15.481  16.380 -0.0735  0.0646  0.1160
13014W        W31218  13.697   4.169  15.005 -0.0544 -0.1216  0.2928
13015W        W31219   4.989   1.760   4.334 -0.1817  0.0505  0.0525
13016W        W31220   5.917   4.779   2.536 -0.0361 -0.1941 -0.1255
13017W        W31221   5.425   2.169  14.732 -0.1490  0.3403 -0.2380
13018W        W31222  12.572   7.811   0.933 -0.2242 -0.3610 -0.0152
13019W        W31223   2.003   9.567  15.602  0.0378  0.3333 -0.0256
13020W        W31224   9.771   4.122   3.252 -0.0905 -0.1495 -0.0824
13021W        W31225  16.634   5.680  16.812  0.1041  0.0258 -0.1444
13022W        W31226   7.948   3.223  13.849  0.0903  0.2179 -0.1324
13023W        W31227   6.127  11.097  16.542 -0.3347  0.2839  0.2324
13024W        W31228  12.042   6.506  15.032 -0.1491 -0.1590 -0.0479
13025W        W31229   9.279   0.875  16.957 -0.2554 -0.0136 -0.1254
13026W        W31230   4.969   6.572   0.597 -0.0758  0.4385  0.1769
13027W        W31231  16.853  14.638   1.602 -0.1990  0.3560  0.0585
13028W        W31232  10.474   6.710   1.676  0.3731 -0.1187  0.0455
13029W        W31233  11.961  11.115  16.508 -0.0424 -0.1192 -0.1163
13030W        W31234  16.211   2.205  14.815 -0.0520  0.1019  0.0433
13031W        W31235   9.583  16.592  16.311 -0.4677 -0.1347 -0.0157
13032W        W31236  16.272  16.608   4.616 -0.2043 -0.0665  0.1987
13033W        W31237  11.524   4.446  13.983 -0.2101 -0.0727 -0.8811
13034W        W31238   1.660   8.600   2.970 -0.0009 -0.1560  0.3339
13035W        W31239   6.720   3.668   1.356 -0.0814  0.0828  0.0002
13036W        W31240  14.740  13.197  15.314  0.1854 -0.1654 -0.0645
13037W        W31241   7.662   4.012   2.939  0.0967  0.0733 -0.1787
13038W        W31242  16.255   8.396  13.219  0.1192  0.2660 -0.2991
13039W        W31243  12.002   9.492   1.184  0.2049 -0.2339 -0.0829
13040W        W31244   1.671   4.756  13.199 -0.2126  0.1528  0.0372
13041W        W31245  13.895   1.360  15.331 -0.0770 -0.4387 -0.1364
13042W        W31246  12.700   8.726   4.935 -0.0157 -0.2650 -0.0797
13043W        W31247  11.543   1.930   3.417  0.0065  0.3316 -0.0484
13044W        W31248   6.549  14.192  15.075  0.2965  0.1800 -0.0962
13045W        W31249  12.147  13.731  13.188  0.0311  0.1156 -0.0524
13046W        W31250   8.511   8.127  15.838 -0.1509 -0.1957  0.0814
13047W        W31251   0.082   2.045  16.809 -0.0423 -0.2867  0.2707
13048W        W31252  10.175   5.000  13.253  0.0723 -0.0863 -0.2494
13049W        W31253   8.758   9.661  12.376 -0.1713 -0.2204 -0.0777
13050W        W31254   7.892  16.361   3.022  0.0243  0.1790  0.0380
13051W        W31255  11.160  10.640  16.721 -0.2328 -0.0801 -0.0159
13052W        W31256   6.478   6.811   3.780  0.4399  0.1216 -0.4328
13053W        W31257  12.737   3.737  17.233  0.0232  0.2346  0.1859
13054W        W31258   8.226  15.328   2.347  0.4568  0.2487 -0.0880
13055W        W31259   7.818   0.940   0.003 -0.1354  0.3149  0.0795
13056W        W31260  14.383   6.564   3.752 -0.1268 -0.0655 -0.0805
13057W        W31261   7.926  10.714   2.508 -0.1976  0.0109  0.1060
13058W        W31262   1.870  12.530   1.677 -0.0469 -0.1463  0.2723
13059W        W31263   8.694  15.535   2.299  0.1870 -0.0866  0.0529
13060W        W31264  14.703   7.637  12.586  0.2888 -0.0062 -0.0392
13061W        W31265  11.515  11.883  17.413 -0.0453  0.1541  0.0669
13062W        W31266   3.214  12.881   2.208 -0.1404 -0.0928 -0.0375
13063W        W31267  15.504  13.430   1.305 -0.1299  0.2385 -0.0479
13064W        W31268   3.934  14.256  16.060 -0.0344 -0.0008  0.2713
13065W        W31269   6.024  15.835  12.129  0.1945  0.0213  0.2213
13066W        W31270   9.086  10.242   3.590 -0.1227 -0.1917  0.0591
13067W        W31271   2.316   9.268  12.915  0.3066 -0.0454 -0.2483
13068W        W31272   2.920   1.947   5.118 -0.2928  0.2662  0.1364
13069W        W31273  11.757  13.689  14.435 -0.0233  0.1583  0.0763
13070W        W31274  13.543  16.290  13.056 -0.1593  0.2346 -0.0207
13071W        W31275   6.699   9.244  17.465 -0.2870  0.0314  0.2731
13072W        W31276   9.064  11.136  17.292 -0.1485 -0.0076  0.1735
13073W        W31277  14.841   1.126  16.279 -0.4108 -0.2232 -0.0916
13074W        W31278   0.280   2.502  16.081  0.3669  0.2402 -0.1205
13075W        W31279  13.378   4.852   2.827 -0.1352 -0.0918  0.0580
13076W        W31280   8.832   3.762   4.368 -0.2293 -0.0995 -0.0671
13077W        W31281  11.607  11.760  13.240 -0.3038 -0.4804  0.0881
13078W        W31282   5.646   7.920   5.067  0.1470  0.0109 -0.1766
13079W        W31283   1.411   6.628   1.778  0.0726 -0.1995 -0.2021
13080W        W31284  11.517   7.001  15.553 -0.0774  0.6455  0.1043
13081W        W31285   7.304  14.338  12.448 -0.1980  0.2470  0.1288
13082W        W31286   8.446   9.409   3.628  0.2598 -0.2027 -0.0343
13083W        W31287   2.264   1.155  16.863 -0.0006  0.3752  0.0469
13084W        W31288   4.227   8.347  15.138  0.2865  0.0106  0.1337
13085W        W31289  13.004  11.109  11.338 -0.1224 -0.2299  0.3357
13086W        W31290  10.102   0.336   4.295  0.0007  0.1644 -0.0709
13087W        W31291   0.059   9.299  14.585 -0.2762 -0.0846  0.1073
13088W        W31292  13.623  12.547   3.445  0.0600 -0.1964 -0.0646
13089W        W31293  15.397   1.037   1.720  0.1948 -0.2130 -0.1985
13090W        W31294   4.363  10.980   3.959  0.1958  0.2481  0.2264
13091W        W31295  11.208   2.613   4.500 -0.1129  0.1020  0.2603
13092W        W31296   5.403   6.719   4.151 -0.0080  0.0314 -0.0536
13093W        W31297   2.654   3.883   2.090 -0.0170 -0.0718 -0.0601
13094W        W31298   4.083   0.491   1.763 -0.1906  0.0083  0.0300
13095W        W31299   2.630   0.115   1.992  0.0089  0.0235  0.2343
13096W        W31300  15.188   0.355   4.054 -0.1729 -0.1069 -0.0213
13097W        W31301   1.791  13.318  16.131  0.2109 -0.1773 -0.0340
13098W        W31302   0.195   1.597  13.783  0.2558 -0.1230  0.1994
13099W        W31303   0.682   0.302   1.383  0.0975  0.1825  0.3305
13100W        W31304   0.503   0.245   3.184 -0.0211  0.3421 -0.1140
13101W        W31305  17.127   3.871   4.037 -0.1082 -0.0481 -0.0664
13102W        W31306  14.292  13.714  14.808 -0.1372 -0.1722 -0.1037
13103W        W31307  14.786  15.337   2.095  0.0796  0.0061 -0.0736
13104W        W31308   8.543   1.783   4.231  0.2603  0.0701 -0.0797
13105W        W31309  10.837   3.991   2.597 -0.1138 -0.1793  0.0280
13106W        W31310  10.545   2.339  17.076 -0.1016  0.1190  0.0327
13107W        W31311   2.357   2.194   4.508  0.1463  0.2592  0.1378
13108W        W31312  16.893   2.375  12.911  0.2633  0.0037 -0.1072
13109W        W31313  11.454   4.960  14.308  0.0902 -0.0808  0.1380
13110W        W31314  12.246  10.875   4.600  0.0880 -0.1776  0.1014
13111W        W31315  15.368   4.087   0.565 -0.2683 -0.0539  0.1004
13112W        W31316   5.696  11.802  16.499 -0.0759 -0.0128  0.0379
13113W        W31317   5.928   3.929  13.644  0.2648 -0.1226 -0.1058
13114W        W31318  11.922  13.205  12.520 -0.0341 -0.0943  0.0608
13115W        W31319  16.321  10.188  17.411 -0.0378 -0.0585 -0.2507
13116W        W31320  14.718  12.642  16.376 -0.2393 -0.0349 -0.2575
13117W        W31321   6.866  16.111   3.059  0.0941 -0.0546  0.1671
13118W        W31322  15.151  10.101   5.461  0.0615 -0.0604 -0.0413
13119W        W31323  10.262  13.082   4.302  0.1176  0.0898 -0.1221
13120W        W31324   0.654  13.207  13.093  0.2035 -0.1733  0.1467
13121W        W31325   4.734   6.392  13.658 -0.3113 -0.0624 -0.0337
13122W        W31326   5.875   0.473  14.205  0.0635 -0.2131  0.0609
13123W        W31327   6.612   3.364  13.814 -0.0989 -0.2248  0.0688
13124W        W31328  14.316  10.997  15.235 -0.0645 -0.2610  0.1562
13125W        W31329  16.634   3.545  13.516  0.1998 -0.1395 -0.1571
13126W        W31330   3.297  14.547   2.170  0.0496  0.0532 -0.0895
13127W        W31331   7.742   5.802   3.646 -0.2156 -0.1027 -0.0353
13128W        W31332  16.683  10.674   3.602  0.0459  0.1191  0.1596
13129W        W31333   9.393   9.616  13.115  0.0063  0.1147 -0.1836
13130W        W31334   6.579   4.104  12.959 -0.1554  0.2481 -0.0114
13131W        W31335   9.009  16.500   0.284  0.0931 -0.1857  0.0197
13132W        W31336   6.798  10.860   4.898  0.2447 -0.2113 -0.0667
13133W        W31337  16.138  14.913   1.805 -0.1683  0.1792  0.0272
13134W        W31338   0.789   1.649   2.770 -0.1039  0.0100  0.0910
13135W        W31339  13.051   1.313  12.563 -0.2052  0.1230 -0.2438
13136W        W31340   7.904   0.321  14.787 -0.1232  0.2122 -0.0100
13137W        W31341   4.134  10.598   4.645 -0.0115  0.0487 -0.0551
13138W        W31342  12.579  11.454  14.188  0.0212  0.0010  0.0698
13139W        W31343  10.400   3.914  16.235  0.0721 -0.0369  0.0615
13140W        W31344  10.341  15.595  14.509  0.1801  0.1406 -0.0661
13141W        W31345   1.374   3.925   3.063  0.1896  0.1310  0.2094
13142W        W31346   3.547  16.045  13.351 -0.0412 -0.0328 -0.0671
13143W        W31347   6.429  12.136   0.514 -0.1431 -0.0780 -0.0832
13144W        W31348  16.818   0.893   1.589  0.2589  0.0615  0.1461
13145W        W31349  12.841   9.603   4.501 -0.0776 -0.1790  0.0255
13146W        W31350  13.647   3.385   4.296  0.0525 -0.0049  0.0239
13147W        W31351   7.721   0.758   3.308 -0.0841 -0.0834  0.2294
13148W        W31352  11.399   3.283   5.030 -0.1081  0.4586  0.1679
13149W        W31353   1.026  12.628   2.631  0.1494 -0.0177  0.2698
13150W        W31354   6.765  17.134  16.285  0.0691 -0.0130 -0.2021
13151W        W31355   5.308  13.301  17.462 -0.2726 -0.0554 -0.0255
13152W        W31356   6.409   5.330  13.042  0.0740  0.0889 -0.1723
13153W        W31357  16.394   6.781   0.422  0.1766 -0.1024 -0.2276
13154W        W31358   7.218   2.375   2.661  0.2096 -0.1736 -0.0814
13155W        W31359   2.355  13.604   3.808  0.0353  0.1738 -0.1241
13156W        W31360  15.404   0.314  15.279 -0.1954  0.1871  0.1017
13157W        W31361  10.281  11.138  17.034 -0.2260 -0.0249  0.2183
13158W        W31362   3.168  12.042   2.208  0.1673  0.0576  0.1032
13159W        W31363   7.200  14.355   3.595 -0.2093  0.1044  0.0703
13160W        W31364  16.918  12.740  12.873  0.2272  0.0582  0.2736
13161W        W31365   4.428   7.693  16.304 -0.5090 -0.5130 -0.0370
13162W        W31366   5.183   5.408   3.018  0.1382 -0.0173 -0.3565
13163W        W31367   9.142  16.168   2.328 -0.0491  0.0691 -0.1418
13164W        W31368  14.944  11.246  17.282 -0.2617 -0.1492  0.0951
13165W        W31369  17.199   0.782   3.329 -0.0144 -0.0410 -0.0824
13166W        W31370  11.013   1.899   0.078  0.2658  0.0419  0.0402
13167W        W31371   6.535   3.061   0.545 -0.2349  0.0557 -0.1548
13168W        W31372   7.818   4.949  12.820  0.0823 -0.0604  0.2658
13169W        W31373  16.437   5.683   3.283  0.0446  0.1704 -0.0625
13170W        W31374   5.132  13.367   4.929  0.1711  0.0188  0.2021
13171W        W31375   6.388   8.122   5.523 -0.0534  0.1593  0.0783
13172W        W31376   7.264  16.075   3.611 -0.3796 -0.1879 -0.2651
13173W        W31377  11.196   5.868  12.548 -0.0589 -0.3811  0.0307
13174W        W31378  15.410   4.960  17.511 -0.1297  0.1862  0.0398
13175W        W31379  11.969  12.446  15.643  0.2941  0.0127  0.2546
13176W        W31380  15.666   2.355   0.133 -0.0222  0.2004  0.0745
13177W        W31381  11.633   5.863  13.123 -0.0714 -0.1510  0.1602
13178W        W31382   2.797   2.152  16.448  0.3077  0.2848  0.1264
13179W        W31383  13.166   6.604   5.166 -0.0210  0.1416  0.1175
13180W        W31384   1.327   8.593   2.543 -0.2039 -0.1255  0.1542
13181W        W31385   6.416  14.541  13.965 -0.2568  0.1706 -0.2568
13182W        W31386   0.321   1.512   6.512 -0.0070 -0.1645  0.0294
13183W        W31387   8.724  14.529  16.017  0.3285 -0.0243 -0.2297
13184W        W31388  14.188   9.101  16.443  0.2986  0.1084 -0.3615
13185W        W31389  12.230   1.964  14.672 -0.0512  0.1498  0.4820
13186W        W31390  10.402   0.248   6.447  0.2987  0.0511  0.0200
13187W        W31391   9.471   0.181  13.940 -0.0243 -0.3364 -0.4631
13188W        W31392   9.281   4.674  16.277  0.2739  0.0688 -0.1007
13189W        W31393   7.323  13.429  17.500  0.0046 -0.1564 -0.1534
13190W        W31394   7.018   4.332   5.028 -0.0332 -0.1039 -0.1172
13191W        W31395   5.164   3.335   4.312 -0.2012 -0.0765 -0.0114
13192W        W31396   6.080   0.512   1.379  0.1447 -0.1194  0.1150
13193W        W31397   8.615   6.524   1.351  0.1892  0.2005 -0.0185
13194W        W31398   9.706   2.341   4.327 -0.2137 -0.0151  0.2475
13195W        W31399  16.978   4.727  15.838  0.1894 -0.0019  0.1562
13196W        W31400   4.836   3.315   3.562  0.2392 -0.3154  0.3104
13197W        W31401  14.337   3.420   3.684 -0.0246 -0.0017  0.1303
13198W        W31402   7.370   7.959  10.758  0.1363 -0.2854 -0.0159
13199W        W31403   0.944   8.231   1.102  0.0544  0.0141  0.0210
13200W        W31404   1.062  10.428   1.578  0.1888 -0.0714  0.0176
13201W        W31405  11.407  11.280   2.189 -0.2161 -0.1214  0.0595
13202W        W31406  16.598  12.532  15.034 -0.2597 -0.1200  0.0182
13203W        W31407  11.540   6.593  13.533  0.1517 -0.5643  0.3426
13204W        W31408   3.592  14.397   0.651 -0.0652  0.0609 -0.1930
13205W        W31409  13.667   6.407  14.507  0.1222  0.1344  0.0567
13206W        W31410   6.772  12.736  14.183  0.0364  0.1492 -0.0898
13207W        W31411   0.962   7.646  13.107  0.1222 -0.1596 -0.1325
13208W        W31412   9.167   6.422   0.381  0.0823 -0.2390 -0.1054
13209W        W31413   0.854   7.310  15.782 -0.0071  0.1640  0.0953
13210W        W31414   9.726  12.267   3.941  0.1591  0.1121  0.3217
13211W        W31415  12.272   2.368   5.234  0.0991 -0.2109 -0.0159
13212W        W31416   3.181   4.710  12.283  0.0703 -0.1792 -0.1782
13213W        W31417   9.132   6.170  16.554 -0.1409 -0.0670 -0.0167
13214W        W31418   0.192  15.255   1.215  0.0061 -0.1911  0.3520
13215W        W31419   6.097  15.059   1.826  0.1561  0.1597 -0.1236
13216W        W31420  11.689   8.793  16.768 -0.2421 -0.3589 -0.1293
13217W        W31421   9.328  16.047  12.306 -0.1008  0.2653 -0.1492
13218W        W31422  14.430   0.917  13.504 -0.3583 -0.1428  0.0103
13219W        W31423   3.315   8.757   4.794 -0.3631  0.0255 -0.1275
13220W        W31424  11.131  16.711  15.046 -0.0885  0.1834  0.0539
13221W        W31425  11.160  10.112  16.025 -0.1064 -0.0096 -0.3123
13222W        W31426   0.615  14.284  14.434  0.2164 -0.2925  0.0529
13223W        W31427   6.952  16.967  14.961  0.1276 -0.1115 -0.0683
13224W        W31428   7.587   6.558  16.400  0.1873 -0.0155 -0.0282
13225W        W31429  13.524   7.742  13.159 -0.1768  0.3010  0.2900
13226W        W31430  16.611   5.412   0.357 -0.1343 -0.1408  0.2532
13227W        W31431  10.779   6.521  12.825 -0.2693  0.0319 -0.1712
13228W        W31432   6.262   3.785   1.596  0.2707  0.1328 -0.2089
13229W        W31433   7.387   3.764  13.406 -0.5720 -0.0947  0.0526
13230W        W31434   5.424   3.701   1.461  0.2482  0.0394 -0.0745
13231W        W31435   6.529  10.050  12.859  0.1928  0.1691 -0.0299
13232W        W31436  10.818   0.315  13.564  0.1833 -0.0528 -0.1804
13233W        W31437  10.350   3.092  16.234  0.1517  0.1945 -0.3487
13234W        W31438   3.756   2.757  16.362 -0.1248 -0.0393  0.0878
13235W        W31439   3.132  13.154   0.495  0.1975 -0.4385  0.2293
13236W        W31440  10.804  11.987   6.102  0.3138  0.1893 -0.0039
13237W        W31441  16.404   0.360  14.321  0.0858  0.0993 -0.2614
13238W        W31442   7.647   6.949   3.306  0.1455  0.0745 -0.0312
13239W        W31443   8.590  15.065   1.531  0.0899 -0.0276  0.0385
13240W        W31444  16.408   3.102   2.058 -0.0125  0.1623 -0.1994
13241W        W31445   7.228  14.932  12.534 -0.0523 -0.1575 -0.1456
13242W        W31446  11.302  10.289  14.156 -0.0941 -0.0512  0.1481
13243W        W31447  13.942  12.123  14.098 -0.2424  0.2309 -0.1308
13244W        W31448   3.351  14.982   1.237  0.2915  0.0752 -0.3083
13245W        W31449   2.072  13.080  11.440  0.0840 -0.0655 -0.1576
13246W        W31450  16.144   7.409   1.700  0.3717  0.1624  0.1414
13247W        W31451   3.244   1.332  12.926 -0.1807 -0.1642 -0.2424
13248W        W31452  12.322   9.477   4.265  0.0757  0.0626 -0.0846
13249W        W31453   8.425  15.590  12.622  0.0408 -0.4296  0.2450
13250W        W31454   3.699   6.094  12.670  0.2204  0.0990 -0.1381
13251W        W31455  14.608   7.706  14.622 -0.2716  0.0629 -0.1136
13252W        W31456   1.410   7.409   2.503  0.4200 -0.1588 -0.1896
13253W        W31457  15.509   3.350   2.436  0.0790 -0.3939  0.0848
13254W        W31458   5.591   5.397   4.655  0.0478  0.0995  0.2487
13255W        W31459   4.449  16.405  13.554 -0.0851  0.2769 -0.0213
13256W        W31460   3.910  17.220  16.022  0.3900 -0.1001 -0.2504
13257W        W31461   4.220  15.166  16.304 -0.1213 -0.1157 -0.0442
13258W        W31462   9.026  12.253   1.403 -0.0269 -0.0764 -0.1319
13259W        W31463   3.736   4.025   2.217  0.1182  0.0508 -0.0259
13260W        W31464  11.303  11.322   5.392 -0.0978 -0.1760 -0.1147
13261W        W31465   0.012  17.302  16.269 -0.0238  0.1392  0.1409
13262W        W31466   2.398   8.027  12.854 -0.1656  0.0856  0.0829
13263W        W31467   5.972  14.833  17.215 -0.0093 -0.0654  0.1374
13264W        W31468   3.353  13.763   3.546 -0.1004  0.1258 -0.0447
13265W        W31469  15.697  15.809  15.607  0.2033  0.0444  0.2286
13266W        W31470   2.015   6.603   1.019 -0.0586  0.3471  0.0876
13267W        W31471  14.690  15.845  15.627 -0.1341  0.0612  0.2210
13268W        W31472   9.786  12.443   3.480 -0.2414  0.1381  0.1840
13269W        W31473   3.460  10.035   2.896  0.1843 -0.0638  0.1018
13270W        W31474   5.243   7.972   0.452  0.1593 -0.1745 -0.0521
13271W        W31475  16.003  10.742   0.577  0.0977  0.0029  0.2009
13272W        W31476  14.853  14.110   3.902  0.0057 -0.1222 -0.1143
13273W        W31477   2.177   8.232  16.028  0.0101  0.2294  0.0179
13274W        W31478  11.316   0.396   4.568 -0.1356  0.2105 -0.0833
13275W        W31479   1.931   5.570  16.515  0.1298  0.1292  0.0209
13276W        W31480   4.298   5.176   1.305 -0.0190  0.0120  0.1278
13277W        W31481  13.715   1.505   2.996 -0.0111 -0.0352 -0.0858
13278W        W31482   9.352   9.933  15.302  0.3615 -0.2001  0.3296
13279W        W31483   9.944  14.324   0.912  0.0647  0.3044  0.2203
13280W        W31484   9.903  15.211   2.821 -0.2151 -0.0097 -0.0853
13281W        W31485  14.357  11.833  14.721 -0.2620 -0.3394 -0.0258
13282W        W31486   8.614   1.716   3.278 -0.2063 -0.1808  0.3447
13283W        W31487  10.865  17.120  13.585  0.0872 -0.2713 -0.2545
13284W        W31488   9.818   3.594   3.366  0.0679 -0.1364  0.2678
13285W        W31489   7.980  16.564  14.912  0.1151  0.0893 -0.0637
13286W        W31490  12.438  12.386  15.754  0.0424  0.3907  0.2156
13287W        W31491   9.829   1.619  15.448  0.3056 -0.1840  0.1460
13288W        W31492  14.163   6.327  12.207 -0.1191 -0.1178 -0.2170
13289W        W31493  10.120  10.295  12.360 -0.0523  0.4569 -0.0727
13290W        W31494  11.782  13.226   4.232 -0.0672 -0.0550  0.0287
13291W        W31495  10.720  13.425  16.769  0.2686  0.0485 -0.3479
13292W        W31496  13.522   6.009  14.207  0.2724 -0.0164 -0.2929
13293W        W31497   8.443   5.408  13.759  0.0953 -0.0855  0.1377
13294W        W31498  13.636   2.287   4.915  0.0369  0.4226  0.1179
13295W        W31499  14.364   9.462   1.479 -0.0179  0.0593  0.0754
13296W        W31500  11.406   5.975  16.054 -0.1322 -0.4766 -0.1424
13297W        W31501  13.598   6.071  17.178  0.0008  0.4603 -0.0633
13298W        W31502  14.779  12.421  16.869 -0.1292 -0.1574 -0.5074
13299W        W31503  16.551   8.185   4.702  0.3266 -0.1481 -0.3138
13300W        W31504  12.526   3.117  17.401 -0.0295  0.1807 -0.1984
13301W        W31505   0.991   8.024   0.211 -0.0492  0.0352 -0.0782
13302W        W31506  11.593  12.428   0.809  0.1965 -0.1323  0.0558
13303W        W31507  10.673   1.459   5.219 -0.0295 -0.0139 -0.0446
13304W        W31508  14.155  15.546   1.131 -0.3310 -0.0885  0.1373
13305W        W31509  16.622   3.283  16.691 -0.0846  0.0637  0.0883
13306W        W31510   2.776   4.092  12.876  0.0632  0.1946 -0.2308
13307W        W31511   5.259  13.159  15.856  0.1070  0.0853  0.0788
13308W        W31512  10.912  14.300  12.363  0.0326  0.0254  0.0239
13309W        W31513  12.538  10.397  13.510  0.1156 -0.0328  0.1629
13310W        W31514   2.609  16.845   0.085  0.0894  0.2937 -0.0226
13311W        W31515  12.184  10.176  15.780  0.5095 -0.2362 -0.1681
13312W        W31516  15.799   5.599  13.484  0.2919 -0.1508 -0.1753
13313W        W31517  13.319   0.507   3.488  0.1929 -0.1944  0.1239
13314W        W31518   0.711   7.600  12.318 -0.2168  0.1049 -0.3100
13315W        W31519  14.385   5.554  13.677 -0.0600  0.1347  0.4729
13316W        W31520   6.084  10.281   2.512 -0.0095  0.0143  0.1435
13317W        W31521   6.056  15.319   4.112 -0.3934 -0.0036  0.0256
13318W        W31522  13.237   8.836  12.367  0.0920  0.1354  0.0253
13319W        W31523  17.126  12.543  15.218  0.0080  0.1935 -0.2045
13320W        W31524   1.427  10.840   3.540 -0.1073 -0.0949 -0.1515
13321W        W31525   7.598   2.053   1.638  0.4899 -0.2831  0.1160
13322W        W31526   3.411   8.775  14.691 -0.2540  0.2003 -0.0180
13323W        W31527  16.427  14.669  14.030  0.2353  0.1386 -0.1548
13324W        W31528  17.231  16.566  17.207 -0.0431  0.0189  0.1289
13325W        W31529   5.892  15.653  15.523  0.0344 -0.0365  0.2471
13326W        W31530  11.390   1.954   3.904  0.3193 -0.0393 -0.1931
13327W        W31531  10.500   4.784   1.592  0.2550  0.1729  0.0836
13328W        W31532  17.173   6.839   1.071  0.0261  0.0755  0.0220
13329W        W31533   9.333  10.548   0.582  0.0346 -0.1013 -0.2878
13330W        W31534   1.544   1.068   3.530 -0.2008  0.1343  0.1063
13331W        W31535  10.388  14.755   1.053  0.0648  0.0434 -0.1089
13332W        W31536   8.007   9.076   4.856 -0.2100  0.0112 -0.1060
13333W        W31537   5.363  13.779   4.007 -0.0244  0.1092  0.0339
13334W        W31538  17.103   1.789  13.568  0.1451 -0.1141  0.3924
13335W        W31539  16.398   9.050   1.002 -0.0656 -0.0279 -0.0252
13336W        W31540   2.706  10.737  15.279  0.0176  0.1963 -0.1691
13337W        W31541   7.856   7.852  11.290 -0.0633 -0.1956  0.0094
13338W        W31542   4.152  11.948   4.263  0.1167 -0.2337  0.0858
13339W        W31543   2.561  10.871   3.828 -0.0405  0.0477  0.0752
13340W        W31544  15.201   5.530   3.115 -0.0069 -0.3701  0.0851
13341W        W31545  10.254  11.477   0.392 -0.3590  0.0175 -0.0760
13342W        W31546   1.389  11.224  15.418 -0.0677 -0.0649 -0.0181
13343W        W31547   4.568   9.487   1.457  0.1064 -0.0993  0.1324
13344W        W31548   7.602  17.247   2.111 -0.0125 -0.0486 -0.3272
13345W        W31549   8.891   7.622  16.103 -0.0625  0.1013  0.1081
13346W        W31550   5.145   6.026  16.548  0.3653  0.2521  0.4181
13347W        W31551   1.079   4.015   0.926 -0.0624  0.2911 -0.2810
13348W        W31552   9.649   8.099   1.696  0.0698  0.0741 -0.3634
13349W        W31553  13.593   9.730   4.015  0.2598  0.0843 -0.0335
13350W        W31554   6.222  14.683   4.720  0.0783  0.0807  0.0595
13351W        W31555   7.436   6.746  17.438 -0.2316 -0.2193 -0.2773
13352W        W31556  12.985  15.287   0.569 -0.0062  0.1108 -0.0131
13353W        W31557   3.248   8.879  14.252  0.0157  0.1244  0.4158
13354W        W31558  13.325   2.786   4.458 -0.2965  0.0909 -0.0882
13355W        W31559   1.460   0.314  12.451 -0.4136 -0.0993  0.1117
13356W        W31560   9.387   9.931   5.554 -0.3408  0.0306 -0.0569
13357W        W31561  16.117   4.527  12.652  0.0351 -0.0287 -0.0087
13358W        W31562   5.673   2.205   4.357  0.0367  0.0395 -0.3055
13359W        W31563  11.768   1.450  17.170  0.1380 -0.0765 -0.0291
13360W        W31564  14.988   2.478   1.642 -0.1494  0.0100  0.1534
13361W        W31565   4.526   5.485  15.751 -0.0721  0.0733 -0.3117
13362W        W31566   0.960  16.396  15.869  0.1866  0.1147  0.2175
13363W        W31567  16.790   8.944  14.090 -0.0160 -0.1808  0.1047
13364W        W31568   6.206  16.539  17.439  0.0671  0.0816 -0.1941
13365W        W31569  16.421  11.582  12.933  0.1090  0.1625 -0.0345
13366W        W31570   0.358  11.094   2.391 -0.1124  0.2358  0.0396
13367W        W31571   9.522   4.719  14.087  0.0685 -0.0255 -0.3984
13368W        W31572  13.518  14.287  14.718 -0.0708  0.0480  0.0450
13369W        W31573   7.686   9.541   1.597  0.0017 -0.1406 -0.1759
13370W        W31574  11.631  14.080  17.058 -0.0197  0.1750  0.0382
13371W        W31575   8.381  13.402   1.797 -0.2091  0.0692  0.2621
13372W        W31576   2.860   0.580  15.751 -0.1373 -0.2067 -0.1807
13373W        W31577   2.618  12.662  13.186 -0.3215  0.0747  0.1387
13374W        W31578   1.262  14.632   4.708  0.0074  0.0891 -0.0238
13375W        W31579   6.699  15.207   0.307 -0.0867 -0.3140  0.0836
13376W        W31580  14.868  14.251   5.686 -0.0341 -0.1372 -0.0775
13377W        W31581   4.174   6.134   1.949 -0.1181 -0.1646  0.0899
13378W        W31582  16.873   0.890   2.568  0.2725  0.0193  0.2983
13379W        W31583   9.819   4.620   3.471  0.1538  0.1185  0.2009
13380W        W31584  14.273   1.875   2.741  0.2758 -0.1117 -0.1512
13381W        W31585  14.885  12.707   2.618 -0.1868 -0.2663 -0.0156
13382W        W31586  10.174   8.736  16.090 -0.0389  0.2644 -0.1852
13383W        W31587  10.661   0.207  13.997 -0.0820 -0.2009 -0.0230
13384W        W31588   2.755   5.112   2.480 -0.0037  0.1546  0.1131
13385W        W31589  14.514   3.493   3.216 -0.0274 -0.0176 -0.0325
13386W        W31590  11.644   1.667   5.227  0.1158  0.1427 -0.0297
13387W        W31591   8.770   8.804  16.493 -0.1647 -0.1678 -0.1691
13388W        W31592   1.634   6.026   1.016 -0.2067 -0.3380  0.0159
13389W        W31593  15.122   3.975   3.908 -0.1408 -0.0583  0.3363
13390W        W31594   6.664   8.676   5.294 -0.3522 -0.0674  0.2180
13391W        W31595  13.577   6.416  15.607 -0.2857  0.0582 -0.0160
13392W        W31596  15.828  16.220  15.306  0.0861 -0.1694  0.2898
13393W        W31597  16.312   8.768  14.920 -0.3403 -0.0710 -0.2470
13394W        W31598  16.828   4.358   5.259  0.0396  0.1122 -0.1186
13395W        W31599   2.022  10.079   0.671  0.0361  0.0369 -0.1894
13396W        W31600  16.547   8.857  13.394 -0.2255  0.1324  0.1539
13397W        W31601   8.896   4.252   5.333 -0.0152 -0.1009 -0.0960
13398W        W31602   6.201   8.473   2.550 -0.2035 -0.1156 -0.0510
13399W        W31603  12.050  12.700  12.352 -0.0593 -0.1278  0.1521
13400W        W31604  15.182   1.673   3.682  0.2521 -0.1518  0.1533
13401W        W31605   8.958  12.398   2.973 -0.1419  0.1159  0.0342
13402W        W31606  13.355   1.785   1.316  0.4931  0.1344  0.0851
13403W        W31607  16.699   7.128  15.666  0.2348 -0.1705  0.1508
13404W        W31608   6.380   4.904  12.294  0.0973 -0.1435  0.1270
13405W        W31609   4.925  16.198   3.400  0.1962 -0.2240  0.1412
13406W        W31610  15.032   9.253  16.730 -0.4748 -0.0226 -0.1433
13407W        W31611   8.000   8.622   2.255  0.1285  0.2018  0.2979
13408W        W31612   6.815   3.355  17.035 -0.0042  0.3467  0.0271
13409W        W31613   1.698   2.745  16.674  0.0208  0.0766  0.0646
13410W        W31614   1.632  15.357   2.792 -0.0317  0.0048  0.1910
13411W        W31615  11.936   4.690  17.442  0.2321 -0.1865 -0.0053
13412W        W31616  11.683  10.023   2.683 -0.0453  0.3428 -0.0982
13413W        W31617   2.142  11.636  14.378 -0.1978 -0.0436 -0.2289
13414W        W31618  13.069   1.730  17.451 -0.1679  0.0499  0.1599
13415W        W31619  12.089  14.914  16.796 -0.1134 -0.5180  0.0326
13416W        W31620   6.098  13.919  12.336  0.1997 -0.1971 -0.0916
13417W        W31621   1.225  11.750   3.934 -0.0767 -0.2137  0.0073
13418W        W31622   1.488   9.807  13.616 -0.0001 -0.1477 -0.1790
13419W        W31623  11.180  10.726  14.378  0.0481  0.1181  0.0371
13420W        W31624   7.211   5.163   5.214  0.2056  0.0912  0.0552
13421W        W31625  15.588   3.257   1.906 -0.0299 -0.0711 -0.0416
13422W        W31626   5.022   9.718  14.042  0.0445  0.2097 -0.2921
13423W        W31627   4.607   7.405  12.144 -0.0855 -0.1894 -0.1535
13424W        W31628  12.641  12.770   3.403  0.1530 -0.0883 -0.2025
13425W        W31629   2.615   4.395   2.174 -0.2346  0.0142  0.1523
13426W        W31630   9.570  13.573   0.941 -0.1774  0.0216  0.0183
13427W        W31631  11.703  14.362   3.673 -0.4090 -0.0756 -0.0676
13428W        W31632   4.189   9.477   0.016 -0.2574  0.1019 -0.0906
13429W        W31633  10.318  15.088  16.964  0.0866  0.0343  0.3190
13430W        W31634  11.741  15.862  16.475  0.0548  0.0772 -0.1051
13431W        W31635   5.134  12.862  12.089  0.1211  0.2947 -0.0683
13432W        W31636  10.937   7.035   0.959 -0.1422  0.0598 -0.1175
13433W        W31637  12.654  16.583   0.574  0.2226 -0.0663  0.0362
13434W        W31638   6.371   7.968   1.851 -0.1934 -0.0583  0.1530
13435W        W31639  17.253  11.316   0.210 -0.1883  0.0396 -0.1901
13436W        W31640   5.327   7.511  17.073 -0.2667  0.1763 -0.0791
13437W        W31641  16.067  13.598   1.765  0.3535 -0.2061 -0.1243
13438W        W31642   4.819  11.694  14.983  0.1678  0.1605 -0.0255
13439W        W31643  13.832  14.057   3.595 -0.1178  0.0061  0.0504
13440W        W31644  14.480  16.849  16.287  0.0026 -0.0251 -0.1349
13441W        W31645  15.811   8.550   0.889  0.2219 -0.1341 -0.1791
13442W        W31646  10.793  12.197  17.398  0.1073 -0.0295 -0.4910
13443W        W31647   4.215   5.020   0.801  0.1207 -0.0402 -0.1837
13444W        W31648   3.363  16.552  13.324 -0.0877 -0.3287 -0.0014
13445W        W31649   5.093   4.596  12.129 -0.1641 -0.0298 -0.1039
13446W        W31650  13.206  16.802  15.262 -0.0803 -0.0858 -0.1810
13447W        W31651   5.007   4.264   5.122  0.0010  0.2001 -0.0449
13448W        W31652  10.163   0.868   0.817 -0.3368 -0.1550  0.0970
13449W        W31653  11.068   6.748  13.645 -0.0105  0.1175 -0.2120
13450W        W31654  15.580   4.068  15.295 -0.0744 -0.0533 -0.3665
13451W        W31655   2.538   7.516  14.268  0.1586 -0.2903 -0.0558
13452W        W31656   8.544   0.860  12.158  0.1039  0.1934 -0.2453
13453W        W31657   4.910   9.943   4.614  0.0095 -0.0062 -0.1631
13454W        W31658  15.282   4.933  13.277  0.0575 -0.1235  0.1805
13455W        W31659  17.109  13.475   4.327 -0.0975 -0.3175 -0.1682
13456W        W31660  12.900   9.337  15.576 -0.1660 -0.4554  0.0281
13457W        W31661   5.219   0.888  17.304 -0.0644  0.0978  0.0713
13458W        W31662  13.537   7.591   3.498  0.4264  0.1258  0.1977
13459W        W31663  14.785   9.345  15.474  0.0776  0.0586  0.2352
13460W        W31664   9.994   6.198   2.962 -0.3752  0.0167 -0.1434
13461W        W31665  12.789  10.825   2.399 -0.0317  0.0294  0.0069
13462W        W31666  11.800   7.338   3.772  0.1941 -0.1262 -0.0170
13463W        W31667   1.405   8.540  12.694 -0.1870  0.3110 -0.2546
13464W        W31668   5.382  13.578   5.313  0.2265  0.3920 -0.1733
13465W        W31669   3.644   7.278  16.218  0.2229 -0.1526 -0.0191
13466W        W31670   9.001   3.024   5.230  0.1706  0.0684  0.0797
13467W        W31671  14.976  14.616   3.735  0.1751  0.0493  0.0293
13468W        W31672   6.290   2.142  15.579 -0.0196 -0.1953  0.0813
13469W        W31673  16.340   7.109   3.379  0.0712  0.1310 -0.0071
13470W        W31674   8.374   2.718   0.631  0.2507  0.3254 -0.1043
13471W        W31675  13.346   2.338   1.168 -0.2831 -0.2840 -0.0687
13472W        W31676   0.507   9.325  12.866 -0.0231 -0.0309  0.1888
13473W        W31677   0.872   2.805   1.879 -0.3771  0.1257 -0.0198
13474W        W31678   0.883  11.273  15.326 -0.0150 -0.1074  0.1074
13475W        W31679   9.710   1.602  17.108  0.1365  0.3461  0.0864
13476W        W31680  14.612  15.046  17.384  0.0690 -0.2288 -0.1218
13477W        W31681  16.169   5.219   0.018  0.0448  0.4926 -0.3699
13478W        W31682  11.901   7.031  14.524 -0.0244  0.4515 -0.1732
13479W        W31683  10.213   4.210  15.441 -0.1361  0.0938 -0.0062
13480W        W31684   3.029   7.399  14.461 -0.1501 -0.1475  0.0368
13481W        W31685  14.643   4.842   3.184  0.2408 -0.2183  0.1548
13482W        W31686  16.964  10.259   2.975 -0.1612 -0.1379  0.1338
13483W        W31687   5.201  11.702  13.218  0.2233 -0.2828 -0.4391
13484W        W31688   9.262   7.349  16.300  0.0729 -0.1397 -0.1127
13485W        W31689  10.513   5.774   4.544 -0.1086  0.0189 -0.1057
13486W        W31690  14.452  10.062  15.115 -0.3129  0.4487 -0.1618
13487W        W31691  15.733   3.786   4.272  0.1778 -0.2572 -0.2020
13488W        W31692   8.178   7.517   2.634  0.3244  0.0383  0.0623
13489W        W31693  11.012   5.217  13.717 -0.5121  0.2592 -0.0152
13490W        W31694   2.456   1.821   3.540  0.1603 -0.2579  0.1179
13491W        W31695  14.866   5.651   5.316  0.3978 -0.1717  0.2395
13492W        W31696   8.366  17.257  13.108  0.2259 -0.2845 -0.0532
13493W        W31697  14.839  13.162  14.252  0.1951 -0.2541  0.2743
13494W        W31698   4.406  14.550  11.440  0.2374  0.1477  0.2799
13495W        W31699   8.520   5.637   1.977  0.0347 -0.2725 -0.2040
13496W        W31700  14.808   7.193   1.607  0.1914 -0.1021 -0.0954
13497W        W31701  10.931  14.018  12.944  0.0814 -0.1155 -0.0461
13498W        W31702   7.746   3.040  17.453  0.1569 -0.1978  0.2933
13499W        W31703  12.561   3.234   3.669 -0.0061  0.0998 -0.0558
13500W        W31704   7.328   8.110  16.634  0.1811  0.0660 -0.2565
13501W        W31705   5.851   0.568  14.883  0.0542  0.2081  0.0666
13502W        W31706   4.640   9.560  16.286  0.3368  0.0084  0.1221
13503W        W31707   0.155  13.539   5.917  0.0097 -0.2349  0.0235
13504W        W31708  11.219  11.877   4.793 -0.0499 -0.2113 -0.0271
13505W        W31709   9.785   9.496  15.743  0.2394  0.0013  0.2955
13506W        W31710   4.396   6.045  13.322  0.0510  0.1670  0.0244
13507W        W31711   8.895  11.484   3.208  0.1812  0.2829  0.0080
13508W        W31712   6.960   8.344  16.306  0.1161  0.0220 -0.1331
13509W        W31713  10.765  16.082  14.416  0.1948  0.3341  0.2905
13510W        W31714  11.730   3.385  12.762 -0.2964 -0.0801 -0.0714
13511W        W31715   0.704  15.639  12.303  0.0268 -0.2028 -0.1640
13512W        W31716  12.738   8.639   0.545  0.2966 -0.2246  0.0284
13513W        W31717  11.790  10.299  12.251  0.1191  0.2148 -0.0583
13514W        W31718   1.822   5.236  13.357 -0.0929 -0.2556  0.0128
13515W        W31719   3.538   6.827  12.030 -0.0818 -0.0406  0.0525
13516W        W31720  10.650  13.555   0.219  0.2198 -0.0148 -0.0371
13517W        W31721  12.397   4.206  15.300 -0.0881  0.0160  0.1485
13518W        W31722   6.517  12.796  12.962  0.1460  0.3175  0.2898
13519W        W31723   9.183   1.535  14.027 -0.0851 -0.3141 -0.0279
13520W        W31724  12.854   0.763   3.310 -0.1496  0.0451  0.2880
13521W        W31725  16.397   4.103   4.512  0.1838  0.2488  0.4624
13522W        W31726  10.529   1.087   4.466 -0.1258  0.1194 -0.1406
13523W        W31727  15.049   2.831   3.139  0.0835  0.2021 -0.0282
13524W        W31728   9.623   5.462   4.388  0.0031  0.1428  0.0619
13525W        W31729  16.041   4.694   1.793  0.0704  0.1431  0.1475
13526W        W31730  10.012   1.464   1.631 -0.2104 -0.1713  0.0840
13527W        W31731  12.747   4.774   3.902 -0.0642 -0.1824  0.0200
13528W        W31732   1.582  13.412   1.056  0.0128  0.0593 -0.1244
13529W        W31733  10.345   8.397   3.726 -0.2562 -0.1916  0.0830
13530W        W31734  13.447  12.246   0.092 -0.1280 -0.1012  0.3179
13531W        W31735  14.673   1.224   6.574 -0.3547  0.0718 -0.0193
13532W        W31736   4.979  12.157  14.664 -0.0722  0.0166  0.3252
13533W        W31737   6.893  13.110  15.616  0.2149  0.0264  0.0666
13534W        W31738   9.880  13.311   3.987 -0.1143  0.1392  0.3043
13535W        W31739  11.350  12.223   4.120  0.2380 -0.1879 -0.0410
13536W        W31740   9.015   8.365   0.003 -0.0570 -0.1927 -0.1005
13537W        W31741  14.534   5.193   0.021 -0.0752 -0.1772 -0.1846
13538W        W31742   8.200  15.851   2.118  0.2979 -0.1250 -0.2654
13539W        W31743   1.766  14.410  15.629  0.2081 -0.0983 -0.0730
13540W        W31744   2.329  14.591   3.867  0.1143 -0.0718 -0.0668
13541W        W31745  12.351   8.518  15.389 -0.3171  0.0101  0.3059
13542W        W31746  13.916   4.543  15.781 -0.0039  0.0646  0.1268
13543W        W31747  10.657  13.059   1.237  0.0365  0.1728  0.1343
13544W        W31748   1.223   9.099  15.964  0.1867 -0.1283  0.2075
13545W        W31749   3.255  13.082  14.785  0.1215 -0.3065 -0.0219
13546W        W31750  10.697   8.521  13.147 -0.4328  0.1604 -0.1133
13547W        W31751   8.148  13.997  11.996 -0.0416  0.3261 -0.1878
13548W        W31752   4.381   5.725  16.198  0.2793  0.2578  0.1288
13549W        W31753   8.923  12.884  15.657  0.1457 -0.1961 -0.1282
13550W        W31754  13.229   7.442  12.648 -0.0677 -0.2125 -0.1139
13551W        W31755   1.134   3.470  16.709 -0.0236  0.1596  0.0355
13552W        W31756   0.226   8.984   3.325  0.0156 -0.0793  0.0209
13553W        W31757   1.559   7.694  12.320 -0.1512  0.1817 -0.2612
13554W        W31758   6.106  12.124  15.679  0.0597  0.0210  0.1692
13555W        W31759   6.394   4.870  12.814  0.0598  0.0602 -0.0224
13556W        W31760  11.248   7.720  13.566  0.1816  0.0670  0.1058
13557W        W31761  14.022  14.782   1.657  0.0287  0.0233  0.0740
13558W        W31762   3.502  16.484  12.249 -0.1299 -0.0490 -0.2767
13559W        W31763  12.801   3.999  15.213  0.3052  0.1980  0.2315
13560W        W31764   5.071   7.420   0.942  0.1847 -0.0906  0.0504
13561W        W31765   2.400  10.017   1.985 -0.0415 -0.2465  0.0151
13562W        W31766  13.613   1.251   4.825  0.2177  0.0219  0.0271
13563W        W31767  11.155  10.688  16.230  0.1492  0.2447 -0.2077
13564W        W31768  11.603  15.657  17.082  0.1867  0.2661 -0.0731
13565W        W31769  13.641   3.909   1.803  0.5069 -0.0068  0.1799
13566W        W31770   5.444   8.188   4.713 -0.1773  0.0559  0.0803
13567W        W31771  12.397   1.830  16.703 -0.0861  0.0565  0.2173
13568W        W31772   2.997   9.161   4.887  0.0416 -0.1988 -0.0676
13569W        W31773  15.386   8.789   0.663  0.2120  0.2061  0.1500
13570W        W31774  12.581   7.470  13.448  0.2620 -0.0820  0.2497
13571W        W31775  14.229  11.811  15.736  0.1330  0.0619  0.0048
13572W        W31776  13.339   2.550   3.947 -0.0995 -0.0412  0.1417
13573W        W31777   0.780   3.177   4.977 -0.0286  0.3397 -0.0334
13574W        W31778   8.600   5.962   2.531 -0.1786 -0.0194  0.1830
13575W        W31779  10.491  13.964   4.455  0.0437  0.0243 -0.0681
13576W        W31780   6.854  13.186   4.465  0.1596  0.0334  0.0782
13577W        W31781   8.680  11.368  15.975  0.1431 -0.2810  0.0481
13578W        W31782   2.203   5.123   4.732 -0.0526  0.0426  0.2483
13579W        W31783  14.094   1.411  14.884  0.1228 -0.3194 -0.0681
13580W        W31784   7.596  10.218  13.824  0.0575 -0.0485  0.0722
13581W        W31785   1.433   6.663  16.613 -0.0738  0.1111 -0.0390
13582W        W31786   2.486  16.715   3.466  0.1707 -0.0541  0.1743
13583W        W31787  11.481   2.579  17.097 -0.1922 -0.0237 -0.1900
13584W        W31788   2.139  14.873  11.294 -0.1350  0.0435  0.1190
13585W        W31789   6.615   0.117   2.442  0.1887 -0.0545 -0.2637
13586W        W31790   1.751   4.190   2.666  0.2642  0.0311 -0.3376
13587W        W31791   2.591  14.848   4.211  0.0975 -0.0860  0.0990
13588W        W31792  11.463   9.523   0.554 -0.1074  0.0954  0.1070
13589W        W31793  11.726   0.163  16.506 -0.1671  0.2004 -0.1645
13590W        W31794  11.179   3.292   2.173  0.0878 -0.0669 -0.4042
13591W        W31795   2.865   4.402  13.504  0.2670 -0.0051 -0.2881
13592W        W31796   8.003  16.428   0.200 -0.1285  0.0147 -0.1664
13593W        W31797   8.779  13.909   5.079  0.1860 -0.0913  0.0814
13594W        W31798   2.034   5.022   3.581  0.3103  0.1240  0.5061
13595W        W31799   8.882  15.663   1.082  0.2636  0.1527 -0.0532
13596W        W31800   5.058  14.929  14.673 -0.0199  0.0396  0.0476
13597W        W31801   3.891  13.721   1.143 -0.1399 -0.0533  0.0759
13598W        W31802   1.922   1.710   1.760 -0.1465 -0.2433  0.1419
13599W        W31803   5.137  12.947  17.147 -0.1635  0.0984  0.1280
13600W        W31804   4.703   2.197   2.911 -0.2550 -0.0238  0.0973
13601W        W31805  15.213  11.971   1.823 -0.2100  0.0768  0.1844
13602W        W31806  15.168   9.386  14.750 -0.2910 -0.0202  0.0928
13603W        W31807  13.628   9.579   4.460 -0.1228  0.2420 -0.1361
13604W        W31808   2.108   3.743  13.438  0.1365 -0.1831 -0.1862
13605W        W31809  11.461   8.780   4.632 -0.0745  0.1292  0.0749
13606W        W31810   9.078   5.895  13.370 -0.0024 -0.1598 -0.0914
13607W        W31811   2.069  15.050  13.195 -0.1406  0.0001  0.0217
13608W        W31812  11.747   4.723  16.918 -0.2054 -0.0175  0.1041
13609W        W31813   1.890  17.066   2.127 -0.0401 -0.3557 -0.0374
13610W        W31814   4.487   8.892  17.504  0.1558 -0.1017 -0.3003
13611W        W31815   7.407  13.044   3.763 -0.3843 -0.3370  0.0404
13612W        W31816   8.626   9.552   1.449 -0.3019  0.1537 -0.1239
13613W        W31817   5.598  14.772   3.508  0.1373  0.0986 -0.2379
13614W        W31818   8.330   5.581  16.982  0.2629 -0.0735 -0.1915
13615W        W31819  16.683   2.464   3.815  0.4516  0.2549  0.0262
13616W        W31820   8.111   9.102  12.762 -0.0729  0.0160 -0.1609
13617W        W31821   1.521  14.966   0.640 -0.1565 -0.0738 -0.0099
13618W        W31822  13.367   4.802   3.831  0.1433 -0.1237 -0.3420
13619W        W31823  15.691  17.059  13.445  0.1750 -0.1751  0.0346
13620W        W31824  16.709   9.288  13.529 -0.3917 -0.2179 -0.0037
13621W        W31825   6.811  16.459   3.985 -0.1362  0.1467  0.1862
13622W        W31826  16.854   0.389  15.541  0.0221  0.2112 -0.3334
13623W        W31827  14.001  17.120   3.819 -0.1113  0.0701 -0.0125
13624W        W31828   6.401  16.398  13.752 -0.1517  0.1935 -0.0691
13625W        W31829  11.331  15.346  13.997 -0.0529 -0.1281 -0.1145
13626W        W31830   2.185   1.562  17.065  0.2555 -0.0278 -0.0962
13627W        W31831  10.814   9.209   2.955 -0.0072  0.1759  0.1049
13628W        W31832  15.608   4.969  14.897  0.0716 -0.4218 -0.0760
13629W        W31833   5.401   8.438   0.473 -0.0840 -0.0571  0.0166
13630W        W31834  13.997  13.007   4.935 -0.0071  0.0306  0.2249
13631W        W31835   4.318  11.602   3.956 -0.1306 -0.1008  0.1472
13632W        W31836   0.225   3.954  17.372 -0.2282 -0.2217 -0.0456
13633W        W31837   9.547  15.229   0.971  0.1466  0.0581 -0.0653
13634W        W31838   1.204  14.336   5.762 -0.0267 -0.0876  0.0800
13635W        W31839  13.780   6.081  15.917  0.3161 -0.4511  0.2956
13636W        W31840  11.717  14.650  14.795  0.1159  0.3464 -0.1857
13637W        W31841  17.094   3.302  16.549  0.0549  0.2243  0.0797
13638W        W31842  13.380  12.210  12.231  0.1152 -0.1407  0.1973
13639W        W31843   8.203   5.727   4.346  0.1021 -0.1322  0.0481
13640W        W31844   9.162  13.362  15.429 -0.0778  0.1355 -0.3778
13641W        W31845   0.644   0.738   3.103  0.0603  0.0101 -0.0304
13642W        W31846  15.353  11.108   0.929  0.2816  0.0279  0.2284
13643W        W31847   2.825  15.965   1.276  0.0248 -0.0129  0.1735
13644W        W31848  13.852   3.794  13.851  0.1918 -0.1429 -0.0726
13645W        W31849   0.328   8.041   2.814 -0.0590 -0.1325 -0.0175
13646W        W31850  15.529   3.134  16.850  0.0715  0.2388 -0.1121
13647W        W31851   8.488   8.194  14.818  0.1938 -0.1429  0.0113
13648W        W31852   2.544   4.004  13.402  0.2307  0.0310  0.0422
13649W        W31853   1.185  16.119  13.267  0.0030  0.0516 -0.3318
13650W        W31854  10.728  16.445   2.354 -0.0158 -0.0074  0.0749
13651W        W31855   9.247   9.533   2.132  0.2236  0.0588  0.0338
13652W        W31856   4.764   4.559  15.632 -0.0378 -0.3613 -0.2586
13653W        W31857  13.258  12.909  13.486 -0.0928  0.0537  0.1959
13654W        W31858  10.926   0.366  14.486 -0.2164  0.0210 -0.1671
13655W        W31859   7.535   8.353   3.558  0.0641  0.0952  0.0094
13656W        W31860   4.637   5.697  16.598  0.0197 -0.1413  0.1119
13657W        W31861   6.287  17.221  15.455  0.1138 -0.2419 -0.1252
13658W        W31862  10.515   2.117   3.937 -0.0065 -0.2605 -0.1563
13659W        W31863   8.706  13.408  12.594  0.1219 -0.0843  0.0796
13660W        W31864   3.051   3.716   1.763 -0.2816 -0.2326  0.0131
13661W        W31865   2.809   1.240  12.696 -0.1978 -0.0458 -0.1873
13662W        W31866   2.767  10.868  12.446  0.0460 -0.1642 -0.0026
13663W        W31867   3.067  15.100   5.103  0.0419  0.1454 -0.0001
13664W        W31868   8.105  12.719  15.638 -0.1883  0.0291  0.2850
13665W        W31869  13.383   9.427   0.652  0.1377 -0.1001  0.1573
13666W        W31870  15.955   9.952  17.164 -0.0024  0.1283  0.1954
13667W        W31871  17.238   6.818  14.539 -0.1446 -0.0015 -0.2829
13668W        W31872   3.183   6.303   2.091 -0.2341  0.0201 -0.3268
13669W        W31873   2.741   2.466   4.832 -0.0956  0.4251 -0.0317
13670W        W31874   6.054   6.700  16.422 -0.2537  0.0416  0.0396
13671W        W31875   4.944   0.876  13.347 -0.0625 -0.1727  0.0597
13672W        W31876   9.313  11.489   4.983  0.1130 -0.0359  0.1821
13673W        W31877  14.654  16.484   3.946 -0.0939  0.0704  0.0747
13674W        W31878  13.714   2.206  15.857  0.0102  0.0819  0.0269
13675W        W31879  11.142  16.516  11.789  0.2882 -0.2727  0.3189
13676W        W31880   0.791  12.066   2.650 -0.0394 -0.1440  0.0137
13677W        W31881   1.750   7.363  13.539 -0.1533  0.1363  0.1591
13678W        W31882   4.668  16.538  16.001  0.2856  0.1926  0.3076
13679W        W31883   9.368  13.817   5.124  0.2998  0.1373  0.1181
13680W        W31884  12.769   0.712  12.062 -0.0482 -0.1909  0.1415
13681W        W31885  14.430  17.097   4.096 -0.1583  0.0547  0.1791
13682W        W31886  16.842  12.826  16.282  0.2282  0.1222  0.0234
13683W        W31887   8.243  15.734  16.564  0.0800 -0.1882  0.0069
13684W        W31888   2.256   6.823   4.298 -0.1240 -0.0972 -0.0915
13685W        W31889   1.097  15.057   2.010 -0.1316 -0.0105  0.1268
13686W        W31890  14.796   6.512   1.227 -0.0114 -0.1622  0.2370
13687W        W31891   8.980   5.494  15.653  0.0150 -0.0635  0.0988
13688W        W31892   5.461   1.732  14.215  0.1727 -0.3243 -0.1366
13689W        W31893  16.780  16.447  17.081  0.2523  0.1155 -0.0281
13690W        W31894  14.461  12.018   0.302  0.2474  0.1082 -0.1317
13691W        W31895  12.283  12.096   2.908 -0.2023  0.1781 -0.0443
13692W        W31896  10.424  10.115   1.719 -0.0555  0.2014  0.1619
13693W        W31897   2.937  12.261   4.910  0.0250  0.0624  0.0121
13694W        W31898   1.236  11.892  16.131  0.2129  0.4390 -0.3765
13695W        W31899  15.562   5.106   3.292  0.0062  0.0920 -0.0417
13696W        W31900   3.455  17.225   3.029 -0.1401  0.2405  0.2643
13697W        W31901  10.454  11.028   2.865 -0.2300  0.3216  0.0388
13698W        W31902  15.655   4.870   2.853 -0.1825 -0.2813  0.0685
13699W        W31903   4.196  11.714   2.027 -0.0332 -0.0574  0.0034
13700W        W31904   0.302   4.905   4.075  0.2167 -0.3168  0.2763
13701W        W31905  15.702  13.814  13.506 -0.0842  0.1470 -0.0140
13702W        W31906  10.793  15.317   0.571  0.2246 -0.1301 -0.0703
13703W        W31907   9.925  15.921  15.207  0.0698 -0.2841 -0.1088
13704W        W31908   8.040   8.201  13.064 -0.1258  0.2556 -0.1834
13705W        W31909   8.991   6.502  15.133 -0.1003  0.3176  0.0511
13706W        W31910  17.089   0.386  13.052 -0.0898 -0.1540 -0.2086
13707W        W31911   0.508  11.334   5.531 -0.1105 -0.0248  0.0575
13708W        W31912   3.644  14.193  14.601 -0.0230  0.1935 -0.0711
13709W        W31913  16.632  17.294   2.118 -0.0263  0.1173 -0.1604
13710W        W31914   0.647   9.200   3.014 -0.2782  0.0552 -0.0014
13711W        W31915   1.588   8.886   3.376  0.0343  0.4729 -0.0253
13712W        W31916   1.522  14.300   0.337 -0.1580  0.1181 -0.1188
13713W        W31917   2.092  13.312  13.458  0.3075  0.1015 -0.0638
13714W        W31918   4.229  11.092  15.523  0.1571  0.0301  0.0539
13715W        W31919   4.548  13.916  16.717  0.2667  0.0052 -0.0352
13716W        W31920  13.145  13.319   3.304  0.3056  0.5006  0.3058
13717W        W31921  15.716   9.322   0.366 -0.1214  0.1027  0.1675
13718W        W31922   8.929  11.018  16.254  0.0657  0.0156  0.1957
13719W        W31923   8.942  12.349  15.978  0.2072  0.2528  0.1571
13720W        W31924   7.627   3.238   4.160  0.0905 -0.2172 -0.0329
13721W        W31925  16.190  10.807  13.956  0.2206  0.0122  0.0251
13722W        W31926   2.431  14.070  15.107 -0.1169  0.1374 -0.0428
13723W        W31927   7.363  10.035  15.754  0.1856  0.0024 -0.1677
13724W        W31928   7.450  10.378  12.821 -0.3495 -0.0928 -0.0561
13725W        W31929  11.336  12.033  16.935  0.3445  0.2044  0.0004
13726W        W31930   5.134   1.623  12.893 -0.0462  0.0584  0.0255
13727W        W31931  15.671   1.559   4.400  0.1563 -0.1672 -0.0171
13728W        W31932  13.292   5.593   1.203  0.2591 -0.2205  0.1857
13729W        W31933   1.825  14.504  16.506 -0.0947 -0.0338 -0.2998
13730W        W31934  10.734   2.126   1.125 -0.1917 -0.1060  0.0171
13731W        W31935   5.012   5.317  15.567 -0.1558 -0.0473  0.0274
13732W        W31936   4.092   5.339   2.614  0.0420 -0.1861  0.1279
13733W        W31937  14.273   5.292  16.244  0.3156 -0.1116  0.0285
13734W        W31938  12.992  12.918   1.672 -0.2577 -0.2291  0.1595
13735W        W31939   9.443  12.407   1.120 -0.1744  0.0100 -0.3226
13736W        W31940  12.555   2.449  13.009  0.2766  0.1822 -0.2672
13737W        W31941  15.918  16.569   3.726  0.0418  0.1128 -0.1961
13738W        W31942  13.619   5.501   4.831  0.1075  0.1860 -0.0066
13739W        W31943  14.191   8.208   3.065 -0.0831  0.2544  0.1230
13740W        W31944   3.382   7.583  12.802 -0.1255 -0.2149  0.0787
13741W        W31945   3.668   0.729   1.787 -0.1459 -0.0108 -0.1236
13742W        W31946  12.115   7.340  14.849  0.2078  0.0492 -0.2741
13743W        W31947   9.481   1.467  12.748  0.0047  0.0873 -0.0788
13744W        W31948   9.649  14.155   4.302 -0.0173  0.2642  0.2853
13745W        W31949  12.727   1.364   0.640 -0.0991  0.0829  0.0263
13746W        W31950  11.374  13.458   1.673 -0.2918  0.1829  0.1533
13747W        W31951   5.131  10.827   2.609  0.0067  0.0896  0.1214
13748W        W31952  11.132   0.824  14.585 -0.1397 -0.1990 -0.1062
13749W        W31953  13.513   5.765  15.605  0.1477 -0.1045  0.2219
13750W        W31954  14.159   0.926  16.646  0.0342  0.0050 -0.1518
13751W        W31955  16.914   9.956   2.579  0.1863  0.1020 -0.0708
13752W        W31956   5.212   3.704  11.093 -0.0529  0.2649  0.0714
13753W        W31957  15.164  16.002   5.068  0.1909 -0.0596 -0.0595
13754W        W31958   6.504  11.726   4.927 -0.0539  0.0444  0.1892
13755W        W31959   3.591  16.913   2.688  0.2416 -0.0422  0.0170
13756W        W31960  13.187  10.145  12.785 -0.0408 -0.1827 -0.1292
13757W        W31961   3.910   3.386  12.909  0.2061 -0.0886  0.0008
13758W        W31962   2.778  13.881  16.567  0.0325  0.0796 -0.0955
13759W        W31963  17.148   5.594   0.795 -0.0779 -0.0651 -0.0720
13760W        W31964  13.586   5.460  12.182  0.1483 -0.2267  0.4456
13761W        W31965  14.068   3.367   2.128  0.1591  0.2250 -0.0599
13762W        W31966   9.400  10.236  16.269  0.2587 -0.0826 -0.0587
13763W        W31967   5.697  13.380   2.412 -0.0944  0.3275  0.0443
13764W        W31968   8.505   5.978   3.077  0.1564 -0.1295  0.0347
13765W        W31969  16.737  10.926   1.353 -0.1393  0.1410 -0.1434
13766W        W31970   1.322   2.528   4.902 -0.3358  0.1220  0.3374
13767W        W31971  10.825  15.348   2.606 -0.3598  0.4558 -0.0739
13768W        W31972  12.081   6.444  16.595 -0.0261 -0.1396  0.1570
13769W        W31973  16.993  13.658  15.976  0.3563  0.1433 -0.0805
13770W        W31974  13.733   0.546  15.878 -0.0604  0.1536  0.1832
13771W        W31975   1.231  16.532   2.857  0.0260  0.0329 -0.0307
13772W        W31976  14.128   2.076  13.609 -0.0067 -0.2103 -0.0802
13773W        W31977   0.953   2.912  13.873 -0.0695  0.1172  0.0544
13774W        W31978   7.317   4.806  14.410  0.1548  0.0146  0.2181
13775W        W31979   3.276  11.219   3.411  0.0787 -0.0512  0.0233
13776W        W31980  11.013   1.424   0.128  0.1441  0.1573 -0.1478
13777W        W31981   7.478   3.279   5.517 -0.1107 -0.0539  0.0910
13778W        W31982  12.584   9.150   4.711  0.3749  0.1256  0.1467
13779W        W31983   9.218   0.565  16.451 -0.1040 -0.0597 -0.0598
13780W        W31984   6.151   7.331   2.786  0.3125  0.1848  0.3960
13781W        W31985   2.671   9.370   4.522  0.2988 -0.1257 -0.1720
13782W        W31986   3.292   2.579   0.219  0.2689 -0.2403  0.1595
13783W        W31987  17.003   6.892  15.021 -0.0726  0.3501  0.1779
13784W        W31988  16.003   4.465  15.785  0.1449  0.0911 -0.0430
13785W        W31989   2.964   9.868  12.406 -0.0391 -0.0237 -0.2142
13786W        W31990   9.692  11.131  14.199 -0.0576 -0.3041 -0.0002
13787W        W31991   1.380   6.852   5.070  0.0520 -0.0731  0.1168
13788W        W31992   2.267  12.058  16.679 -0.1329  0.1190 -0.2746
13789W        W31993   7.791   3.332  13.312  0.6094  0.0058 -0.1741
13790W        W31994   9.131  11.913   0.429 -0.0806  0.1522 -0.1595
13791W        W31995  16.959  14.943  13.379 -0.3100  0.0874 -0.1502
13792W        W31996   2.404   2.575   3.251  0.4889  0.1388 -0.1314
13793W        W31997  14.638   6.763  17.400 -0.2271 -0.2062 -0.3219
13794W        W31998   7.520   9.254   0.568  0.1594  0.0065 -0.0001
13795W        W31999   4.605   7.799  12.934  0.0825  0.0322 -0.2573
13796W        W32000  11.426  16.416   1.662  0.0097 -0.0555  0.3261
13797W        W32001  14.987   7.425  13.929  0.2672 -0.0446 -0.1503
13798W        W32002   5.310   9.907   3.117  0.2930 -0.0758 -0.1789
13799W        W32003   6.032  16.399   1.526 -0.1332 -0.2032  0.0772
13800W        W32004   4.733  17.069  16.933  0.0916 -0.0053  0.1292
13801W        W32005   4.720   3.837   2.018  0.0677  0.3031 -0.0391
13802W        W32006   9.154   3.170  15.509  0.3505 -0.0473 -0.0173
13803W        W32007   8.537   2.443  16.281 -0.1170  0.0224  0.0581
13804W        W32008  15.834   9.836   3.639 -0.1176  0.0497  0.1019
13805W        W32009   9.452  15.726  12.671  0.0711 -0.3678 -0.0332
13806W        W32010  10.370   8.025  13.619 -0.0038 -0.0492 -0.1667
13807W        W32011   3.118   6.781  14.201 -0.2430  0.0387  0.0619
13808W        W32012  15.025  15.156   1.723  0.0245 -0.0418 -0.4896
13809W        W32013  15.420  16.291   3.443 -0.2386  0.0768  0.3128
13810W        W32014   0.329   8.211   2.315 -0.2114 -0.0506  0.1494
13811W        W32015  15.050  14.134  14.197  0.1031 -0.2134  0.0556
13812W        W32016  11.505  10.835  15.469  0.0170 -0.0324 -0.2829
13813W        W32017  13.432   3.720  15.749 -0.1697 -0.0147  0.1649
13814W        W32018  17.106   1.684   1.559  0.2559  0.1264 -0.0960
13815W        W32019   3.210  14.761  16.493 -0.1465 -0.3600 -0.0293
13816W        W32020  13.887   2.882  16.315 -0.1725 -0.0477  0.1539
13817W        W32021   9.931   2.616   3.381 -0.0755  0.0341  0.0230
13818W        W32022   6.547   2.915  16.042  0.0280  0.2045  0.1874
13819W        W32023   4.611  15.343   4.366 -0.0485 -0.0710 -0.0612
13820W        W32024   1.320  12.149  13.366  0.1823 -0.0302  0.1828
13821W        W32025   4.938  13.842  15.345  0.0345  0.3644  0.1816
13822W        W32026   3.374   4.525   3.411 -0.2249  0.1507 -0.2404
13823W        W32027   5.773   5.899  14.548 -0.4437  0.0751 -0.0774
13824W        W32028  15.245   2.933  12.324  0.0946 -0.0350 -0.4277
13825W        W32029  16.687  14.554   5.417 -0.3060  0.0851 -0.2086
13826W        W32030   8.364  12.485  17.119  0.2412 -0.1160 -0.0810
13827W        W32031   2.602  11.678  15.127 -0.0072 -0.0075  0.3197
13828W        W32032  11.957  15.034  15.105  0.2259  0.1723 -0.0538
13829W        W32033   6.146  14.554  13.366 -0.0339 -0.2536 -0.1248
13830W        W32034   0.379  11.741  15.927 -0.2568  0.2143  0.1558
13831W        W32035   4.816   0.962   3.351  0.0180  0.0023 -0.1864
13832W        W32036  14.155  10.900   2.844  0.0958 -0.1210 -0.0895
13833W        W32037  13.254  14.592   5.058  0.0202 -0.1590 -0.2109
13834W        W32038   4.649   5.459   4.564 -0.0686  0.0019 -0.0724
13835W        W32039   1.075  10.315   2.415 -0.0536  0.1954  0.0320
13836W        W32040   2.953  11.689  15.588 -0.0100  0.0511  0.1031
13837W        W32041  12.445   7.337   1.962  0.0586 -0.1289 -0.0381
13838W        W32042   7.731  14.265  15.709 -0.0274  0.2446  0.2277
13839W        W32043  13.778   7.416   2.587  0.0578  0.6028 -0.0280
13840W        W32044   8.086   1.713  16.610  0.1515 -0.0114  0.0371
13841W        W32045   3.424  17.142   0.722  0.2842 -0.1079  0.0570
13842W        W32046   8.265  11.130  15.683 -0.2917 -0.0176 -0.1115
13843W        W32047  10.586   7.917  13.181  0.3308 -0.2023  0.1558
13844W        W32048   3.248   8.099   0.482 -0.0479 -0.2754  0.0724
13845W        W32049   4.017  11.546  15.565  0.1755  0.2824  0.2514
13846W        W32050   2.095   6.258   1.470  0.0058  0.1669  0.0729
13847W        W32051   7.126   1.655  13.548 -0.0989 -0.1467  0.1746
13848W        W32052  15.263   0.946  15.879 -0.2721  0.3149  0.1415
13849W        W32053  17.102  11.227  16.298 -0.1722  0.1404 -0.0281
13850W        W32054   2.944   5.149   5.986 -0.0292 -0.3966 -0.1495
13851W        W32055   0.508   6.136   6.268  0.1594  0.2802  0.1803
13852W        W32056   9.063   9.444  16.089  0.1928  0.0822  0.0423
13853W        W32057   6.255   5.979  14.465 -0.0641 -0.0511  0.1115
13854W        W32058  15.670  11.563  15.138  0.0651  0.0778  0.0879
13855W        W32059   0.792   8.702   0.636  0.0582  0.0142  0.0365
13856W        W32060   2.268  13.829   5.487 -0.2495 -0.1337 -0.1875
13857W        W32061  16.571  12.050  14.370  0.1349  0.0363  0.1206
13858W        W32062  15.560   9.571  13.401 -0.0487  0.2028  0.0036
13859W        W32063   3.665  14.688   0.252  0.2020 -0.0350 -0.0735
13860W        W32064  10.203   9.150  12.959  0.1785  0.0613 -0.3755
13861W        W32065   1.152   5.612  11.796 -0.0085  0.5110  0.0162
13862W        W32066   3.236   9.945  16.200  0.0891 -0.1094  0.0237
13863W        W32067  13.192   6.770   1.563 -0.1109 -0.0714  0.1207
13864W        W32068   1.695   4.435   4.973 -0.5212 -0.0585  0.0080
13865W        W32069  15.604  14.546  14.495  0.0288 -0.0054 -0.0354
13866W        W32070   4.532  11.702   2.592  0.0143 -0.2566 -0.1718
13867W        W32071   4.165   7.221   3.776 -0.0602  0.1502 -0.2744
13868W        W32072  15.405   2.152   5.074 -0.2047  0.0444 -0.2752
13869W        W32073   0.617   9.051  15.514  0.1265 -0.0618  0.2030
13870W        W32074   2.323  13.658  16.682  0.0573 -0.0713  0.4745
13871W        W32075  10.723  12.982  13.710 -0.0430  0.2056  0.1539
13872W        W32076   0.125   9.225   2.298  0.2211  0.1392 -0.0420
13873W        W32077  13.800   4.749   3.242 -0.0393 -0.3334 -0.3393
13874W        W32078   6.371   8.223  14.532  0.0469 -0.0896 -0.1801
13875W        W32079  10.608  13.151   5.514 -0.2160 -0.1221  0.1060
13876W        W32080   6.097   7.251  14.000 -0.1389  0.2504 -0.0522
13877W        W32081  13.584  14.176   2.977  0.0994  0.1056 -0.2415
13878W        W32082   1.455   1.242  15.732 -0.3228  0.0108 -0.0202
13879W        W32083   9.068   9.339   1.441 -0.0236  0.0406 -0.0351
13880W        W32084  13.016   4.463  13.254  0.0773  0.0792 -0.0248
13881W        W32085  12.112   7.182   1.084  0.0051  0.2293  0.0528
13882W        W32086   5.393   2.604   4.978  0.0148  0.1097 -0.2088
13883W        W32087   5.072  11.092   3.140 -0.1263 -0.0606  0.0988
13884W        W32088  16.592   0.629  17.057  0.1472 -0.0556 -0.2826
13885W        W32089   9.530   1.322   2.392 -0.1350 -0.0690  0.4012
13886W        W32090  11.286   0.700   1.729 -0.1544 -0.1927  0.1494
13887W        W32091  16.197  17.008  12.420 -0.1004  0.2089 -0.3136
13888W        W32092   0.368  14.602   5.214  0.0182 -0.5494  0.1218
13889W        W32093   6.174   2.071   3.516 -0.0450 -0.0188 -0.1565
13890W        W32094  16.200  10.879   5.180  0.0513 -0.0827 -0.1399
13891W        W32095  15.872   0.261  14.179 -0.0316 -0.1456  0.2639
13892W        W32096  11.044  17.092   4.086  0.1942  0.4588 -0.0210
13893W        W32097  10.267   9.343  16.751 -0.0379  0.2562 -0.1798
13894W        W32098  16.836   5.028  13.471 -0.0231 -0.1682  0.0387
13895W        W32099   4.204  14.518   2.834  0.0130  0.2513 -0.0123
13896W        W32100   1.873   9.139   4.178  0.0048 -0.0271 -0.1408
13897W        W32101   0.827  13.429   3.145  0.0114 -0.4116  0.0189
13898W        W32102   4.251  16.545   5.002 -0.3664  0.0806 -0.2805
13899W        W32103  16.231   6.588   4.281  0.0573  0.1370 -0.1682
13900W        W32104   2.984   8.840  12.259 -0.0168  0.1705 -0.2411
13901W        W32105  10.260   0.715  16.495 -0.0245  0.3323 -0.0467
13902W        W32106   1.308  13.669   2.892  0.0001  0.1242 -0.1074
13903W        W32107  17.260  10.761  15.920  0.0685  0.0337 -0.0778
13904W        W32108  14.058  15.637   5.677 -0.0179 -0.0256 -0.0787
13905W        W32109  16.236   5.345  15.357 -0.1208 -0.0071 -0.0741
13906W        W32110  12.860   1.690  13.412  0.2300 -0.2768  0.0648
13907W        W32111  11.766   0.942  15.932 -0.1008 -0.1740  0.0904
13908W        W32112   5.606  10.505  15.962  0.0560  0.1226  0.0285
13909W        W32113  16.632   0.547   1.324 -0.1968  0.1469  0.1637
13910W        W32114  15.396   1.227  16.280 -0.2185  0.1023  0.1217
13911W        W32115   3.712  13.057  13.360 -0.0295 -0.2672  0.0095
13912W        W32116   3.553   1.007   2.506 -0.2109 -0.0513 -0.1681
13913W        W32117   9.708   6.381   2.082 -0.0765 -0.0815  0.1423
13914W        W32118   3.279   4.423  15.308  0.0086 -0.0561 -0.0875
13915W        W32119  10.555  17.006  16.061  0.1783 -0.2583 -0.0971
13916W        W32120   4.604  13.292   1.902 -0.0793  0.2691  0.0494
13917W        W32121   1.067   8.965   0.250 -0.3284  0.0187 -0.1875
13918W        W32122   8.115   9.071   2.421  0.1535 -0.0246  0.1454
13919W        W32123  10.831   7.062  16.881  0.3241  0.2748  0.0414
13920W        W32124   3.899   0.884   2.181  0.2902  0.1455  0.0741
13921W        W32125  14.366   1.987   0.482  0.2201  0.0305 -0.0499
13922W        W32126   9.236   3.611  16.366  0.0964  0.2869  0.3440
13923W        W32127   5.231  14.685   3.872  0.1735 -0.0626  0.0955
13924W        W32128   6.565   4.408   3.057 -0.0206 -0.0812  0.1603
13925W        W32129   3.223   0.507  16.137 -0.0429 -0.1178  0.0344
13926W        W32130  14.418  17.009  12.453 -0.1390  0.1143  0.1764
13927W        W32131   7.950  11.680  14.116  0.1672  0.2341 -0.0066
13928W        W32132   1.537  15.245   3.603  0.2001  0.2773  0.0427
13929W        W32133  15.410   0.712   2.094  0.1951  0.2965 -0.0537
13930W        W32134   3.239   4.058   4.338  0.1950  0.2002  0.0910
13931W        W32135  12.543   8.771  14.490  0.3273  0.0744 -0.1199
13932W        W32136  13.956   4.210   2.354  0.0040  0.1672  0.0380
13933W        W32137   4.109   8.637   4.174  0.1312  0.1269  0.3217
13934W        W32138   9.300  12.813  12.844  0.1228 -0.1613  0.2150
13935W        W32139  12.495   6.096   3.680  0.1235  0.0038  0.2747
13936W        W32140  13.274   2.254   0.625 -0.2231  0.1120 -0.0976
13937W        W32141  13.482  17.050  15.638  0.0444 -0.1014  0.2073
13938W        W32142   4.626  11.629  17.317  0.3340  0.1672  0.1258
13939W        W32143  15.632  16.911  15.648  0.1670 -0.1087  0.0896
13940W        W32144  12.732  11.926   2.691 -0.1813  0.2053 -0.0635
13941W        W32145   1.645   4.838   1.454  0.0856 -0.1178 -0.1223
13942W        W32146   3.499   9.592   3.268  0.0708 -0.0411 -0.1448
13943W        W32147  11.631   5.082  12.041 -0.1219 -0.1790  0.1907
13944W        W32148   2.391  14.083   2.736  0.3110  0.2440  0.2181
13945W        W32149   1.450   2.242   1.482 -0.0521 -0.0377 -0.0681
13946W        W32150  17.215  15.864  12.840  0.1823 -0.0870  0.1732
13947W        W32151  11.691  16.056  14.069  0.0845  0.3265 -0.1334
13948W        W32152   1.742   4.395   6.089  0.6829  0.0229  0.3223
13949W        W32153  12.425  13.422   0.670  0.0586  0.1572  0.3180
13950W        W32154  15.108  15.592   2.972 -0.0363  0.0799  0.3311
13951W        W32155  10.226  14.853  14.034 -0.2757  0.1519  0.0533
13952W        W32156   7.844   6.390   2.448 -0.0784  0.2891  0.0631
13953W        W32157   8.260   1.152  17.317  0.1402  0.3814  0.1187
13954W        W32158   0.460   8.015   0.157  0.0185  0.0078  0.1920
13955W        W32159  12.255  10.323  14.001  0.0141 -0.0951  0.0004
13956W        W32160  15.799  15.684   4.212 -0.0331  0.4096 -0.1522
13957W        W32161  11.555   0.192  13.012 -0.0984 -0.0868  0.3618
13958W        W32162   3.148  13.549  14.573  0.0901 -0.0025 -0.3259
13959W        W32163  10.923  11.524  15.572  0.1028  0.1801 -0.1307
13960W        W32164  14.880   0.985   5.285 -0.1848 -0.0389  0.0934
13961W        W32165   5.085   0.083  13.515 -0.0009 -0.2286 -0.1691
13962W        W32166   1.155   9.361  13.473 -0.2950  0.2017 -0.1494
13963W        W32167   8.862   1.390   5.194 -0.3077  0.1277  0.0023
13964W        W32168   2.389  12.915   2.963 -0.1712 -0.0514 -0.0193
13965W        W32169  14.198  11.617   4.996  0.0895 -0.1272  0.0809
13966W        W32170  11.254   9.147  13.932 -0.2582 -0.2395 -0.0305
13967W        W32171  11.073   4.838   3.890 -0.1857  0.1717 -0.1586
13968W        W32172   5.967  16.941  17.213 -0.0924  0.5334  0.2440
13969W        W32173   1.945  16.286  16.927 -0.2171  0.1101  0.1060
13970W        W32174   8.238  13.526  11.791 -0.1146  0.0355 -0.0019
13971W        W32175   4.545   8.702   1.622  0.2890  0.1269  0.1636
13972W        W32176   6.750  13.163  14.343 -0.1598  0.0253 -0.1539
13973W        W32177   3.373   7.790   1.482  0.0893 -0.1375 -0.1678
13974W        W32178   7.913   9.580   2.613  0.2042 -0.1334 -0.2061
13975W        W32179   9.320  12.726  13.869 -0.2357 -0.0179  0.1262
13976W        W32180  13.675   0.633  16.594  0.1084 -0.1236 -0.0823
13977W        W32181  14.481   9.009  14.589  0.3128 -0.0775 -0.0443
13978W        W32182   4.455  15.320   3.587 -0.1610 -0.0745  0.4946
13979W        W32183   6.332  15.650  17.084 -0.0172 -0.2635  0.0010
13980W        W32184   0.571  16.865  13.756  0.2170  0.2820  0.1241
13981W        W32185   6.964   9.145  12.598 -0.0266  0.0345 -0.3057
13982W        W32186   9.206   2.482  13.898  0.0002  0.3182 -0.1866
13983W        W32187   5.603   7.301  14.127  0.0112  0.4376 -0.0215
13984W        W32188  13.993  12.881  15.864 -0.0409  0.3014 -0.0891
13985W        W32189   0.795   3.955   1.400  0.0519 -0.0202  0.0342
13986W        W32190   0.645  10.671  12.642 -0.1625 -0.0057 -0.1669
13987W        W32191   6.156  15.763   3.243 -0.0868 -0.0827 -0.0932
13988W        W32192   2.898  16.533  16.903 -0.3287  0.0456 -0.2431
13989W        W32193   9.155  10.130  15.736  0.1835 -0.1853  0.0276
13990W        W32194  11.292   7.160   1.329  0.1987 -0.1089 -0.1184
13991W        W32195   0.938   2.988  16.653 -0.0273 -0.0781  0.1012
13992W        W32196   8.251  14.837  13.930 -0.0316  0.2899 -0.1606
13993W        W32197   6.792  14.873   4.275  0.1194 -0.1091 -0.1728
13994W        W32198  16.689   6.071  12.148 -0.0031  0.0461 -0.2569
13995W        W32199   5.559  13.500   3.182  0.2559 -0.1257  0.0818
13996W        W32200  17.037   3.299   2.596 -0.0206  0.3845  0.2827
13997W        W32201   5.897   5.278   1.833 -0.0703  0.1260 -0.1363
13998W        W32202  12.549  14.132   1.276 -0.1705 -0.0736  0.3513
13999W        W32203   6.693   9.630   1.890 -0.0003  0.3568  0.0261
14000W        W32204   6.127  15.166  15.999 -0.3272  0.3975 -0.3712
14001W        W32205  16.533  16.981   0.362  0.1610 -0.0370 -0.2522
14002W        W32206   8.278   3.106  12.618 -0.0435 -0.2448  0.0102
14003W        W32207   6.944   7.005  13.505  0.1967 -0.1021  0.0616
14004W        W32208   5.155  15.663   3.534 -0.0801  0.0773 -0.0811
14005W        W32209  16.825   2.560   2.054  0.1540 -0.0844  0.3245
14006W        W32210   3.562   6.661   2.697 -0.2057  0.0124 -0.4436
14007W        W32211   3.624  13.939   0.771 -0.0024  0.0452  0.0062
14008W        W32212   0.012  10.404  16.769  0.0770 -0.0366 -0.0911
14009W        W32213   5.748   2.681   4.057 -0.1464  0.1053 -0.0320
14010W        W32214   8.121  15.800   1.626 -0.1632 -0.0401  0.0192
14011W        W32215   6.265  16.089  15.771  0.1639  0.1160 -0.0321
14012W        W32216  14.270  10.894   3.363  0.2064 -0.2171 -0.1844
14013W        W32217   8.800   2.731  15.472 -0.1228 -0.4609 -0.2276
14014W        W32218  11.265  15.178  13.533 -0.1613  0.2508  0.0421
14015W        W32219  15.899   0.160   1.503  0.2678  0.0757 -0.3326
14016W        W32220   0.678  12.299   5.520  0.1396 -0.1167 -0.4069
14017W        W32221   8.663  11.560   1.814  0.1367 -0.1670  0.1937
14018W        W32222  11.980  16.163  14.922  0.3258 -0.1881 -0.2732
14019W        W32223   4.160  12.792  17.052 -0.0668  0.3501  0.0199
14020W        W32224  15.402   0.032  12.631  0.1689 -0.1605 -0.0357
14021W        W32225   9.668  13.173  14.672  0.3211 -0.4177  0.2246
14022W        W32226  13.222   0.535   2.980 -0.0253  0.1028 -0.1837
14023W        W32227  16.509   9.481  15.695  0.1620 -0.1114  0.2418
14024W        W32228   4.583  11.774   5.346 -0.2186  0.3016  0.0453
14025W        W32229   0.633   8.057   1.935 -0.0437 -0.1189  0.1189
14026W        W32230  14.438  11.210   3.787  0.0377  0.0360  0.0531
14027W        W32231  11.954   1.628  13.179 -0.4882  0.0608  0.0445
14028W        W32232  12.974   7.732   5.220  0.5493  0.3839  0.0957
14029W        W32233   3.835   1.769   5.232 -0.2465  0.0484 -0.0194
14030W        W32234   9.793  12.624  15.216  0.2493  0.0465 -0.2280
14031W        W32235   8.229   9.545   3.130  0.0780 -0.0232  0.0312
14032W        W32236  11.317   2.382  15.529 -0.0187  0.1062  0.2121
14033W        W32237  10.232   6.968   2.048  0.1486 -0.1329 -0.2951
14034W        W32238   4.265   6.273   1.080 -0.0679 -0.0850 -0.0069
14035W        W32239   7.239  13.977  12.868 -0.0098 -0.1615  0.1462
14036W        W32240  11.716   8.536   1.041  0.2375 -0.1692  0.1566
14037W        W32241  13.124  16.312  12.474 -0.3529 -0.0553  0.0570
14038W        W32242   7.370   7.038   4.117  0.1043 -0.0913 -0.2276
14039W        W32243   2.189  15.506  17.367  0.0146  0.0652  0.2297
14040W        W32244  14.663   3.888  15.777 -0.3395  0.0608 -0.2636
14041W        W32245   5.132  16.059   4.566  0.0093 -0.1359  0.0339
14042W        W32246   1.746   4.535   3.660  0.0900 -0.4067 -0.1236
14043W        W32247   9.690   6.644   1.179  0.2737 -0.2387  0.1949
14044W        W32248   6.757  14.958  14.088  0.0504 -0.0431  0.0187
14045W        W32249  11.040   0.278   4.125  0.2401  0.0101 -0.1133
14046W        W32250   2.487   9.104  15.268 -0.0361  0.2814 -0.1721
14047W        W32251   3.879   2.714  15.275  0.0342  0.3967  0.0210
14048W        W32252   7.510  11.862  11.876 -0.2144 -0.0236 -0.1606
14049W        W32253   1.798   6.241   2.887 -0.0547  0.2277  0.0157
14050W        W32254  16.977  12.021   4.618  0.0689  0.4130 -0.3924
14051W        W32255  14.187   7.487   4.904  0.3509 -0.1153  0.2257
14052W        W32256   6.447   6.063  15.251 -0.1249 -0.0461 -0.0083
14053W        W32257   3.971  16.454   4.028  0.0364 -0.0225 -0.0515
14054W        W32258   4.959   2.589   4.742 -0.1152  0.0315  0.1005
14055W        W32259   0.060   5.373  16.848 -0.0511 -0.1867  0.0183
14056W        W32260   0.378   1.065  17.251  0.1045 -0.0272  0.1676
14057W        W32261  14.842   1.752  14.361  0.1284 -0.0492  0.0780
14058W        W32262   8.276  15.881   4.279  0.3047  0.0099 -0.3939
14059W        W32263   3.044   5.313   5.177 -0.2727 -0.1025 -0.1175
14060W        W32264  10.730  14.488  13.316  0.0591  0.2792 -0.3337
14061W        W32265  13.266  14.670  12.337  0.0766  0.2730 -0.0163
14062W        W32266  12.601   5.346   0.211 -0.0050 -0.0455 -0.5493
14063W        W32267   6.854  15.301  15.696  0.3027  0.0052 -0.1361
14064W        W32268   2.190  13.918  17.138 -0.1266 -0.1717 -0.2322
14065W        W32269  12.874  11.303   1.018  0.1864  0.1731 -0.0306
14066W        W32270  14.730  13.446  14.818  0.1045  0.2214  0.2121
14067W        W32271   0.390  15.934  15.425 -0.0106  0.0082  0.1915
14068W        W32272   5.895   1.077   2.157 -0.3075 -0.0666 -0.0858
14069W        W32273   0.483  11.966  16.407 -0.3316  0.1124 -0.5448
14070W        W32274   5.378   9.343   2.258  0.1310 -0.0022 -0.0053
14071W        W32275  13.140   9.153   1.125  0.0487  0.0167  0.0692
14072W        W32276  12.618  14.202   2.131  0.0244  0.1220  0.1328
14073W        W32277  12.939   6.021   5.093  0.1034 -0.0448  0.1911
14074W        W32278  13.743   6.474  12.787 -0.1833 -0.1824  0.1097
14075W        W32279  10.135   9.461   5.203  0.0346  0.1539  0.1913
14076W        W32280   6.470   3.104  17.345 -0.0071 -0.1758 -0.2327
14077W        W32281   9.126  15.291  17.242 -0.0024 -0.3140 -0.1223
14078W        W32282   9.240  10.099  12.311 -0.0286  0.1455  0.0768
14079W        W32283  16.874  15.302  15.657 -0.0066  0.1411  0.2811
14080W        W32284   2.774   8.861  15.761 -0.0491  0.0323 -0.2921
14081W        W32285  14.320   4.937   4.785  0.0804 -0.1565  0.1803
14082W        W32286  13.951   4.421   0.036  0.3091 -0.1457  0.0564
14083W        W32287  14.406  15.141  12.490  0.0845  0.0480  0.0377
14084W        W32288   5.801   8.802  17.165 -0.0946 -0.0257 -0.0399
14085W        W32289  11.726  15.368   2.020 -0.1130 -0.2458  0.0388
14086W        W32290  11.846   5.826   4.109 -0.0184 -0.1647  0.2399
14087W        W32291   4.352   0.282   2.726  0.1326  0.1718  0.1419
14088W        W32292  15.456  10.079  13.192 -0.0876 -0.0564 -0.0973
14089W        W32293  10.197   8.159   0.913 -0.1080 -0.2358  0.1579
14090W        W32294  10.925  10.713   2.806  0.2182 -0.1925  0.0227
14091W        W32295  10.530  15.342   1.263 -0.0411  0.0439 -0.0689
14092W        W32296   3.874  11.937   3.835 -0.1516 -0.0927 -0.0838
14093W        W32297  11.897   3.091   1.062 -0.1052 -0.1857 -0.2169
14094W        W32298  17.247   7.635  16.761  0.0031  0.2147  0.0627
14095W        W32299   4.108  10.515  13.204  0.2272 -0.2131  0.2376
14096W        W32300  15.093  14.460   4.754 -0.2277  0.1407 -0.2397
14097W        W32301  10.819  14.359   4.506 -0.1502 -0.2413 -0.3980
14098W        W32302   8.193   0.721  15.039  0.4351  0.0112  0.0325
14099W        W32303   8.943   2.734  16.386 -0.0334  0.1756 -0.1548
14100W        W32304  11.642  11.112  12.760  0.2620 -0.0772 -0.2876
14101W        W32305  15.396  14.967   3.089  0.1540 -0.1978 -0.2397
14102W        W32306  12.853   8.202   4.910  0.1147 -0.3581 -0.0191
14103W        W32307   3.510   2.778  12.214 -0.0397  0.0795 -0.2707
14104W        W32308   4.443  11.550   3.028  0.0366 -0.0062 -0.2562
14105W        W32309   3.273  10.271  15.781  0.3202  0.1431 -0.3611
14106W        W32310  16.109  14.221   2.537  0.2883 -0.1630  0.0869
14107W        W32311  12.926  11.435  15.779  0.0507 -0.3177  0.2857
14108W        W32312   3.780   9.820  17.438 -0.0762 -0.1819  0.0529
14109W        W32313   7.086   0.648  11.810 -0.2790 -0.3775 -0.3347
14110W        W32314   9.544  15.455  14.991  0.4350 -0.2209  0.1893
14111W        W32315   3.739   9.426   2.471  0.4004  0.0861  0.0326
14112W        W32316  15.944   5.000   4.799 -0.2717  0.0723  0.1286
14113W        W32317   5.395  15.886  17.164 -0.0991  0.2757  0.2636
14114W        W32318   9.969  13.802  12.781  0.1460 -0.1267 -0.2255
14115W        W32319   7.641   7.904  12.665 -0.1343 -0.2798 -0.0683
14116W        W32320   5.811   9.939   4.731  0.0451 -0.1728  0.1088
14117W        W32321  12.202   5.128  17.220 -0.1029 -0.1894  0.2559
14118W        W32322  15.369  14.164  12.264  0.0174  0.0427 -0.1751
14119W        W32323   3.516  13.259   5.474  0.1529 -0.0141 -0.0214
14120W        W32324   0.562   2.793   5.306 -0.1739 -0.1367 -0.1387
14121W        W32325  16.305   3.847  17.118  0.0901 -0.0818  0.5132
14122W        W32326   3.957  12.042  16.754 -0.1086  0.2673 -0.0595
14123W        W32327   1.483   0.022  11.148  0.0405 -0.0749 -0.0710
14124W        W32328  16.874  16.970  16.264  0.0677  0.0289 -0.0414
14125W        W32329   3.304  12.399   2.517 -0.0334  0.0319  0.0097
14126W        W32330  15.503   9.776  14.926 -0.1187 -0.0281  0.0240
14127W        W32331   3.264   3.610   1.124  0.1815  0.2480 -0.1907
14128W        W32332   3.513   8.171   5.024 -0.0699 -0.0370  0.2775
14129W        W32333   8.681   5.480   3.968 -0.0787 -0.0270 -0.0170
14130W        W32334   3.651  11.857  16.364  0.0705 -0.2711  0.3127
14131W        W32335   1.433  13.284   5.247 -0.0076  0.0375 -0.0577
14132W        W32336  13.493   1.317   0.548  0.2940  0.1138 -0.0906
14133W        W32337  14.189   0.297   0.728 -0.2154 -0.2545 -0.0902
14134W        W32338  11.476  10.033  12.598 -0.3073 -0.0675  0.3091
14135W        W32339   4.756  16.603  16.750 -0.1477 -0.1418  0.1735
14136W        W32340   4.541   6.861   1.596 -0.0549  0.1718  0.1810
14137W        W32341  12.592  13.153   4.650  0.1536 -0.0833 -0.0925
14138W        W32342   0.948   5.501   1.838 -0.1825  0.0411 -0.3606
14139W        W32343  11.896  11.389  14.657 -0.3574  0.3221 -0.1879
14140W        W32344   8.881  16.213  16.852 -0.2183  0.1017  0.1753
14141W        W32345   0.088  17.068  13.664 -0.0962  0.0123 -0.2692
14142W        W32346  16.879  11.364  15.254  0.6305 -0.1482 -0.0933
14143W        W32347  17.281   9.807   3.813  0.0647 -0.1358 -0.1257
14144W        W32348   8.815  11.433  14.004  0.2084  0.0479 -0.0967
14145W        W32349  15.904   9.077  15.173 -0.0017  0.1821 -0.1050
14146W        W32350  11.531   9.340   3.894 -0.0823 -0.3070 -0.1325
14147W        W32351   7.907  13.315  13.090  0.0527  0.1745 -0.0950
14148W        W32352   7.165  15.412  17.286 -0.0447 -0.1171  0.1013
14149W        W32353   2.216  13.178  13.961 -0.1136 -0.0282  0.0122
14150W        W32354  14.764  13.337   3.326  0.1125 -0.1091  0.1928
14151W        W32355   7.686   5.723  15.961  0.2039 -0.3146  0.1359
14152W        W32356  13.572   8.092  15.937  0.0532 -0.1328 -0.3081
14153W        W32357   0.506   1.458  14.127 -0.0236 -0.0241 -0.2948
14154W        W32358   9.074   1.057   2.523  0.0286  0.1281 -0.0336
14155W        W32359   1.320  17.013  17.087  0.1578  0.0907 -0.0773
14156W        W32360   5.388   4.034   3.466  0.3104  0.0104 -0.2280
14157W        W32361   3.929  11.389   1.284  0.3134  0.1593  0.1819
14158W        W32362   8.504   9.556  13.556 -0.1052 -0.1685  0.0318
14159W        W32363   7.527  13.892  12.444 -0.1470  0.2151 -0.2553
14160W        W32364   8.951   3.294  16.083 -0.2430 -0.1090  0.0859
14161W        W32365  13.057   6.225  16.939 -0.1293  0.2580 -0.1571
14162W        W32366   7.336  10.921   3.563 -0.0565 -0.0355 -0.1945
14163W        W32367   5.058   1.084  13.844  0.1407 -0.1835 -0.0347
14164W        W32368   3.677   4.513   1.343  0.0977  0.0909  0.0273
14165W        W32369   1.679  14.479   5.575 -0.0320  0.1448 -0.0164
14166W        W32370  15.130  14.507  14.548 -0.1124  0.0239  0.0317
14167W        W32371   5.903  11.778   0.696  0.0476 -0.1140 -0.2796
14168W        W32372  12.011   2.603   4.018 -0.1157 -0.1975  0.0139
14169W        W32373  12.711   5.274  16.111  0.2637  0.0015 -0.0396
14170W        W32374  10.409   2.162   2.611 -0.0281  0.2300 -0.0157
14171W        W32375   0.391  12.193   2.892 -0.0463  0.2976  0.0751
14172W        W32376   2.211  15.783   5.200  0.2077 -0.0790  0.0066
14173W        W32377   8.695  15.860  16.449 -0.1629  0.0005 -0.0105
14174W        W32378  15.946   8.159  15.662  0.3702  0.2889 -0.0559
14175W        W32379   5.218   2.081   1.468 -0.1654  0.1936  0.1980
14176W        W32380   0.549   4.569   4.393  0.3057 -0.0243 -0.1837
14177W        W32381   6.773  10.967  14.469  0.1917  0.3808 -0.0858
14178W        W32382  14.351   6.175  15.116 -0.0509 -0.0220  0.1193
14179W        W32383   2.385  10.474   2.778 -0.0984  0.0850  0.0667
14180W        W32384  16.627   7.085   2.450 -0.1325 -0.0620 -0.0745
14181W        W32385  11.078  11.601   0.742  0.1322 -0.2794  0.0906
14182W        W32386  11.737  16.765   4.166  0.0249  0.1236 -0.1167
14183W        W32387   0.404   4.217   5.053  0.0942  0.4429 -0.0722
14184W        W32388   0.049   1.808   1.144  0.0164 -0.0891  0.1325
14185W        W32389  11.108   5.726  15.594  0.2260  0.1376  0.0636
14186W        W32390   2.423   5.295  15.509  0.0622 -0.0785 -0.1262
14187W        W32391  15.007  15.517   4.862  0.4113 -0.0970 -0.0957
14188W        W32392  16.161  10.576   3.745 -0.0292  0.0966  0.0669
14189W        W32393   9.181  13.307   1.333 -0.1557  0.0189  0.1776
14190W        W32394  12.206   3.405  14.788 -0.1707  0.1386 -0.0072
14191W        W32395  14.022  16.722  16.649  0.0561  0.1647 -0.0664
14192W        W32396   6.299  17.280  13.458 -0.0900 -0.2280  0.0259
14193W        W32397  14.371   6.767  16.112  0.2332  0.0513  0.2709
14194W        W32398  15.182   5.233   1.099 -0.0305 -0.0922 -0.2740
14195W        W32399  11.437   2.111   4.361 -0.2128  0.0433 -0.0396
14196W        W32400   8.389   4.870  15.967  0.1738 -0.0270 -0.2033
14197W        W32401   2.562   8.276  12.449 -0.1638  0.1064 -0.0040
14198W        W32402  15.067   3.590   2.528  0.4059  0.1920 -0.0907
14199W        W32403   9.727  11.264   2.201 -0.0483  0.1378 -0.1437
14200W        W32404  13.816  15.873   1.424 -0.0144 -0.2763 -0.0601
14201W        W32405   1.254  16.628   0.084 -0.1029  0.2203  0.1162
14202W        W32406  12.909  11.424  16.344 -0.0973  0.4532 -0.0053
14203W        W32407  12.464   2.332  14.369 -0.1693  0.0663 -0.0371
14204W        W32408  13.440  10.058  13.500  0.0917 -0.2760  0.0685
14205W        W32409  14.220   2.560  13.902 -0.3912  0.0369  0.1022
14206W        W32410   2.129   2.564  16.005  0.3567 -0.2224 -0.1287
14207W        W32411   3.109   8.481   3.812  0.1297 -0.0358 -0.3366
14208W        W32412   9.630   0.886  16.615  0.0643  0.1777  0.1582
14209W        W32413   4.217   4.363  15.718 -0.0724 -0.2939  0.1329
14210W        W32414  14.676  13.190   1.825  0.3374 -0.1934 -0.4446
14211W        W32415  14.538  15.068   4.390  0.1210  0.1683 -0.2609
14212W        W32416   4.457   8.836   0.734  0.0032 -0.3710  0.1084
14213W        W32417   4.821   4.476  17.496  0.3386 -0.0240 -0.0503
14214W        W32418  12.375   7.009  17.275 -0.3668  0.0779 -0.0542
14215W        W32419   2.434   6.765   3.320  0.0060  0.1185  0.2747
14216W        W32420  11.981   6.035   3.659 -0.0024 -0.1169  0.0543
14217W        W32421   3.699   7.718  15.147  0.2092  0.0505 -0.1472
14218W        W32422  11.329  16.884  15.511 -0.0209  0.0805  0.3038
14219W        W32423   9.045  11.899   5.181  0.0020 -0.0113 -0.2829
14220W        W32424  14.356   7.256  16.056  0.0498 -0.0446 -0.1760
14221W        W32425  17.045   9.151   4.998  0.1676  0.1536 -0.0538
14222W        W32426  12.005  16.361   5.465  0.1018  0.1104 -0.2143
14223W        W32427   0.225  10.266  14.637  0.1429  0.1819 -0.1412
14224W        W32428  15.593  16.948   1.363 -0.0841 -0.3991  0.0676
14225W        W32429  15.336  10.247   4.705 -0.0566 -0.1364  0.1812
14226W        W32430   3.055  11.783  13.449  0.2353  0.0227 -0.1370
14227W        W32431   0.450   5.437   2.639 -0.3198 -0.2427 -0.1082
14228W        W32432  10.918   3.639  17.050 -0.0346  0.1959 -0.1037
14229W        W32433   5.099   4.055   0.452  0.3174  0.0581  0.2152
14230W        W32434   7.140   0.295   4.603 -0.4291 -0.1490 -0.1980
14231W        W32435   3.140   9.651  13.818  0.0142 -0.0139 -0.0074
14232W        W32436   3.804   7.832   2.708 -0.0234  0.3290  0.2654
14233W        W32437  13.014  13.728   3.504 -0.0253 -0.2799 -0.1754
14234W        W32438   1.643   2.079   1.926  0.1323  0.0823  0.1815
14235W        W32439   1.939   1.749   3.678 -0.2076 -0.1398  0.1066
14236W        W32440  16.839  10.867   0.437 -0.0509  0.1336  0.1499
14237W        W32441  17.165  11.447  12.668  0.1627  0.0073  0.0170
14238W        W32442   5.854  17.049   2.168 -0.1606  0.0479 -0.1016
14239W        W32443  15.013   6.135  13.761 -0.3145 -0.1227  0.1598
14240W        W32444   5.367  16.389  12.314  0.2383  0.0463  0.2582
14241W        W32445  15.047   5.177   3.433 -0.0986 -0.0867  0.3654
14242W        W32446   8.747  12.687   4.629  0.2498  0.0958 -0.1796
14243W        W32447   5.385   7.370  16.626 -0.1790  0.0794 -0.2657
14244W        W32448   2.105   0.015   5.110  0.0285 -0.1554  0.2056
14245W        W32449   0.682   6.470  14.878 -0.1728 -0.1337 -0.1837
14246W        W32450  15.116  13.673  16.118 -0.0468 -0.1576 -0.0208
14247W        W32451  12.643  14.802  16.746 -0.4040 -0.1388 -0.0971
14248W        W32452   8.641   7.829  11.922  0.0020 -0.2705 -0.2781
14249W        W32453   6.432   1.268   5.128  0.1289 -0.0493  0.1207
14250W        W32454   4.524   4.163   5.320  0.0460 -0.3377 -0.3500
14251W        W32455   1.435  13.724   1.457 -0.0122 -0.0640 -0.0534
14252W        W32456   8.901  14.641   3.937 -0.2650 -0.0496 -0.0176
14253W        W32457   9.272   0.140  12.239  0.0999 -0.1281 -0.0967
14254W        W32458   3.598   1.110   4.282  0.1737 -0.1291 -0.0467
14255W        W32459  16.609  14.952   0.316 -0.2090 -0.0813  0.0149
14256W        W32460   2.917  12.100  14.357 -0.0124  0.2482 -0.1223
14257W        W32461   2.552  11.122   4.339 -0.0538 -0.1551 -0.0615
14258W        W32462   8.411   3.726   4.098 -0.1647 -0.1395  0.3285
14259W        W32463   1.051   1.032  12.827 -0.1643 -0.1387 -0.2212
14260W        W32464   5.512   8.894   5.141  0.1047  0.0705 -0.1187
14261W        W32465  12.409  10.368  16.656  0.1077  0.1659  0.1540
14262W        W32466   9.233  14.274   5.341  0.0046 -0.0877 -0.1134
14263W        W32467   2.791   2.648   1.060  0.0164  0.3021  0.2504
14264W        W32468   4.229  16.403  15.875  0.1635  0.0505  0.1664
14265W        W32469   9.429  10.874   5.210  0.3767  0.3425  0.0458
14266W        W32470   5.944  12.254   0.532  0.0140  0.0186 -0.0790
14267W        W32471  17.213  14.019   2.982 -0.0225 -0.2350  0.0385
14268W        W32472  16.690  11.091  14.321  0.1691  0.1577  0.0611
14269W        W32473   1.800   1.230   4.645  0.0057  0.0447  0.3979
14270W        W32474   1.685  11.468   3.988  0.0014 -0.0185 -0.0049
14271W        W32475   5.374   1.430   2.656 -0.2398 -0.1324 -0.1120
14272W        W32476  14.406   4.118  16.781 -0.1660  0.3870 -0.1402
14273W        W32477   3.586  13.140   1.940 -0.0186 -0.1098 -0.0534
14274W        W32478  15.551  16.409  16.562 -0.2456 -0.0446 -0.0109
14275W        W32479   8.199  14.681   1.530 -0.2800  0.1243 -0.3230
14276W        W32480   9.549   3.070   5.184 -0.1993  0.1340  0.1164
14277W        W32481  15.856  15.336  16.573  0.1875  0.1703  0.2294
14278W        W32482   7.191  15.639   4.899 -0.1402 -0.1514  0.2319
14279W        W32483   7.118  12.175  12.857 -0.0453 -0.2702 -0.0554
14280W        W32484  11.740  16.915   4.700 -0.0896  0.1201  0.0308
14281W        W32485  16.892   1.678  15.356 -0.1056 -0.1227  0.3083
14282W        W32486  14.179  15.208   5.172 -0.2254 -0.2254  0.1911
14283W        W32487  15.379   9.803   3.890  0.0657 -0.2936 -0.0506
14284W        W32488  15.162  12.551   1.148  0.1962  0.0475  0.0480
14285W        W32489   5.251   6.994  14.347  0.0288  0.0014 -0.0418
14286W        W32490   9.601   6.080  12.451  0.1878 -0.3237 -0.0976
14287W        W32491   3.363   0.578   2.780  0.0637 -0.1058  0.0457
14288W        W32492  13.825  12.015  17.015 -0.3054  0.0632  0.2706
14289W        W32493   4.135   6.719  16.816  0.1224 -0.0648  0.1891
14290W        W32494   1.741  16.188  14.108  0.1676  0.3558 -0.1566
14291W        W32495   2.943  13.127  14.346  0.0701  0.0015  0.1441
14292W        W32496   6.062  12.157   3.463  0.0004 -0.0321  0.2400
14293W        W32497   2.868  14.546   0.385  0.1288  0.0433 -0.1210
14294W        W32498   8.303  16.299  14.002  0.0476 -0.0010 -0.2188
14295W        W32499   4.031   4.315  14.243  0.0187 -0.2417  0.0775
14296W        W32500   2.861  15.279  12.776 -0.1707 -0.0461  0.1291
14297W        W32501   9.902   3.192   2.421 -0.2363 -0.2489 -0.0035
14298W        W32502   3.033   2.929   3.911 -0.0289 -0.2986  0.2790
14299W        W32503  12.593   7.495   3.291 -0.0360 -0.0747  0.0188
14300W        W32504   2.589   6.355  13.331 -0.0472  0.0985 -0.1368
14301W        W32505  16.294  14.695  16.476  0.0128 -0.0626 -0.0875
14302W        W32506   7.340  13.897  15.529  0.0062  0.0294  0.0959
14303W        W32507   8.512  10.577   5.133 -0.0905  0.0428 -0.1815
14304W        W32508  14.947  11.002   3.014  0.0095  0.2328  0.1276
14305W        W32509   3.161   5.862  15.412 -0.1081 -0.1902  0.0824
14306W        W32510   5.347  13.977  16.228 -0.0555  0.1833 -0.0657
14307W        W32511   8.047   3.830  15.995  0.2545  0.1647  0.3587
14308W        W32512  10.152   4.684  14.698 -0.0711  0.0356  0.0262
14309W        W32513   7.550   0.134  12.951  0.1402  0.1842  0.1378
14310W        W32514  10.221  10.903   4.973  0.0196 -0.2100  0.0503
14311W        W32515   7.421   4.294  14.064  0.3882 -0.1965 -0.1866
14312W        W32516   5.743   9.074   4.162 -0.0943 -0.0064  0.2166
14313W        W32517  14.925   0.466  14.287 -0.1556 -0.0602 -0.0659
14314W        W32518   5.395   0.106  13.978  0.0033 -0.2379 -0.1369
14315W        W32519  16.577  14.120   2.304  0.0308  0.0071 -0.0916
14316W        W32520   6.964   4.900  14.772 -0.0664 -0.1388  0.0205
14317W        W32521   7.331   5.214   0.984 -0.0135  0.0990  0.1853
14318W        W32522   8.557  15.387  14.562 -0.3125  0.1581  0.2380
14319W        W32523  13.154  13.177  13.097  0.0988  0.3237 -0.1008
14320W        W32524   6.693  15.887  15.659 -0.2524 -0.1319  0.2769
14321W        W32525  17.094   8.271   2.178 -0.3670 -0.1964 -0.2536
14322W        W32526   7.364   3.102  12.614 -0.0042 -0.0096 -0.0966
14323W        W32527  11.780  14.532   0.304 -0.2203 -0.0107  0.2496
14324W        W32528  10.139   7.450  16.516 -0.3402  0.0663  0.0133
14325W        W32529   4.389   8.805  15.449 -0.3535 -0.1676 -0.1625
14326W        W32530  11.955  17.194   4.231 -0.1189  0.1453 -0.2778
14327W        W32531  10.240  12.847  16.041  0.1232  0.0520 -0.1361
14328W        W32532  14.725  11.940  15.115  0.1668  0.1472  0.1045
14329W        W32533   5.947   0.722   3.171  0.0249 -0.1011  0.0362
14330W        W32534   6.172  12.478   1.307  0.0325 -0.2121 -0.3919
14331W        W32535  17.230  14.774  16.001  0.0456 -0.1516 -0.0027
14332W        W32536   2.182   7.513  12.046  0.0033  0.0837 -0.1858
14333W        W32537  12.970  13.655  15.935  0.0871 -0.1288  0.2060
14334W        W32538  17.294  13.629   4.777  0.3099 -0.0966  0.1924
14335W        W32539   1.725   1.220   1.764  0.1469  0.0371  0.1293
14336W        W32540  12.712  14.409  16.327  0.2936 -0.3988  0.0716
14337W        W32541   9.261  13.380   5.364 -0.1324 -0.2942 -0.2856
14338W        W32542   1.634   4.276  14.374  0.0790 -0.0041  0.1522
14339W        W32543  15.616   0.947  14.458  0.1827 -0.2422  0.0550
14340W        W32544   4.072   8.825   4.624 -0.0336  0.0797 -0.0084
14341W        W32545   7.756   3.903   4.648 -0.1412  0.0867 -0.0465
14342W        W32546   7.806   2.722   3.185  0.0141  0.1237  0.1239
14343W        W32547   8.662  16.812  15.782  0.1599  0.0950  0.2855
14344W        W32548   3.042  10.093  12.825  0.1234  0.0335 -0.0910
14345W        W32549  13.743   4.392   4.578 -0.1165 -0.0570  0.2673
14346W        W32550  12.673   1.071  14.461  0.0969 -0.1247  0.0822
14347W        W32551  11.575   0.405   2.042  0.2411 -0.2087 -0.0498
14348W        W32552  12.996   3.900  15.979 -0.0740  0.1328 -0.2688
14349W        W32553  10.506  16.377  15.799 -0.0691  0.1260  0.1053
14350W        W32554   0.933   6.944  14.921 -0.1343  0.0577  0.0279
14351W        W32555  16.471   8.940   1.561 -0.4727  0.1199  0.2035
14352W        W32556   9.389   6.923  16.587  0.1446  0.2727  0.3894
14353W        W32557  12.796   0.430   4.326 -0.0265 -0.2729  0.2407
14354W        W32558   1.436   5.728  14.142 -0.2628  0.2115 -0.0781
14355W        W32559   7.324   4.949   0.378 -0.0983 -0.2325  0.0770
14356W        W32560  16.702   9.637   2.193 -0.0721  0.0765  0.2737
14357W        W32561  12.891  15.095  14.883  0.0317  0.0101 -0.0206
14358W        W32562   7.737  10.914   3.917  0.0842 -0.0380  0.1354
14359W        W32563  12.765  12.504   1.719  0.3408 -0.0594 -0.0083
14360W        W32564   6.229  15.002  12.961  0.1930  0.2236 -0.1358
14361W        W32565   0.968  12.848  16.093  0.0678  0.1695 -0.1373
14362W        W32566   4.198   9.747   2.393 -0.1846  0.2642  0.0242
14363W        W32567   4.206   1.481   0.851 -0.1255  0.0340 -0.0124
14364W        W32568   7.056  11.680   2.775 -0.3599  0.0474 -0.1033
14365W        W32569  12.225   2.008  15.308 -0.0026 -0.2647 -0.2026
14366W        W32570   9.173   1.865  12.767 -0.1390 -0.3399  0.0901
14367W        W32571   6.849  12.793   4.118 -0.6318  0.2302 -0.1102
14368W        W32572   5.791  16.358   1.154  0.2294  0.3521 -0.0571
14369W        W32573  14.552  11.314   2.676 -0.1797 -0.2591  0.2923
14370W        W32574  11.376   7.034  14.507  0.0498  0.2055 -0.0197
14371W        W32575   7.040   1.516  12.174 -0.2181 -0.4399  0.0582
14372W        W32576   2.256   9.179  15.867 -0.0277  0.0325 -0.2299
14373W        W32577  12.112   3.657  12.514 -0.1679 -0.0560  0.0271
14374W        W32578  13.762   8.476   3.176 -0.1891  0.0595 -0.3196
14375W        W32579  10.231   5.836  16.148 -0.3589  0.2300 -0.2245
14376W        W32580   9.614  10.704  16.186 -0.5214  0.4485  0.1472
14377W        W32581   8.035   2.868  16.175  0.1906  0.0010 -0.0434
14378W        W32582   8.262  17.235   2.428 -0.0185  0.0690 -0.1583
14379W        W32583  12.781  17.207  16.066  0.2670  0.0905 -0.0030
14380W        W32584   6.929  10.276   4.030  0.3254  0.2029 -0.2085
14381W        W32585  11.328   3.454  17.371 -0.0431  0.2283  0.0488
14382W        W32586   9.903   4.773  13.718  0.0788 -0.0862  0.2951
14383W        W32587   8.567   3.992  17.257 -0.2984  0.2247  0.0567
14384W        W32588   1.989   9.083   3.622 -0.0434  0.1202 -0.1100
14385W        W32589   3.101   0.193   0.834 -0.1551  0.1385  0.1915
14386W        W32590  11.047  14.624  13.751 -0.1937  0.0345  0.0253
14387W        W32591   8.228  13.982   5.181 -0.0101 -0.1510 -0.0268
14388W        W32592   3.384   3.036  16.536  0.1631 -0.1826  0.0771
14389W        W32593   4.384  15.485  13.821 -0.0747 -0.1066  0.1481
14390W        W32594  12.570  15.437   4.508  0.1906  0.2147  0.0340
14391W        W32595   6.376  14.592   1.012 -0.2451 -0.3441 -0.3435
14392W        W32596   9.424   3.664  15.474 -0.1425 -0.1979  0.1564
14393W        W32597  13.529   3.374   2.012 -0.1846 -0.0596 -0.2347
14394W        W32598  15.629  14.889  14.104  0.0349 -0.2916  0.0771
14395W        W32599  14.617   4.226  12.127 -0.1565 -0.0467  0.2267
14396W        W32600  15.521  12.244   4.673  0.0211  0.0246 -0.0433
14397W        W32601  10.062  13.525  14.765 -0.0086  0.1368  0.0803
14398W        W32602   4.190   7.487  17.356  0.1555  0.2052 -0.2054
14399W        W32603   1.720   1.579  17.332 -0.2084 -0.2626  0.0520
14400W        W32604   9.909   1.216  12.705  0.0558  0.1826 -0.0457
14401W        W32605   6.244   0.844  12.111  0.0949  0.1246  0.1502
14402W        W32606   5.308   8.779   4.068  0.1666 -0.1298  0.1289
14403W        W32607   3.662   0.971  14.092  0.0305 -0.2700 -0.2483
14404W        W32608  17.167   3.119   1.314  0.1521  0.0037 -0.0006
14405W        W32609  10.381   1.175  12.500 -0.0782 -0.0587 -0.2541
14406W        W32610  16.349   4.773  14.607 -0.3774 -0.0150 -0.1194
14407W        W32611   8.469   1.777  12.079 -0.0184 -0.0925  0.3398
14408W        W32612   1.020   4.946   0.808  0.4887 -0.0204  0.0063
14409W        W32613  11.303  10.774   4.868 -0.1167  0.3155 -0.0672
14410W        W32614   6.721   2.502  13.903 -0.2874 -0.0244  0.2906
14411W        W32615   0.513  17.249   5.272 -0.2159  0.2219 -0.1057
14412W        W32616   6.255   7.396   1.769  0.0745  0.0988 -0.0421
14413W        W32617  12.433  14.185  13.994 -0.0387  0.0704 -0.3631
14414W        W32618  10.868   7.767   1.983 -0.2421  0.0494 -0.0879
14415W        W32619  11.399   4.758  12.400 -0.0920  0.0551  0.1075
14416W        W32620   2.597  16.301  16.328  0.2449  0.3136 -0.2572
14417W        W32621   9.675   5.587  14.459 -0.0629  0.0058  0.1710
14418W        W32622   3.554  12.761   0.264  0.0646  0.1074 -0.1178
14419W        W32623   7.083   5.581  13.734 -0.0569 -0.1076 -0.2726
14420W        W32624   1.953  15.348   3.826  0.0171  0.0070  0.2807
14421W        W32625   2.784   7.982  13.394  0.0022 -0.3427 -0.0268
14422W        W32626   3.552  14.451  17.357 -0.1322 -0.1199 -0.0193
14423W        W32627  12.063   1.314   4.288  0.1552  0.3868 -0.1461
14424W        W32628  10.299  16.685   3.619 -0.1961 -0.0759  0.0892
14425W        W32629  13.386  11.175  15.689  0.1279  0.1575  0.0119
14426W        W32630  15.460   6.926  16.731  0.3259 -0.4479 -0.1183
14427W        W32631  15.032   9.719  16.844 -0.2072  0.0433 -0.4611
14428W        W32632   0.297  13.238  13.467  0.1140 -0.2144 -0.0915
14429W        W32633  16.274   2.901  14.327 -0.1133  0.0199  0.2426
14430W        W32634   7.946  15.147  17.319  0.0152 -0.0227  0.2256
14431W        W32635  12.924   4.106   4.081  0.1712  0.2187  0.1142
14432W        W32636  14.008  13.254  15.582  0.1844 -0.3372 -0.1427
14433W        W32637  11.325  14.932  16.661  0.0434 -0.1025  0.2122
14434W        W32638  10.768   9.570   4.844  0.0538 -0.0168  0.3598
14435W        W32639   8.898  17.097   3.832  0.1781 -0.2588 -0.1387
14436W        W32640  12.289   4.913   0.258  0.0046 -0.0282 -0.1380
14437W        W32641  12.397   2.783  14.010 -0.2835  0.0476  0.2355
14438W        W32642  16.360   1.926  16.177 -0.3123  0.2075 -0.2633
14439W        W32643  15.003   7.209  12.480 -0.0932  0.1046  0.0716
14440W        W32644  13.123   8.855  14.251  0.1971  0.0881 -0.1480
14441W        W32645   5.241   3.409   0.780 -0.0927 -0.0275  0.0266
14442W        W32646  12.678   2.903   1.708  0.0520 -0.4877 -0.1090
14443W        W32647   5.278   3.785  14.725  0.0006  0.2362 -0.1965
14444W        W32648  11.526   7.269   1.775  0.0542 -0.0710 -0.0978
14445W        W32649  10.440  12.991   5.065  0.5585 -0.3144  0.1436
14446W        W32650   0.978  13.696  16.518 -0.1045  0.1367  0.2329
14447W        W32651   4.849   9.791  17.045  0.2082  0.3772  0.0821
14448W        W32652  15.623   6.017   3.645 -0.0315 -0.1971  0.1759
14449W        W32653   9.140  12.714  17.389  0.0862 -0.2167 -0.3384
14450W        W32654   5.414  10.284   4.757 -0.1366  0.0609  0.0943
14451W        W32655   3.226   5.416   1.312 -0.3718  0.1729 -0.0977
14452W        W32656   7.162   4.027  12.113  0.0936 -0.0798  0.1161
14453W        W32657   5.534   6.553  17.337  0.0506  0.0680  0.2464
14454W        W32658   4.755  10.149  16.139  0.0495 -0.1707  0.0557
14455W        W32659   1.474   9.333   0.656  0.0035  0.1066 -0.0443
14456W        W32660  13.571   0.233  15.486  0.1673 -0.1678 -0.1857
14457W        W32661   2.384  10.316   4.607 -0.3229  0.2584 -0.1717
14458W        W32662  14.790   6.524  15.964 -0.1342  0.0079 -0.0890
14459W        W32663  12.217  14.451   2.292 -0.2190 -0.1573  0.2695
14460W        W32664   5.609  15.022   1.600 -0.1645 -0.1547 -0.2941
14461W        W32665   5.824  17.209   3.676 -0.3035 -0.2376 -0.2394
14462W        W32666  15.446  13.134  15.405 -0.0401  0.0711 -0.0280
14463W        W32667   3.882   6.091   4.318 -0.1896  0.0991 -0.2716
14464W        W32668  13.601  15.533   4.012  0.3046  0.3361 -0.1585
14465W        W32669  15.588   0.119   1.085 -0.2847 -0.1300  0.2040
14466W        W32670   2.036  14.841   2.225  0.0328 -0.1317  0.0843
14467W        W32671   7.722   8.666   4.585  0.1188 -0.2948 -0.3285
14468W        W32672   5.492   4.959  14.429  0.0016  0.2295 -0.4741
14469W        W32673   9.419   1.403   4.643 -0.0537 -0.2026 -0.1911
14470W        W32674  13.791   2.925   2.827 -0.0114  0.0950 -0.0497
14471W        W32675  14.943   8.555   0.764 -0.0376  0.0255 -0.2035
14472W        W32676   2.819   6.321  11.997  0.0719  0.0274 -0.2595
14473W        W32677  11.174  10.446   0.430  0.0354  0.2112  0.0771
14474W        W32678   3.743   2.124   3.852  0.0241 -0.1429  0.3946
14475W        W32679  12.749   1.887  14.462  0.2218  0.2545 -0.5979
14476W        W32680   9.700   7.423   1.073  0.0431 -0.0828  0.1299
14477W        W32681  11.332   4.013  14.784 -0.1295 -0.0069 -0.1706
14478W        W32682   4.527  15.015  14.721 -0.2405 -0.0134  0.1923
14479W        W32683   1.984   0.403   1.201  0.3423  0.1157  0.2447
14480W        W32684   9.524   4.585   2.499  0.0064 -0.0281  0.0719
14481W        W32685   1.014   9.067   0.915  0.0142  0.0835  0.1086
14482W        W32686  13.265  13.392   1.698  0.2394 -0.0703  0.0435
14483W        W32687  12.775   5.934  15.524  0.2677 -0.0862  0.0050
14484W        W32688  11.565  15.958  15.199 -0.1175 -0.1706 -0.0274
14485W        W32689  15.491  13.546  14.194  0.0887 -0.1719 -0.2739
14486W        W32690   8.006  16.164  16.307 -0.0905 -0.2427 -0.2251
14487W        W32691   0.973   8.811   2.803  0.2205  0.0860  0.2155
14488W        W32692  10.990  16.547  14.589 -0.1126 -0.2430  0.0046
14489W        W32693  13.672   8.962   1.443  0.0893  0.1476 -0.3058
14490W        W32694   4.854  16.228   0.479 -0.0543  0.1658 -0.0753
14491W        W32695   6.533  13.288   1.690  0.1178 -0.1010  0.0063
14492W        W32696  15.858   4.705  14.561 -0.2042 -0.0676 -0.1107
14493W        W32697  13.590  13.180   0.129 -0.1327 -0.0586  0.1864
14494W        W32698  13.465   3.716   5.364 -0.0713 -0.0071  0.2211
14495W        W32699   2.554  11.555  15.945  0.0633 -0.1290  0.3183
14496W        W32700   6.452  13.582   2.988 -0.3075 -0.1924  0.0054
14497W        W32701   3.038  15.124  14.156 -0.0670  0.2527 -0.1731
14498W        W32702  11.921   8.178  14.715 -0.1559 -0.2126 -0.0876
14499W        W32703  17.003  12.809   2.244  0.0350  0.0585  0.2092
14500W        W32704   5.018   0.655   0.744 -0.2166  0.1073 -0.1626
14501W        W32705  16.512   2.930  15.830 -0.1027  0.0056 -0.1549
14502W        W32706  11.473  12.712   4.092 -0.0443 -0.1059  0.0629
14503W        W32707  13.175   4.175  14.034 -0.0272  0.2351  0.3325
14504W        W32708   7.105   8.040   4.790  0.0425  0.0465 -0.0240
14505W        W32709  14.366   2.219   1.705 -0.0226 -0.1924  0.2699
14506W        W32710   4.156   7.565   1.392  0.0783  0.2640 -0.1093
14507W        W32711   4.842   3.162  13.284 -0.1980  0.1936 -0.1586
14508W        W32712  15.462  12.220   3.049  0.1530 -0.0703  0.1378
14509W        W32713   6.663  12.879  16.416  0.1473 -0.4634  0.3023
14510W        W32714   7.874   1.275  15.003  0.1190 -0.0740  0.1264
14511W        W32715   7.869   7.050  12.787 -0.0669  0.2539  0.2533
14512W        W32716   3.920   1.368  16.006 -0.2215 -0.0788  0.1762
14513W        W32717   6.995  11.887   4.057 -0.0544  0.4066  0.0617
14514W        W32718   0.292  15.644  12.623 -0.3316  0.2671  0.0757
14515W        W32719  11.209  12.409  14.411 -0.0710  0.3147 -0.1648
14516W        W32720   4.463  16.720  15.448  0.1817  0.2542  0.1691
14517W        W32721   3.045  16.516  16.443  0.2177 -0.0057 -0.3577
14518W        W32722  13.437  12.725   1.849 -0.0089 -0.1434  0.1148
14519W        W32723   7.348  16.122  11.796 -0.0219 -0.1785  0.0275
14520W        W32724   7.844  10.067  13.338 -0.0087  0.0487 -0.0630
14521W        W32725   5.280   1.705  16.676 -0.0368 -0.0593 -0.1547
14522W        W32726   5.354  12.894  13.021 -0.0829 -0.1642  0.0659
14523W        W32727   0.246   3.959   3.777  0.0034 -0.1557 -0.0407
14524W        W32728  16.933   2.755  17.152 -0.1226  0.0061  0.0600
14525W        W32729   2.013  16.684  17.393  0.4551 -0.1155 -0.2764
14526W        W32730   7.591  15.608  13.145  0.3783 -0.1508 -0.1152
14527W        W32731   7.624  10.858  12.615 -0.2356 -0.1145 -0.0731
14528W        W32732   2.408  15.568  16.121  0.2669  0.0134 -0.1999
14529W        W32733   8.693  13.269  15.380  0.0756 -0.1662 -0.1400
14530W        W32734  16.834   5.858   1.058 -0.1918  0.2744 -0.0791
14531W        W32735  13.984   1.110   5.216 -0.3372  0.0106  0.1091
14532W        W32736  11.208  15.414  16.856 -0.1681  0.0245  0.2807
14533W        W32737  13.019  11.357   3.284 -0.1839 -0.2476 -0.0682
14534W        W32738   7.978   2.668  15.618  0.1737  0.0262 -0.2026
14535W        W32739   9.443  15.682   5.244  0.2536 -0.1134 -0.1092
14536W        W32740   1.011  10.563  13.799  0.0048  0.1467 -0.2640
14537W        W32741  15.665   8.541   1.883  0.2528 -0.1551  0.0831
14538W        W32742   7.136   8.973   0.464  0.1349  0.2965 -0.0010
14539W        W32743  12.996  12.710  14.163  0.0332  0.0294  0.0693
14540W        W32744   9.825  11.950  17.167  0.1925 -0.2278  0.3926
14541W        W32745   4.341   6.499  16.371  0.1797  0.1059 -0.1238
14542W        W32746  12.416   6.449  15.414  0.0883 -0.1783  0.0500
14543W        W32747   8.631  11.410  17.437 -0.1701  0.0222  0.1882
14544W        W32748   8.674   0.765  15.430 -0.2220 -0.2190 -0.1406
14545W        W32749   4.727  16.418   1.857  0.1153  0.1434  0.2148
14546W        W32750   6.687   0.154  17.288 -0.2163 -0.0657  0.0942
14547W        W32751  17.159   5.289   3.396  0.1927  0.2852  0.0441
14548W        W32752   0.184   8.395  14.440 -0.0427 -0.2421 -0.0350
14549W        W32753   7.730   7.931  15.221  0.0962 -0.0195 -0.0354
14550W        W32754  16.068  16.633  12.763  0.1961  0.1455 -0.1343
14551W        W32755   7.328  14.783  14.173 -0.0364  0.0349  0.1201
14552W        W32756   1.516   4.050   3.548 -0.0633  0.0471  0.3768
14553W        W32757   3.378  12.363  15.552 -0.1960 -0.1449 -0.0073
14554W        W32758  16.636   4.895  13.065 -0.2504  0.1259  0.0954
14555W        W32759   9.633  16.045   4.979 -0.0769  0.2107  0.1611
14556W        W32760  11.564  10.835   2.777  0.2676 -0.0041  0.2356
14557W        W32761  17.245   6.175   4.257 -0.2650 -0.0233  0.0099
14558W        W32762  16.612   9.034   0.034  0.1269 -0.1963 -0.0041
14559W        W32763  12.809   4.037  10.923 -0.0551 -0.0615  0.1056
14560W        W32764  16.283  11.759  15.993 -0.1294 -0.1472 -0.0513
14561W        W32765   2.760   7.266  17.312 -0.0962 -0.0615 -0.1880
14562W        W32766  10.603   3.811   4.908  0.0912 -0.0637 -0.3017
14563W        W32767  11.005   7.834   4.829  0.0946  0.1635 -0.1453
14564W        W32768  14.891  11.015  16.582 -0.1438 -0.2404 -0.1650
14565W        W32769  14.016   5.278   4.491  0.0860 -0.2152 -0.0364
14566W        W32770  16.608   4.652   0.916  0.2796  0.1592 -0.1177
14567W        W32771  15.327   7.796   0.731 -0.0264 -0.0975 -0.1400
14568W        W32772  14.325   3.795  12.119 -0.4186  0.0025  0.0742
14569W        W32773  15.600   2.026  15.563  0.1373  0.3743 -0.1692
14570W        W32774  13.908   2.297  14.884  0.0533  0.0510  0.0240
14571W        W32775   8.553  16.916   2.664  0.2233  0.0513  0.0991
14572W        W32776   1.456  16.190   4.189 -0.1365  0.0984 -0.1949
14573W        W32777  13.436  15.426  12.031  0.4409  0.1494  0.2947
14574W        W32778  13.875   4.049   4.226  0.3438  0.1794  0.1641
14575W        W32779  16.616   4.512  13.566  0.0026  0.0771 -0.0598
14576W        W32780   3.370   5.716   1.690  0.1442 -0.0790  0.0992
14577W        W32781  14.363   4.967  16.574 -0.1415  0.0833 -0.1444
14578W        W32782  11.542  12.849  12.251 -0.0342 -0.1995 -0.0802
14579W        W32783  12.271   9.903  14.799 -0.1601  0.3348  0.1069
14580W        W32784  10.835   9.204   5.145  0.0015  0.3455  0.1054
14581W        W32785  15.207  13.349   1.857 -0.3404  0.2493 -0.0476
14582W        W32786  11.838  14.195  12.747  0.4381 -0.0756  0.0662
14583W        W32787   7.380  14.301  13.215 -0.2200  0.0644 -0.1982
14584W        W32788  13.744   7.039  11.899 -0.0540 -0.0663 -0.2943
14585W        W32789  12.299  15.997  13.243 -0.0108  0.3765  0.2025
14586W        W32790   6.585  13.624   3.676 -0.4760 -0.1237 -0.2806
14587W        W32791   0.145  13.822   1.400 -0.2276 -0.1186  0.0558
14588W        W32792  11.977  13.354  15.181 -0.1173 -0.0084 -0.0001
14589W        W32793  17.133  10.499  12.738 -0.0572  0.0559 -0.0591
14590W        W32794   5.361   7.782   1.717  0.0741 -0.1376 -0.0761
14591W        W32795   0.642   3.591  12.956  0.0800  0.0084 -0.0135
14592W        W32796   6.253   8.572   1.604  0.0130  0.1929 -0.0371
14593W        W32797  11.575  16.366  16.736  0.2819 -0.1924  0.0331
14594W        W32798   5.500   9.141   1.259 -0.1846 -0.0539 -0.1754
14595W        W32799  14.298   0.229  17.219  0.1096  0.1513  0.2520
14596W        W32800   3.406  17.270   0.221 -0.0300 -0.0481 -0.1666
14597W        W32801  13.378   1.063  13.747 -0.1223  0.0896 -0.1684
14598W        W32802  12.434   1.398  13.320  0.1409  0.0767  0.0501
14599W        W32803   8.071   1.956  15.723  0.3032 -0.1481  0.3055
14600W        W32804   1.120  16.585   4.060  0.1014  0.2524  0.0440
14601W        W32805  13.710   8.181  14.006 -0.2197  0.0685  0.0396
14602W        W32806  17.133   1.033  15.194 -0.2599 -0.1183  0.1374
14603W        W32807   3.643  11.346  15.249  0.0065 -0.0288 -0.0920
14604W        W32808  11.740  14.316  13.283 -0.1605 -0.0488 -0.2101
14605W        W32809   9.282   4.111   4.253 -0.0576 -0.1989 -0.0273
14606W        W32810  14.235   5.137   3.272  0.1621  0.0621 -0.0240
14607W        W32811   3.802   9.680   2.905  0.1599 -0.0127  0.2331
14608W        W32812  15.837   2.065   4.245 -0.1366  0.0805  0.0351
14609W        W32813   6.752   9.174   0.697 -0.0105 -0.1366 -0.1593
14610W        W32814  16.366   9.689  12.870 -0.1440 -0.0708 -0.0204
14611W        W32815  13.960   5.911   2.943 -0.0141  0.1139 -0.0449
14612W        W32816   0.631  10.101  13.753  0.1306  0.0086 -0.0667
14613W        W32817  13.695   1.476   1.037 -0.4732  0.1087  0.0057
14614W        W32818   1.448  12.623   3.456 -0.2883 -0.2187  0.1727
14615W        W32819   4.037   9.639   4.006 -0.0474 -0.0352  0.1061
14616W        W32820  14.571   1.613  14.936 -0.3343  0.1393  0.3045
14617W        W32821   5.398  16.340  13.733  0.0699 -0.0741 -0.1072
14618W        W32822   0.830   0.887  15.170  0.1357 -0.2728  0.2140
14619W        W32823   7.224   3.706  17.005  0.0866 -0.1638  0.0755
14620W        W32824   6.332   8.766   2.931  0.0948  0.0581  0.2533
14621W        W32825   3.805  14.114   4.559 -0.0104 -0.1108  0.0321
14622W        W32826  14.561  10.693   3.828 -0.0332 -0.0924 -0.1236
14623W        W32827  12.695   5.651   2.717 -0.1314 -0.0354 -0.0848
14624W        W32828   2.693   8.285  16.336 -0.1162 -0.0431  0.0478
14625W        W32829   7.214  13.386  17.001  0.1163  0.1057  0.0603
14626W        W32830  13.276   7.236   1.317  0.0669  0.0310 -0.3230
14627W        W32831   0.187   9.379   0.310 -0.2156  0.0611  0.0951
14628W        W32832   0.771   0.882   0.069 -0.4410  0.1674 -0.0101
14629W        W32833   5.671   9.275  14.388 -0.1212 -0.1815 -0.2591
14630W        W32834  14.139   2.702   1.511  0.2638  0.1172  0.0363
14631W        W32835  11.880  14.859   6.057 -0.1665 -0.2307  0.0116
14632W        W32836  10.540   0.213   3.974 -0.0083 -0.0204  0.1447
14633W        W32837   1.343   7.686  17.285  0.0526 -0.2505  0.1064
14634W        W32838  12.029   1.974   3.595  0.2852  0.0413  0.1780
14635W        W32839   9.929  17.285  13.949  0.1562  0.2744 -0.1493
14636W        W32840  11.656  17.269  14.658 -0.1190 -0.1523 -0.3393
14637W        W32841   1.983   0.951  16.069  0.2667  0.2259 -0.0674
14638W        W32842   1.006  13.685   1.734 -0.1070  0.0974 -0.1847
14639W        W32843  14.185   6.396  13.717 -0.1645  0.0390 -0.0061
14640W        W32844   8.566   3.356   0.519 -0.1552 -0.1202 -0.1084
14641W        W32845   6.759   3.635   0.436 -0.0761 -0.1159 -0.1318
14642W        W32846   6.690   2.940  13.512 -0.0884 -0.2913 -0.1497
14643W        W32847   9.767   7.992  12.469  0.1148 -0.0596 -0.1315
14644W        W32848   0.612   4.605   0.606 -0.0853 -0.2606  0.1224
14645W        W32849   6.400   8.468  15.058  0.1803  0.1608 -0.0627
14646W        W32850  14.433   4.595  12.764  0.1003 -0.2245 -0.0730
14647W        W32851   7.768   4.824   1.764 -0.1421  0.0602  0.0174
14648W        W32852  13.451   5.986   3.713 -0.2038 -0.0744  0.2376
14649W        W32853   6.253   2.044   1.224 -0.0818 -0.0988  0.4145
14650W        W32854   2.151   2.537   0.952 -0.0742  0.0586 -0.0772
14651W        W32855   9.360   8.309  15.284 -0.0594  0.0732 -0.0132
14652W        W32856   7.107  13.503  14.831 -0.1280  0.0194  0.1498
14653W        W32857   2.391   6.073  17.385 -0.0635  0.0114 -0.1695
14654W        W32858  15.857   6.060  16.654  0.1103 -0.1339  0.1232
14655W        W32859   1.090   7.733   3.779  0.0719 -0.1784  0.1733
14656W        W32860  16.436   7.941   1.664  0.0610 -0.0584  0.0953
14657W        W32861  11.010  14.890   1.854 -0.0155  0.2573 -0.0070
14658W        W32862   5.072   5.392   2.529  0.0600  0.1926 -0.0417
14659W        W32863  16.159  13.054   1.873 -0.0057  0.0996 -0.1443
14660W        W32864  12.443   4.268   4.006  0.3124 -0.2798  0.2687
14661W        W32865   7.753   0.263   3.241 -0.0730 -0.0787  0.2814
14662W        W32866   8.427  16.008  17.366  0.0949 -0.1241 -0.0282
14663W        W32867   7.030   4.655  16.136  0.2594  0.2428  0.1382
14664W        W32868   6.664   7.570  15.867  0.1127 -0.1356  0.2936
14665W        W32869   9.871  13.561  16.067 -0.5188 -0.3056 -0.0039
14666W        W32870   0.785   5.763   0.875 -0.1712 -0.1014  0.0370
14667W        W32871   1.738   8.556   0.823  0.1368  0.2895 -0.1971
14668W        W32872   6.528  16.415   3.248  0.1318 -0.0390  0.0440
14669W        W32873  12.799   4.895   2.897 -0.1241 -0.2656 -0.2126
14670W        W32874   6.090  17.276   1.172  0.1488  0.1677  0.2455
14671W        W32875  10.245   4.601  12.331  0.0344 -0.0492 -0.1167
14672W        W32876  15.560   0.364  12.275  0.2256  0.0374 -0.0647
14673W        W32877   6.992  14.004   0.763  0.0765  0.0876  0.0707
14674W        W32878  15.062   4.471  12.151  0.2255 -0.2069  0.0313
14675W        W32879  12.416   0.902  12.429 -0.1458 -0.2091 -0.0214
14676W        W32880   6.395  16.493  16.087  0.1695  0.0275 -0.1048
14677W        W32881   3.438  16.662  15.202 -0.0553 -0.1276  0.0073
14678W        W32882  12.719  14.243  12.884  0.0020 -0.0367 -0.0183
14679W        W32883  16.130  14.621   5.486  0.1354 -0.1263  0.2569
14680W        W32884  15.369   5.721  13.272  0.2875  0.0233 -0.0874
14681W        W32885   7.329   4.528   0.644 -0.1057 -0.0068  0.0354
14682W        W32886   5.246  14.817   4.982  0.3686 -0.3415  0.1135
14683W        W32887   4.962  17.008  12.768 -0.0342 -0.1465  0.1443
14684W        W32888   8.962   6.208   0.840  0.0186  0.2307  0.1348
14685W        W32889   1.537   8.288   4.503 -0.2248 -0.2212 -0.2769
14686W        W32890  11.732  10.777  12.342  0.0772 -0.0151  0.2379
14687W        W32891  16.405  11.348   4.190  0.4269 -0.0096 -0.0056
14688W        W32892  16.374  15.131  15.770  0.1017  0.0745 -0.0835
14689W        W32893  13.453   7.514  15.167 -0.2119 -0.0689  0.2453
14690W        W32894   9.775   9.909  17.447  0.0657 -0.1966  0.0930
14691W        W32895   6.701   5.644   1.610 -0.3492  0.0382 -0.3603
14692W        W32896  11.306  14.763   1.131 -0.0061  0.2128  0.2453
14693W        W32897  13.661   9.813   0.283  0.3185 -0.0568 -0.0814
14694W        W32898   2.594  12.497  15.868  0.3959 -0.1166 -0.1413
14695W        W32899   9.404   1.810  13.622  0.1511  0.1127  0.3146
14696W        W32900  14.527   6.772   1.523  0.1663 -0.1361  0.0229
14697W        W32901   1.811  12.065   1.375  0.0510 -0.0752 -0.2428
14698W        W32902   6.371  16.867  16.448  0.2567 -0.0493 -0.4515
14699W        W32903  12.893   9.114  16.116 -0.0500 -0.1263  0.0051
14700W        W32904  13.672  15.696  16.681  0.1459  0.0540 -0.1539
14701W        W32905  13.915  15.769  12.376  0.0718  0.1054 -0.3299
14702W        W32906  15.924  12.129  13.833 -0.1191 -0.0481 -0.0750
14703W        W32907  10.603   4.640   3.797  0.0403 -0.1195  0.1871
14704W        W32908  11.539   0.394  16.040 -0.0373  0.3419  0.1961
14705W        W32909  12.314   5.984   4.325  0.2289  0.1173 -0.2773
14706W        W32910   9.855  14.349   5.579 -0.0453  0.1045  0.2878
14707W        W32911   0.180  16.137   1.343 -0.0300  0.1111 -0.0636
14708W        W32912  10.304   1.595   4.451  0.3013  0.1006  0.1562
14709W        W32913  14.361  16.499   3.146 -0.0480  0.2226 -0.0732
14710W        W32914   7.001   6.146   0.174  0.0559  0.0391  0.3435
14711W        W32915   5.421  13.038   5.303  0.1331 -0.2761  0.2434
14712W        W32916  12.699   6.456   4.937 -0.1520  0.4040  0.0422
14713W        W32917   0.857  14.477   0.534 -0.0310 -0.2016 -0.1106
14714W        W32918  12.637   1.182   5.164  0.1130 -0.0074 -0.0317
14715W        W32919   8.745   9.743   3.016 -0.1863 -0.1903  0.3347
14716W        W32920   4.815   5.972  12.278  0.0846  0.3058  0.1454
14717W        W32921   6.173   4.565  13.642  0.3548  0.3670 -0.1225
14718W        W32922   7.117  16.499   2.930 -0.1979  0.3368  0.1644
14719W        W32923   8.583  13.307  13.352  0.1290 -0.0360  0.2936
14720W        W32924   8.552  11.397   3.943  0.0298  0.2399 -0.0572
14721W        W32925   9.245   1.359   1.631 -0.2424  0.0559 -0.1502
14722W        W32926   2.933   7.628  16.068 -0.1075 -0.0848  0.0546
14723W        W32927   3.975   5.594  16.545 -0.0824 -0.0707  0.3642
14724W        W32928  10.156   0.404  14.130 -0.0516  0.2374  0.2082
14725W        W32929   4.703   1.650   2.191 -0.0617 -0.0759 -0.0539
14726W        W32930   4.823  10.656   3.306  0.0116  0.2495 -0.0323
14727W        W32931   5.106  16.893   0.039  0.1172  0.3857  0.0417
14728W        W32932   6.127   4.477  12.871 -0.1106 -0.0797  0.1826
14729W        W32933   3.494   3.668   2.030 -0.0212  0.1706  0.3769
14730W        W32934   6.942   0.551   2.049 -0.1428  0.1284  0.0475
14731W        W32935  10.855  15.171   3.890  0.0499  0.0472 -0.1416
14732W        W32936  13.370  16.157   5.611  0.0825  0.0445  0.2891
14733W        W32937   8.828   4.982  17.492  0.2152 -0.0934 -0.3795
14734W        W32938   7.700   2.554  11.511  0.2269  0.0877 -0.1418
14735W        W32939  12.199   5.551  13.172 -0.1868 -0.0157  0.2157
14736W        W32940   9.868   4.374  15.083 -0.4995 -0.0521 -0.0058
14737W        W32941  10.591  14.348   0.811  0.1294  0.0101  0.3564
14738W        W32942  10.653   2.744  15.367 -0.3315  0.2984  0.3321
14739W        W32943   1.352  14.496  15.284 -0.0781  0.0231  0.5157
14740W        W32944   2.133  12.872  13.243  0.1048 -0.0339 -0.0065
14741W        W32945  13.994  16.508  12.430 -0.1282 -0.0611  0.7327
14742W        W32946   3.724   4.017   4.588 -0.1052  0.2800 -0.0412
14743W        W32947  10.988  15.574   3.064  0.1981 -0.2201 -0.0487
14744W        W32948   7.872  15.610   3.998  0.3056 -0.0227 -0.0134
14745W        W32949  16.594  12.598   0.782 -0.2137  0.2145  0.2456
14746W        W32950   4.529   7.771  13.936 -0.2306 -0.1379 -0.0255
14747W        W32951   6.863  11.456   1.695  0.2635  0.0201  0.1636
14748W        W32952  11.908  10.376   0.322 -0.0705  0.0041 -0.1859
14749W        W32953  14.521  11.046  12.497 -0.1409  0.0087 -0.1603
14750W        W32954   6.246   0.968   2.558 -0.0962 -0.1248  0.0483
14751W        W32955   7.469  12.102   3.941  0.0698  0.2171 -0.0213
14752W        W32956  17.140   6.803  13.981 -0.2616 -0.0513  0.3056
14753W        W32957  13.442   4.780   2.284  0.1565  0.0465 -0.3727
14754W        W32958  14.775   6.625   2.926 -0.0663 -0.0212 -0.2937
14755W        W32959   3.246  16.101  12.931 -0.1213 -0.0896 -0.1265
14756W        W32960  16.953   6.297   1.282  0.1215 -0.1630 -0.1474
14757W        W32961   4.963  14.615  16.401 -0.1316 -0.4928 -0.0694
14758W        W32962  11.000  11.911   3.700  0.0616  0.0566  0.0416
14759W        W32963  13.022  14.341  17.277 -0.2743  0.0246  0.2650
14760W        W32964  14.023  16.070   2.777  0.0503 -0.5124  0.0285
14761W        W32965   4.392  12.612  17.477 -0.0446 -0.1730 -0.2222
14762W        W32966   2.523  11.013   2.368  0.0271 -0.1531  0.0129
14763W        W32967   2.816   6.683   2.172 -0.3337  0.0802  0.1924
14764W        W32968  12.198  17.019  17.059 -0.1935 -0.1537 -0.0067
14765W        W32969   2.288  16.742  16.950  0.2298 -0.0799 -0.2318
14766W        W32970  10.596   6.519   0.133 -0.0888  0.1145  0.0244
14767W        W32971   9.074  13.731  16.036  0.0060 -0.0381 -0.4387
14768W        W32972   3.863   5.479  17.147  0.1489 -0.1117  0.1144
14769W        W32973  16.131   7.118  14.666 -0.3210 -0.1749  0.0872
14770W        W32974   5.417   0.446  13.309 -0.1645 -0.2678 -0.0872
14771W        W32975   0.074  14.645  17.408 -0.0453 -0.2741 -0.1012
14772W        W32976   0.326   2.157  15.278  0.0646  0.0959  0.1739
14773W        W32977  14.561  13.395   3.788  0.0057 -0.0438 -0.1501
14774W        W32978  14.424   6.820   0.984  0.1042 -0.0043 -0.0116
14775W        W32979   2.990   9.042  15.365 -0.0465  0.1409 -0.0167
14776W        W32980   0.214   9.678  13.105 -0.1637 -0.3591 -0.0504
14777W        W32981  10.142  10.800  15.705  0.0179  0.0449 -0.1052
14778W        W32982   6.588   4.504  15.233  0.0888 -0.0040 -0.0370
14779W        W32983  15.273   7.219   0.919  0.0272 -0.3196  0.4238
14780W        W32984  10.317  14.636  16.751  0.1460 -0.0229 -0.0258
14781W        W32985   9.231   7.462   4.723 -0.2173  0.4503  0.0270
14782W        W32986   1.841  15.053  16.489  0.1436 -0.0364 -0.0860
14783W        W32987  13.113   4.592   0.549  0.0949  0.3383 -0.2373
14784W        W32988  15.252   1.046   5.626 -0.4612 -0.3464  0.0413
14785W        W32989  14.361  12.346   5.479 -0.0704 -0.4193  0.0852
14786W        W32990   7.889  13.913   0.315  0.1568  0.0671 -0.0960
14787W        W32991   3.747   0.189  15.548  0.1124 -0.2782 -0.1380
14788W        W32992   8.914  14.019   3.597  0.1622 -0.0330  0.3242
14789W        W32993   3.256  11.755  14.374 -0.1440 -0.0640 -0.2083
14790W        W32994   8.808  16.536  15.403 -0.2152  0.1333  0.0936
14791W        W32995  15.396  10.142  17.479  0.1229 -0.1290 -0.0451
14792W        W32996   4.365   8.262   0.017 -0.1316  0.0132  0.1377
14793W        W32997   2.350  11.947  13.054  0.0517  0.2146 -0.1673
14794W        W32998   9.459   9.800  14.805 -0.2351 -0.2575 -0.0569
14795W        W32999   7.006   8.486   0.302  0.0985  0.1068 -0.1103
14796W        W33000   9.848  11.478  16.941 -0.0040  0.1538  0.0171
14797W        W33001  13.550   2.827   4.904  0.1822 -0.4726  0.0341
14798W        W33002  14.208   0.367  15.287 -0.0473  0.0981  0.0496
14799W        W33003   5.863  17.193  16.664 -0.1256  0.2051  0.2546
14800W        W33004   1.522   7.555   5.624 -0.0143 -0.0845 -0.2528
14801W        W33005   8.195  14.765   2.414 -0.0321 -0.0369  0.0204
14802W        W33006  16.121  15.077  14.137  0.2225 -0.0068  0.0518
14803W        W33007  16.216   2.029  13.970  0.0096  0.1050  0.2201
14804W        W33008  14.326   7.652  15.327  0.1925 -0.1077 -0.0558
14805W        W33009  14.021   1.772  16.995  0.1549 -0.0839  0.0450
14806W        W33010   5.345   9.268  16.464 -0.0711  0.4156 -0.0610
14807W        W33011  13.623   4.643  15.331  0.0201 -0.0104  0.0110
14808W        W33012  13.349  10.087   1.249  0.0252 -0.2514  0.1567
14809W        W33013   2.368   4.827   2.104  0.0858  0.0434  0.0557
14810W        W33014   5.751  16.938   3.245 -0.3108 -0.1291  0.0659
14811W        W33015  11.762   6.280   1.866  0.0773 -0.0151  0.0891
14812W        W33016   1.645   2.588   4.499 -0.0773  0.2416 -0.0071
14813W        W33017   7.405  15.864   1.868 -0.1210 -0.0570 -0.2463
14814W        W33018   8.611   4.462   2.838 -0.2223  0.0665 -0.0296
14815W        W33019   7.671  16.767   0.358 -0.0129  0.2319 -0.1607
14816W        W33020   5.324   1.602  17.239  0.3308  0.0774  0.3391
14817W        W33021   9.996   1.277   2.211  0.0858  0.1235  0.2319
14818W        W33022  12.580   1.099  14.959 -0.0356 -0.2972  0.0080
14819W        W33023  12.831   2.570  13.911 -0.2193 -0.0809 -0.4284
14820W        W33024  13.096   2.340  15.233  0.0557  0.0975  0.1073
14821W        W33025   4.307  14.340  13.214 -0.0310 -0.1772 -0.2040
14822W        W33026   5.469   5.450   5.352 -0.0907  0.0500 -0.0137
14823W        W33027   5.859   7.501   3.612 -0.0473  0.1138  0.1781
14824W        W33028   5.112   9.422  12.182 -0.1678 -0.1493 -0.1711
14825W        W33029   4.965   2.083   2.427  0.0725  0.1334  0.2567
14826W        W33030   3.696  11.390  17.285 -0.1487 -0.3002 -0.2853
14827W        W33031   2.817   4.297  17.406  0.4538  0.2827  0.0216
14828W        W33032   9.906   8.747  17.109  0.0881 -0.2473 -0.0685
14829W        W33033   5.289   2.771  14.848  0.0121  0.1953 -0.2814
14830W        W33034   0.316   7.732   5.745 -0.3495  0.0469  0.2315
14831W        W33035   9.395   9.377  16.533 -0.0480  0.0462 -0.0873
14832W        W33036  10.320  12.859  14.101 -0.0192  0.4124 -0.3470
14833W        W33037  15.679   9.418  12.311 -0.0146 -0.1273 -0.1219
14834W        W33038  11.705   6.970   3.456 -0.0231 -0.0128 -0.0685
14835W        W33039  16.818   7.670  14.407  0.2928 -0.0172  0.0372
14836W        W33040   7.667  15.933  14.727  0.2499  0.1162 -0.0054
14837W        W33041  16.492  14.596  17.445 -0.2330 -0.5416 -0.0149
14838W        W33042  14.847   4.549   2.177 -0.1065 -0.3124 -0.0847
14839W        W33043   9.988   1.121  12.097 -0.1515 -0.0661  0.0464
14840W        W33044   3.999   8.328   2.020 -0.0347 -0.0080  0.1934
14841W        W33045   2.967   4.297   3.596 -0.0626 -0.1983 -0.0103
14842W        W33046   9.300  13.839   2.826  0.3002 -0.1186  0.2432
14843W        W33047  14.528   3.603   1.674  0.4027  0.1003  0.1428
14844W        W33048  10.931   5.960   2.105  0.2585 -0.0640 -0.0985
14845W        W33049  14.612  10.798   2.578  0.0266 -0.0349  0.0497
14846W        W33050  10.700   9.393  15.835  0.1008  0.1072  0.1981
14847W        W33051   0.304   0.671  15.864  0.0901  0.0040 -0.0587
14848W        W33052   2.182  10.410  16.885 -0.1362 -0.0999 -0.3257
14849W        W33053  12.253  13.392   1.486  0.0812  0.1463  0.0042
14850W        W33054   4.392   1.300  12.300 -0.1243 -0.0716 -0.0819
14851W        W33055  12.605   4.403  14.074 -0.2996 -0.0663 -0.0795
14852W        W33056  17.047  10.780  17.000 -0.0234  0.1450 -0.1113
14853W        W33057  10.941  11.997  14.588  0.1422  0.0292  0.1322
14854W        W33058   3.502   9.634  12.485  0.2335  0.1578  0.1862
14855W        W33059   5.635   5.208   2.358  0.2102  0.1525 -0.1465
14856W        W33060  12.526  10.139   5.057  0.0672 -0.0345 -0.0982
14857W        W33061   8.649   7.348   4.028 -0.2570 -0.1728 -0.1780
14858W        W33062   0.752  12.949   0.853  0.0494 -0.1161 -0.0576
14859W        W33063  10.038   3.149   3.454  0.3486 -0.2309 -0.0681
14860W        W33064  13.666  12.943   2.621 -0.1105 -0.0453 -0.2682
14861W        W33065   3.619   4.660  13.962 -0.0347  0.1942 -0.0580
14862W        W33066   0.236  12.261  15.127 -0.1863  0.2312  0.4638
14863W        W33067  15.395  10.648  13.243 -0.1527 -0.2330  0.0139
14864W        W33068   2.311   5.108  14.115  0.2857  0.1583  0.2087
14865W        W33069   7.550  12.395   3.130  0.0738 -0.0049 -0.0108
14866W        W33070   5.935  14.551   3.122  0.0047 -0.1555  0.0591
14867W        W33071   6.686   9.368   1.181  0.2163 -0.1499 -0.0872
14868W        W33072  13.821   2.791  13.070 -0.2365 -0.0990  0.1342
14869W        W33073   5.105  15.387  14.372  0.1010  0.1068  0.2014
14870W        W33074   3.277  12.084   3.156 -0.1174  0.0414  0.1999
14871W        W33075   2.574   1.788   0.636  0.1231 -0.2076 -0.0331
14872W        W33076  11.189   8.975  14.972 -0.0697 -0.0107 -0.2154
14873W        W33077  17.298   9.519  15.911  0.0297  0.1669  0.0275
14874W        W33078   1.995   4.648   4.562 -0.0345 -0.1225 -0.0853
14875W        W33079  12.665   6.328   0.122 -0.1029  0.0817  0.2354
14876W        W33080  16.527  16.548  13.233  0.4045 -0.1825 -0.3672
14877W        W33081   4.389  13.192   1.013  0.0215 -0.2201 -0.2128
14878W        W33082   5.541   6.180  15.317  0.0464 -0.1737 -0.1038
14879W        W33083   1.141   6.613  16.146 -0.0908 -0.4278 -0.2458
14880W        W33084   3.285   4.014   1.442  0.0952  0.1006  0.0870
14881W        W33085  11.573   3.038  17.455  0.1448  0.0853 -0.1337
14882W        W33086  15.071  14.732  14.085 -0.0497 -0.2249  0.0612
14883W        W33087   7.339   9.011  12.291  0.0049  0.3100 -0.0977
14884W        W33088   7.919   4.445   5.973 -0.1729  0.1432 -0.1735
14885W        W33089   0.763  15.733   2.995  0.0865 -0.1493 -0.1834
14886W        W33090   9.432   2.887  14.017  0.3207  0.2245 -0.0138
14887W        W33091   7.838  10.185   4.415  0.0171  0.0896 -0.3692
14888W        W33092  13.125  17.168  13.264  0.0235  0.0304  0.1165
14889W        W33093  10.048   4.583   4.682 -0.0668 -0.2651 -0.1197
14890W        W33094  13.818  15.435  15.957 -0.1954 -0.1611 -0.0113
14891W        W33095   9.838   1.568  13.519  0.0005  0.0616  0.1976
14892W        W33096   1.212  15.976   1.210  0.1953 -0.1648  0.0474
14893W        W33097  15.714   7.665  17.079 -0.0405 -0.0464  0.1185
14894W        W33098   0.945   2.762  14.848 -0.2172 -0.3305 -0.0274
14895W        W33099   4.438  15.343  13.077 -0.3086 -0.1312  0.1327
14896W        W33100  10.697   4.088   3.144 -0.1814  0.2093  0.3074
14897W        W33101   9.808   5.545   1.684  0.0347 -0.0361 -0.1560
14898W        W33102   4.977  12.724  16.710 -0.0983 -0.2386  0.1439
14899W        W33103   3.355   1.460   1.713  0.0876  0.0614  0.0859
14900W        W33104  16.438  14.427   1.000 -0.0198  0.0306  0.1799
14901W        W33105  12.833  11.213   4.222 -0.0854  0.2764  0.0191
14902W        W33106  14.972   4.721   3.561 -0.1918 -0.0168  0.2225
14903W        W33107   8.143   8.238  15.352  0.0492  0.2939  0.0052
14904W        W33108   0.777   8.784   3.242 -0.1672 -0.1803 -0.0736
14905W        W33109   6.586  13.756   0.324 -0.1530 -0.2570  0.1283
14906W        W33110   8.102  11.002  13.392  0.0808 -0.2253  0.3252
14907W        W33111  16.064  14.838  12.494  0.0780  0.0455 -0.0490
14908W        W33112   9.119  13.322   1.919  0.0970  0.1248 -0.0959
14909W        W33113  17.237   6.763   3.185  0.0553 -0.1271  0.2507
14910W        W33114   0.993   9.975  16.661  0.1800 -0.2435  0.0568
14911W        W33115   3.892  14.403   1.621 -0.0076 -0.0287  0.1140
14912W        W33116   6.152  11.458  15.617  0.1183 -0.1260 -0.0029
14913W        W33117   3.747  14.883  16.505 -0.0265  0.1305  0.0883
14914W        W33118  14.184   9.453  13.113  0.1241  0.1878 -0.2348
14915W        W33119   1.256   5.546   3.769  0.0587  0.2445  0.1348
14916W        W33120   3.791   1.493   3.879 -0.0700  0.1575 -0.0537
14917W        W33121  12.157   7.951   4.142 -0.1081  0.1411  0.1974
14918W        W33122  10.799   6.570  14.086  0.0718 -0.0051 -0.1587
14919W        W33123  13.260   5.794  12.389  0.0010  0.4001  0.1080
14920W        W33124   0.493  12.650  15.482 -0.2224 -0.1954 -0.0418
14921W        W33125   3.028   2.440  12.464  0.1392  0.0718 -0.0941
14922W        W33126  12.088   1.487   3.348 -0.0799 -0.0855  0.3344
14923W        W33127   9.697   0.120   3.063  0.1541 -0.0580 -0.2588
14924W        W33128  16.957   1.210  14.451  0.0324 -0.0731  0.0591
14925W        W33129  14.426   7.874   5.145 -0.2131 -0.2045  0.0119
14926W        W33130   0.059  13.884  16.444 -0.0180 -0.2550 -0.1100
14927W        W33131   7.010   1.483   2.305  0.0003 -0.1403 -0.1209
14928W        W33132  11.470   7.860  13.974  0.0208  0.0143  0.0237
14929W        W33133  10.283   7.895   3.515 -0.0361  0.0836  0.0770
14930W        W33134  16.194  14.229  16.790 -0.0100  0.2744 -0.1045
14931W        W33135  13.580   5.697  13.364 -0.0503  0.0212 -0.1566
14932W        W33136   6.829  17.086   2.165  0.0332  0.3550  0.2816
14933W        W33137  12.788  15.396  12.855 -0.0912 -0.2689  0.0026
14934W        W33138   1.915  15.026  13.736  0.1636  0.2165 -0.0191
14935W        W33139   4.105   3.330   0.193  0.0388 -0.2648  0.0650
14936W        W33140   6.234   1.602  15.063  0.3033 -0.0856  0.0580
14937W        W33141   2.370  10.902  15.700 -0.2507  0.1733 -0.2253
14938W        W33142  12.290  12.095  15.356  0.0134 -0.2161 -0.1202
14939W        W33143   9.012  15.231  14.866  0.0305 -0.0136  0.0743
14940W        W33144   0.550   0.540   3.577 -0.1370  0.1329  0.0392
14941W        W33145   7.515  11.926   1.462  0.2473 -0.1149 -0.0674
14942W        W33146  14.775  11.043  15.483 -0.0681 -0.1622  0.0298
14943W        W33147   4.847  10.533  16.486  0.2342 -0.2051 -0.0701
14944W        W33148  11.521   8.078   4.827 -0.0976  0.0291 -0.1868
14945W        W33149  16.223  12.332   5.432 -0.2182  0.1510  0.0822
14946W        W33150   4.771  16.661   0.264 -0.0106 -0.0244 -0.2664
14947W        W33151  14.678   7.186  13.389  0.0914 -0.0638 -0.2305
14948W        W33152  16.102   8.135   0.737 -0.2971  0.2022  0.2154
14949W        W33153  12.911   5.908   1.358 -0.3278  0.0260  0.1630
14950W        W33154   0.388   0.025   0.705  0.1658 -0.3118  0.0286
14951W        W33155  12.291  10.203   0.026 -0.0481  0.0719  0.4008
14952W        W33156   7.991   8.909  13.768  0.0369 -0.0759  0.0627
14953W        W33157   4.638   0.567   3.074  0.1408  0.0177 -0.4230
14954W        W33158   9.553   9.445   1.624  0.1556 -0.0584 -0.1501
14955W        W33159   5.210   7.993   2.573  0.0717 -0.2248  0.3605
14956W        W33160   5.058  16.727  16.235 -0.1453 -0.0561 -0.1529
14957W        W33161   2.893   4.145   0.515  0.1151 -0.0740 -0.2377
14958W        W33162  14.712  11.848   1.098 -0.1487 -0.2951 -0.3019
14959W        W33163   2.830   7.138   1.441  0.0294  0.2113  0.0404
14960W        W33164  14.690  12.704   0.902 -0.1590  0.1449 -0.1158
14961W        W33165   9.151  15.521  15.699 -0.0241  0.3413  0.1160
14962W        W33166  15.549  17.191   6.197 -0.0473 -0.1516  0.1380
14963W        W33167   2.652   8.450  13.933  0.0982  0.0384  0.1429
14964W        W33168  10.867   4.304  16.210  0.1201 -0.3122  0.1205
14965W        W33169   9.352   0.142   0.905 -0.1808 -0.1568 -0.1612
14966W        W33170  14.121  10.698  17.102 -0.1743 -0.1081 -0.1624
14967W        W33171  10.576  16.463   0.121 -0.3877 -0.2307 -0.1191
14968W        W33172   4.934   8.733  15.373 -0.3832  0.1031 -0.1150
14969W        W33173  12.038   0.306   0.639  0.2461 -0.2868 -0.1341
14970W        W33174  12.119  15.639  16.313 -0.2614  0.1288  0.1600
14971W        W33175   3.032   2.348  16.925 -0.1179 -0.4101  0.0448
14972W        W33176   3.494   4.239   1.842  0.0845 -0.0919  0.2217
14973W        W33177  11.864   9.972   0.001  0.0597  0.2763  0.0212
14974W        W33178   0.723  10.365   5.439 -0.1431 -0.0114  0.1415
14975W        W33179   6.398   3.441   3.338 -0.3015 -0.2310  0.2297
14976W        W33180   6.567   2.880   3.620 -0.0499  0.3394 -0.1620
14977W        W33181   8.178  13.203   4.597  0.0408  0.0052 -0.0057
14978W        W33182   6.522   4.446  12.580  0.0146  0.0906 -0.0617
14979W        W33183   4.081   5.191  15.668 -0.2381  0.0248 -0.0957
14980W        W33184  11.035   5.227  14.292 -0.2354  0.0299  0.1315
14981W        W33185   1.994   5.135  12.905 -0.2177  0.0878 -0.2387
14982W        W33186   0.969  11.209   3.822  0.1315 -0.0847 -0.0570
14983W        W33187  15.123   7.842   4.780  0.0062  0.2161  0.2011
14984W        W33188   8.610  17.069  14.328 -0.1076 -0.1413 -0.0182
14985W        W33189   6.725   1.112  12.132 -0.2676  0.0252  0.0673
14986W        W33190  14.882  13.089  13.753  0.0980  0.0518  0.1762
14987W        W33191  10.557   7.445   4.259 -0.2289 -0.2451 -0.1580
14988W        W33192   0.473  11.535   4.380  0.0316  0.1525  0.1463
14989W        W33193  13.334  16.663  13.274  0.0121  0.2995 -0.0312
14990W        W33194   8.226   4.826  12.401 -0.0391 -0.0309 -0.1690
14991W        W33195  12.128   2.401   4.760 -0.0284  0.1785  0.1442
14992W        W33196   4.093  14.437   4.207  0.3077  0.0951  0.0817
14993W        W33197  10.379   2.901   3.181  0.1964  0.2838 -0.4148
14994W        W33198   0.421  11.707   1.961  0.0163  0.3775  0.1258
14995W        W33199   9.365  10.958  11.433  0.3055  0.1150 -0.0936
14996W        W33200  15.970   9.520   3.262  0.0154  0.1582 -0.0322
14997W        W33201   7.858  16.887   5.055  0.0322  0.0842  0.3021
14998W        W33202   6.541   7.480  12.771  0.0242  0.0020  0.1660
14999W        W33203   7.070   1.442  13.063  0.1671  0.0578  0.0036
15000W        W33204   3.696  13.542  16.351 -0.1303 -0.3120  0.1032
15001W        W33205  15.598  12.086   5.518 -0.4796 -0.1794  0.0870
15002W        W33206   7.677  12.843   3.365 -0.1134  0.1583  0.2001
15003W        W33207   8.848  11.918  17.234 -0.0953 -0.1844 -0.3608
15004W        W33208   4.154   4.803  15.414  0.2349 -0.0048 -0.3883
15005W        W33209  15.446  13.257  12.822  0.0194 -0.0528  0.1423
15006W        W33210   3.503  10.911   0.758 -0.0065  0.0508 -0.0238
15007W        W33211  17.051   5.805  16.516 -0.1482  0.0457 -0.2885
15008W        W33212   7.333   5.136  17.065 -0.1066  0.4456  0.0811
15009W        W33213   9.237  16.074   4.185  0.3452  0.0103  0.0523
15010W        W33214  16.890  14.426   0.152  0.2534  0.0110  0.0814
15011W        W33215  14.201  13.725   1.279  0.0235 -0.3513  0.2433
15012W        W33216  12.214   0.737   5.257  0.3189  0.0102  0.1032
15013W        W33217  12.181  11.910   0.239 -0.0889 -0.2654  0.0161
15014W        W33218   6.826   0.042   1.768  0.2054 -0.1951 -0.2106
15015W        W33219  13.908   0.322  12.836  0.0226  0.0387 -0.1983
15016W        W33220   7.908  16.985  15.980 -0.2281 -0.1313  0.0588
15017W        W33221   8.860  13.518  13.716  0.1061  0.1401 -0.2715
15018W        W33222   0.683   6.085  16.570 -0.0190  0.1234  0.0877
15019W        W33223   2.453  11.629   1.686  0.2376 -0.1370  0.0791
15020W        W33224  16.603  11.717   0.841  0.1517 -0.4988 -0.0271
15021W        W33225   8.853  11.945   5.675 -0.0258 -0.1978 -0.0354
15022W        W33226   4.026  12.976   4.642 -0.0662  0.0476 -0.2139
15023W        W33227  11.816   2.729   3.257 -0.0680 -0.2360  0.4263
15024W        W33228  14.565   1.592  13.975 -0.2795  0.0228 -0.1987
15025W        W33229   3.966  16.039   3.128  0.2775  0.2531  0.2045
15026W        W33230   5.759  10.872  16.888  0.0307 -0.1283 -0.3612
15027W        W33231   1.699   2.234  13.440  0.3263  0.2055  0.1774
15028W        W33232  11.768   6.288  12.181  0.1376 -0.1614  0.1873
15029W        W33233   0.593  13.870  16.233  0.0552 -0.0646 -0.2228
15030W        W33234   0.681  15.384  12.881  0.2562 -0.0541 -0.1014
15031W        W33235   9.639   5.619   2.665  0.0799  0.1393 -0.0237
15032W        W33236  11.496  16.284  13.653 -0.0101 -0.1025 -0.0320
15033W        W33237  14.372  14.354  13.669 -0.0398 -0.6284 -0.3566
15034W        W33238  12.284  14.224  13.181 -0.0411 -0.0555 -0.0095
15035W        W33239   5.465   9.761  12.267  0.0290  0.1632  0.0698
15036W        W33240  11.284  17.301   0.343  0.3549 -0.3258  0.1812
15037W        W33241  15.339   8.702  15.873 -0.0437 -0.0381 -0.2325
15038W        W33242   7.071  10.325  16.245 -0.2133  0.0907  0.0440
15039W        W33243   6.111  13.566   3.308  0.1182 -0.0969 -0.2751
15040W        W33244   9.970  15.289  12.017 -0.0547 -0.0410 -0.1421
15041W        W33245  10.026  15.511   5.886 -0.0623 -0.0949  0.0041
15042W        W33246   8.258  12.909   6.051 -0.0851  0.0680 -0.0286
15043W        W33247   7.588   5.989  13.028 -0.0526  0.0422  0.0490
15044W        W33248   3.420   8.256  14.688  0.2416 -0.2615 -0.0050
15045W        W33249  11.317   5.308   4.843 -0.1251 -0.0740  0.2073
15046W        W33250  17.107  11.342  17.133  0.2360 -0.2495  0.0328
15047W        W33251   7.175   1.788  14.231  0.1779  0.0688 -0.1159
15048W        W33252  12.791  12.780  15.000  0.2728 -0.0182  0.4270
15049W        W33253   5.101   8.027  14.074 -0.1883 -0.0751  0.0019
15050W        W33254  11.567   2.332  13.871  0.1253  0.0287 -0.2056
15051W        W33255  10.925   1.526  13.866  0.1915 -0.1839  0.2738
15052W        W33256   0.138  12.538   4.106 -0.2171  0.3127  0.1505
15053W        W33257   7.207  17.185  14.475 -0.2443 -0.1788 -0.0840
15054W        W33258   4.079   7.408   1.894 -0.1722 -0.1296  0.0933
15055W        W33259  15.542   7.928   5.093  0.2054  0.2057 -0.2367
15056W        W33260  12.805  11.791   5.250  0.0018 -0.0559  0.0926
15057W        W33261   3.398  10.492  13.733  0.2972 -0.0679 -0.3060
15058W        W33262  13.392   7.296  14.385 -0.0762  0.0630 -0.1322
15059W        W33263  16.374   0.318  15.326  0.3187  0.0696 -0.1091
15060W        W33264  14.204  17.077   0.552 -0.0466  0.3058  0.1461
15061W        W33265  15.837   3.286   4.043 -0.2954 -0.0519 -0.3181
15062W        W33266   3.812   3.082  16.840  0.3019 -0.2319 -0.4724
15063W        W33267  11.906   6.791   3.934 -0.2223  0.1385  0.1339
15064W        W33268   1.272   5.174  14.179  0.2262  0.0407  0.1320
15065W        W33269   9.425   9.557   1.128 -0.0496 -0.0740  0.0510
15066W        W33270   1.851   5.851  16.930  0.0867 -0.1738  0.4678
15067W        W33271   0.599   8.877   0.061 -0.0968  0.5086  0.0562
15068W        W33272  12.999  16.164  17.120  0.0052  0.0703  0.2047
15069W        W33273  13.150  11.550   5.561 -0.1292  0.0362 -0.1000
15070W        W33274   3.724   1.263   4.786  0.1489 -0.1414  0.0704
15071W        W33275   2.963  11.805   1.352 -0.0342  0.0177 -0.1077
15072W        W33276   8.357   3.658   0.955 -0.1408 -0.0293 -0.2390
15073W        W33277   7.169  16.316   1.680 -0.2599  0.2353 -0.1586
15074W        W33278  11.896   1.850  17.395  0.1499  0.0327 -0.0058
15075W        W33279  15.544   6.813  12.801  0.2664  0.0071 -0.0176
15076W        W33280   3.121  16.986  17.346 -0.1237 -0.0883 -0.0226
15077W        W33281   4.365  11.281  16.866 -0.0923 -0.0094 -0.0981
15078W        W33282  13.841   7.225   4.664 -0.0501 -0.1762  0.2640
15079W        W33283  14.723   3.453   5.124  0.0939  0.0460 -0.1148
15080W        W33284   6.315   9.628   1.452  0.0685  0.2143  0.3794
15081W        W33285   3.854   8.880   3.816  0.0137 -0.2245 -0.1617
15082W        W33286   0.918   2.749   3.818 -0.2690  0.0255  0.3479
15083W        W33287  10.478   9.133   5.494  0.0318  0.0611  0.4384
15084W        W33288   4.452   5.031   4.836 -0.3519 -0.3157  0.1114
15085W        W33289   8.282  10.034   0.642 -0.1258 -0.0024  0.0957
15086W        W33290   8.138  14.380  16.892 -0.1541 -0.0512  0.0580
15087W        W33291  10.890  15.358   4.856 -0.1173 -0.0496  0.2653
15088W        W33292   1.587   6.064  14.823  0.2604 -0.2255  0.2212
15089W        W33293   4.258  12.636  14.026 -0.1258 -0.0550 -0.0297
15090W        W33294   1.098  11.326   2.404  0.1138  0.1773 -0.1202
15091W        W33295   7.048   6.793  17.056  0.1005 -0.2435 -0.0158
15092W        W33296   5.972   4.306   4.935 -0.1502  0.2085 -0.2297
15093W        W33297   1.906   5.952   3.692  0.1210 -0.0014 -0.2854
15094W        W33298  11.807   9.576  12.608 -0.0767  0.1410 -0.1573
15095W        W33299   0.221  12.947   3.622 -0.1280  0.0777  0.2742
15096W        W33300  14.744   3.258  13.470  0.0940 -0.1255  0.1377
15097W        W33301   8.145   8.077   1.590 -0.1759  0.0301  0.1233
15098W        W33302   2.724  11.674  12.999 -0.1462 -0.0236  0.2929
15099W        W33303   9.184   1.044  16.435 -0.1898 -0.1392  0.0835
15100W        W33304  10.660  15.298   3.247  0.0547 -0.1504 -0.0253
15101W        W33305  15.921   8.352  14.988 -0.1469  0.0192  0.1870
15102W        W33306   5.550   4.680  13.381 -0.2019  0.2761  0.0479
15103W        W33307  16.783   7.464   5.650  0.1946  0.3577  0.1693
15104W        W33308   6.795   8.836   2.924  0.0673  0.0382  0.1554
15105W        W33309  10.404   2.642  16.452  0.0022 -0.1630 -0.0740
15106W        W33310   8.360   6.100  17.112  0.0216 -0.0573 -0.0384
15107W        W33311   3.929   3.461   1.958 -0.1292  0.1408  0.2505
15108W        W33312  14.983  14.346  15.115 -0.0751  0.0568 -0.2272
15109W        W33313   6.914   5.940   4.824  0.0914 -0.1499  0.0091
15110W        W33314  14.984   1.568  16.832  0.0040 -0.3131  0.3771
15111W        W33315   0.097  11.824   4.485  0.3601 -0.1117  0.3831
15112W        W33316  13.309   4.424   1.094 -0.0186  0.3507  0.0145
15113W        W33317   9.578   5.127  12.411  0.0620 -0.2400  0.2057
15114W        W33318  13.655   5.663   4.274  0.1133 -0.0507  0.2623
15115W        W33319  11.496   6.724   1.864 -0.0105  0.0405  0.2147
15116W        W33320  12.454   3.468  14.295 -0.0464 -0.0127  0.1983
15117W        W33321   6.775   2.101  13.428 -0.0241 -0.1697 -0.0174
15118W        W33322  13.723  11.762   3.652  0.1373  0.2902 -0.3335
15119W        W33323   8.865  12.724   0.272 -0.0593  0.0786  0.0103
15120W        W33324  16.283   2.232   4.009  0.1583 -0.5013  0.0496
15121W        W33325  13.404   1.481  14.201  0.1814 -0.0598 -0.3864
15122W        W33326   5.193   4.833   3.728 -0.0224  0.0737  0.0280
15123W        W33327   0.141   5.013  17.272  0.2427 -0.0792 -0.2544
15124W        W33328   1.740  16.978  12.708 -0.1114 -0.2225  0.1128
15125W        W33329   4.071  16.006  17.503  0.2126  0.0097  0.1840
15126W        W33330   4.542  12.938   2.337 -0.0462  0.2811  0.2900
15127W        W33331  10.995  15.179   1.419 -0.2323  0.1706  0.0690
15128W        W33332  11.614   7.769  16.241 -0.1120 -0.1610  0.0200
15129W        W33333   9.769  14.355   3.865  0.0270 -0.0117 -0.1922
15130W        W33334   5.750   1.466   4.711 -0.1303 -0.0414  0.0181
15131W        W33335   9.430   4.206   0.555 -0.2283 -0.0178 -0.2477
15132W        W33336  16.041   3.537  17.452 -0.0289  0.0157  0.0977
15133W        W33337   6.195  13.926  14.654  0.1908  0.0186  0.0371
15134W        W33338  12.946   0.163   5.386 -0.2797 -0.1496  0.0161
15135W        W33339   9.156  16.756  12.879 -0.2752 -0.0775  0.0164
15136W        W33340  12.659   7.322   5.022  0.0039  0.2440  0.3458
15137W        W33341   7.638  15.488  13.672  0.1946 -0.2015  0.3164
15138W        W33342  14.330  10.176   0.356 -0.1491 -0.1808 -0.1537
15139W        W33343   3.789   5.185  15.208  0.0511 -0.0072  0.3088
15140W        W33344  16.417  12.948  14.287  0.1660  0.2009  0.1626
15141W        W33345   9.543   7.602  11.046 -0.0371 -0.3872  0.0898
15142W        W33346   0.983  13.755  14.836 -0.3218  0.1557  0.0383
15143W        W33347   3.014  13.238  12.757 -0.2040 -0.1852 -0.1804
15144W        W33348   5.936   1.853  12.960  0.0338  0.2183 -0.1205
15145W        W33349   2.244   6.336  16.216  0.0956  0.0474 -0.0014
15146W        W33350  12.395  11.762   3.363  0.1281 -0.4071 -0.4037
15147W        W33351   5.709  11.855  14.846  0.1944  0.0726  0.2592
15148W        W33352   4.956   2.098  16.674  0.1028  0.1860  0.3813
15149W        W33353   0.149   1.029   0.727  0.0063 -0.0516 -0.1649
15150W        W33354   2.513  10.345   6.432 -0.2437 -0.0316  0.1078
15151W        W33355   1.194  14.740   1.659  0.1962  0.3343  0.0929
15152W        W33356  14.742  15.832  17.003  0.0172 -0.0618 -0.1482
15153W        W33357  10.438  15.473  16.686  0.2042  0.0277 -0.0641
15154W        W33358   7.458  16.535   1.231  0.0648  0.0195  0.0757
15155W        W33359   6.411   6.327  15.720  0.1266  0.1882 -0.1724
15156W        W33360   0.679  16.032  13.243 -0.1002 -0.0517 -0.1005
15157W        W33361   4.773  17.144  12.282  0.2151 -0.1874  0.3464
15158W        W33362   6.955   7.515  13.643  0.1562  0.1098 -0.1538
15159W        W33363  11.735  15.851   0.359  0.1299  0.0615 -0.1159
15160W        W33364   3.984   4.811  14.931 -0.3215 -0.1945 -0.1606
15161W        W33365   5.129   3.863   4.024 -0.1137  0.1483 -0.1561
15162W        W33366   1.261  13.085   0.861  0.1135 -0.3071  0.0324
15163W        W33367   1.493   2.232  12.622  0.2069  0.1356 -0.0341
15164W        W33368   6.138   8.532  12.482 -0.1414  0.2605 -0.3448
15165W        W33369  12.826  15.172   1.350  0.0709 -0.0697  0.0622
15166W        W33370  16.043   9.244   1.308 -0.0050  0.1947 -0.0411
15167W        W33371  14.504  13.768  13.002  0.2727 -0.1807 -0.0540
15168W        W33372   3.982   3.401   1.477 -0.2165  0.2229  0.3021
15169W        W33373   9.493  16.644  12.342  0.0096  0.0419 -0.2622
15170W        W33374  13.592  12.608   4.995 -0.1779 -0.1529 -0.0225
15171W        W33375   0.211   2.079  14.719 -0.1138  0.1972  0.3878
15172W        W33376   2.326   6.434  15.516  0.1381 -0.2236  0.0423
15173W        W33377  12.482  14.882   4.658 -0.1350 -0.0158  0.1216
15174W        W33378   4.717   3.102   0.359  0.1048  0.1315 -0.0842
15175W        W33379  12.064   9.880   3.892  0.2076 -0.2649  0.0237
15176W        W33380   0.136   5.186   2.384  0.3597  0.1749  0.0091
15177W        W33381   6.218   2.615  13.862 -0.0176  0.0756  0.0434
15178W        W33382  11.459  16.444  12.196 -0.3007  0.1811 -0.0765
15179W        W33383  14.153  11.029   0.937  0.2237 -0.0250  0.1802
15180W        W33384  16.968   3.763   2.274 -0.2737  0.2188  0.1605
15181W        W33385  16.428   5.188   2.540 -0.3557  0.0490  0.0738
15182W        W33386   6.116   5.712  12.743  0.1735 -0.2221  0.1625
15183W        W33387  15.294  10.291   3.793  0.0256 -0.1908 -0.0536
15184W        W33388   9.224   2.611   3.919 -0.0337 -0.1425  0.1506
15185W        W33389   9.346   9.353   5.611 -0.2271 -0.1774  0.0687
15186W        W33390   4.466   1.976  13.527 -0.0238 -0.2014 -0.2308
15187W        W33391  12.113  15.763  15.813 -0.2792  0.3733  0.1018
15188W        W33392  12.990  12.849  16.448  0.1341  0.0156  0.2115
15189W        W33393   2.467   2.192  14.289 -0.3566 -0.0972 -0.0066
15190W        W33394   3.469  14.310  13.550 -0.0188  0.1017 -0.2325
15191W        W33395   1.318   1.079  13.288  0.2447 -0.0694 -0.0458
15192W        W33396   8.599   3.347   1.276 -0.2477  0.0680 -0.0556
15193W        W33397  10.784  16.569   1.862  0.0812 -0.0917  0.0183
15194W        W33398  15.415  11.908  16.165 -0.2907  0.1485  0.0281
15195W        W33399  15.785  14.847   0.594  0.1243 -0.1266  0.2996
15196W        W33400  15.954  11.783   5.406 -0.2056  0.2175 -0.0489
15197W        W33401  16.291   9.355   0.328 -0.2041 -0.0407  0.0102
15198W        W33402  15.391   9.644   2.520 -0.3117 -0.1432 -0.1344
15199W        W33403  13.366   0.157  14.737  0.0616  0.3309  0.0429
15200W        W33404  10.059  17.139  17.032  0.3757 -0.2339 -0.0266
15201W        W33405   0.181  11.022  17.292  0.0587 -0.1272  0.0065
15202W        W33406   6.829   8.210   5.185  0.1495  0.1937 -0.0664
15203W        W33407   5.417  10.195   0.222 -0.3732 -0.2573  0.2338
15204W        W33408   7.824  15.198   0.292 -0.1950  0.1196  0.3281
15205W        W33409   4.746  16.344   2.427  0.1551 -0.3628  0.0731
15206W        W33410  17.129   3.392  15.204  0.0934  0.0027 -0.2684
15207W        W33411  13.259   9.456  13.574 -0.1622  0.1994  0.0600
15208W        W33412   8.581  15.153  17.086 -0.1080  0.2708  0.1737
15209W        W33413   7.124   3.731   0.927  0.0533 -0.2207 -0.3131
15210W        W33414  14.507   1.574   0.241  0.0371 -0.0546 -0.1911
15211W        W33415   4.316   3.010  14.074 -0.2147  0.1606  0.0454
15212W        W33416   8.053   0.744  11.988  0.2095 -0.0642 -0.0334
15213W        W33417   2.885   2.778   0.516  0.0917  0.2615  0.1254
15214W        W33418  10.061   0.377   4.821 -0.1054 -0.0139  0.1550
15215W        W33419  16.488   5.884   0.601  0.1179  0.2029  0.1536
15216W        W33420   2.026  15.975  12.808  0.1671 -0.0294  0.2473
15217W        W33421  10.630   7.024  15.742  0.1235 -0.0356  0.1368
15218W        W33422   8.532   4.238  16.736 -0.2332  0.0499  0.0169
15219W        W33423   8.264   5.569  11.852 -0.0917 -0.0237  0.2230
15220W        W33424  15.871   6.227   4.801 -0.1308 -0.0137  0.1165
15221W        W33425   1.035  16.838   6.051  0.2444 -0.0117 -0.0513
15222W        W33426  10.003   5.317   1.180  0.1629 -0.1003 -0.1495
15223W        W33427  16.385   9.328  14.739 -0.0842  0.1953  0.1837
15224W        W33428   2.567  12.905  16.179 -0.3251  0.1393 -0.0831
15225W        W33429   8.570   5.878  15.932  0.0075  0.2227  0.0827
15226W        W33430   5.113   9.527   3.345 -0.0682 -0.2872 -0.0962
15227W        W33431  15.797  11.205  15.992  0.0861 -0.2385  0.0468
15228W        W33432   5.360  13.202   5.780  0.2514 -0.1187 -0.0371
15229W        W33433   2.531  11.941  15.534 -0.0051 -0.2441  0.1052
15230W        W33434  11.809   9.999   1.071  0.1110  0.2567 -0.1675
15231W        W33435  14.477   1.144   3.088 -0.1205  0.0791 -0.1652
15232W        W33436   6.796   9.247  14.836  0.0085  0.0323 -0.0352
15233W        W33437   5.268   6.179   2.007  0.2749 -0.1056 -0.0459
15234W        W33438  17.227   7.582   0.425  0.0387 -0.0750  0.1112
15235W        W33439  12.536   7.312  15.647 -0.0616 -0.1056  0.0697
15236W        W33440   6.645  17.085   1.276  0.2092  0.0430  0.0188
15237W        W33441  16.224  13.358   3.094 -0.2006  0.0517  0.1331
15238W        W33442   0.293   5.572   0.628 -0.2060  0.1332  0.0293
15239W        W33443  14.930   9.666  16.334  0.0134  0.2542 -0.1029
15240W        W33444   6.696  13.711  16.444  0.1004  0.0758  0.0261
15241W        W33445  13.918  13.784  16.207  0.1016  0.2039 -0.0470
15242W        W33446   4.849   2.553  15.167 -0.0958 -0.1167  0.1091
15243W        W33447   6.772  11.294   2.864  0.3577 -0.1496 -0.1191
15244W        W33448  17.162   5.890   3.667  0.1275 -0.0801 -0.1367
15245W        W33449  13.754  16.882   0.715  0.0484 -0.1622  0.3652
15246W        W33450   8.645   4.457   0.229  0.2505 -0.0761 -0.0806
15247W        W33451  12.886   9.404   5.845  0.0400 -0.0065 -0.0280
15248W        W33452  14.573  14.932   1.634  0.2868  0.0993  0.0803
15249W        W33453   5.677   9.473   3.383 -0.1514 -0.2015  0.1453
15250W        W33454  16.955   3.266   2.112 -0.0684 -0.0624  0.1084
15251W        W33455  13.847  15.181   5.504 -0.2047  0.0022 -0.3370
15252W        W33456  15.614   6.194   5.287  0.1882  0.1441 -0.1408
15253W        W33457  15.100  12.507  12.098 -0.1300 -0.2110  0.0347
15254W        W33458  13.762  14.744   2.884 -0.0090  0.0984  0.2176
15255W        W33459  12.387  10.389   0.498 -0.1454  0.1330  0.1139
15256W        W33460  15.377   8.815  15.329 -0.0966  0.2114  0.0142
15257W        W33461   1.487   0.419   4.178  0.1413  0.0290  0.2860
15258W        W33462  15.989  14.424  14.025 -0.3353 -0.0659 -0.0326
15259W        W33463  12.751   0.941   5.672  0.4659 -0.2199 -0.0486
15260W        W33464   1.816  13.965  17.501 -0.1872  0.2111 -0.1236
15261W        W33465   1.490   0.095  13.525  0.4121 -0.2213  0.3089
15262W        W33466  12.179   9.270  12.414  0.2581  0.0919  0.3419
15263W        W33467   1.606  15.692  12.641 -0.2477 -0.1632  0.3105
15264W        W33468   7.338   0.827  13.492  0.0350 -0.1909 -0.1680
15265W        W33469  10.744   2.400  16.125 -0.0004 -0.1596 -0.0785
15266W        W33470   3.542  10.129  16.556 -0.0545 -0.1441 -0.1917
15267W        W33471   4.811   6.266   2.887 -0.1150 -0.0073  0.5901
15268W        W33472   8.163  15.592   0.326 -0.0184 -0.1529 -0.0561
15269W        W33473  13.833   8.780  16.670 -0.2357  0.0376 -0.3114
15270W        W33474  13.864  12.867   0.940 -0.5833 -0.2988  0.2298
15271W        W33475  11.198  15.219   5.227  0.0117  0.0358 -0.0293
15272W        W33476   7.918   3.012  16.631 -0.2453 -0.1304  0.0943
15273W        W33477   7.076  11.200   2.404 -0.2944  0.1437 -0.3024
15274W        W33478  13.763   7.316   5.132  0.1021 -0.0974  0.2928
15275W        W33479  15.432   9.258   5.128 -0.2468 -0.1837 -0.0642
15276W        W33480   9.422  11.069  16.920  0.1629  0.1551  0.0869
15277W        W33481  13.649  10.309  15.708  0.0587  0.1709 -0.0348
15278W        W33482  10.986   3.448   4.776  0.0115  0.1890 -0.0096
15279W        W33483   0.026  14.582  15.072 -0.0734 -0.1352  0.0897
15280W        W33484   5.839  16.976  15.629  0.0814 -0.3717  0.0310
15281W        W33485  11.335   2.854   3.113 -0.2362 -0.0646  0.2007
15282W        W33486  12.967   6.981   4.842  0.1263 -0.2521  0.2320
15283W        W33487  15.229   7.209   0.133  0.1148  0.1459 -0.4400
15284W        W33488  15.723   2.118  14.742 -0.2348 -0.1500 -0.0044
15285W        W33489   7.672  14.376   0.307 -0.3009  0.0376 -0.1234
15286W        W33490   8.029   4.292   2.281  0.1384 -0.1291  0.0866
15287W        W33491  15.230   8.907   1.421 -0.0686 -0.0685 -0.1742
15288W        W33492   0.530   2.820  13.073  0.1392  0.0997  0.1776
15289W        W33493  15.595  13.462  16.314 -0.1468 -0.1733 -0.0530
15290W        W33494   7.934   1.229  13.077 -0.1383  0.0541  0.0017
15291W        W33495  12.404  10.511   3.795  0.0972  0.4791 -0.0224
15292W        W33496   8.486   3.256   1.794  0.2807  0.0450  0.1444
15293W        W33497   6.432  15.386   5.465  0.3101  0.2932  0.0432
15294W        W33498   7.540  15.976  14.176  0.0253  0.3988  0.0027
15295W        W33499   8.655   9.782  17.415  0.1153 -0.0981  0.1275
15296W        W33500   1.721   2.715  13.431 -0.0884 -0.0954  0.0963
15297W        W33501   0.724   1.505   0.587 -0.0992  0.1132  0.0449
15298W        W33502   4.027  17.216  14.710 -0.0379 -0.0411 -0.0202
15299W        W33503   1.415   4.351  13.089  0.0539  0.1699 -0.1518
15300W        W33504   2.965   4.808   2.150  0.2676 -0.1250  0.1771
15301W        W33505  11.719   8.481  13.393  0.2064  0.0933 -0.0697
15302W        W33506  11.326   5.884   0.082 -0.0784  0.0731  0.0407
15303W        W33507   1.251  14.615  13.099  0.1085 -0.0488  0.0801
15304W        W33508  15.527  15.643   0.412 -0.0015  0.0824  0.1018
15305W        W33509   5.633   6.758   4.976 -0.1306  0.2695 -0.0626
15306W        W33510  14.194   7.102   2.433  0.2081 -0.1645  0.2785
15307W        W33511  15.072   6.535   3.385 -0.1419  0.1158 -0.2679
15308W        W33512  13.530  14.299  12.677 -0.0643 -0.0697  0.1032
15309W        W33513  16.691  14.306  16.753 -0.0706  0.1949 -0.1275
15310W        W33514  17.138   9.987  13.490 -0.0879 -0.2316  0.0395
15311W        W33515  13.841   2.646   4.532  0.1986 -0.0585 -0.2324
15312W        W33516   0.294   2.348   4.095  0.0464 -0.1197 -0.1509
15313W        W33517   0.996  12.353  12.507  0.2188 -0.2636  0.2711
15314W        W33518   4.666   1.186  14.255 -0.0182  0.0599  0.2503
15315W        W33519  15.306   4.435  15.518  0.1216 -0.2265 -0.0196
15316W        W33520   0.092  10.115  17.228 -0.0469  0.3618 -0.1184
15317W        W33521  15.585   6.436  12.431 -0.1031 -0.1148  0.1056
15318W        W33522   8.293   6.444  13.400 -0.2430  0.5078 -0.1732
15319W        W33523   2.561   4.708  14.021 -0.0251  0.4248  0.0677
15320W        W33524   4.560  16.133   0.071  0.0788  0.0686  0.1516
15321W        W33525  10.653   2.200  13.050  0.0763  0.1351 -0.1703
15322W        W33526   2.170  16.253   3.579  0.1863  0.2376 -0.3071
15323W        W33527   6.113   9.922   5.127  0.3940 -0.1212 -0.3160
15324W        W33528   9.554   9.327   3.020  0.0196  0.0038  0.0352
15325W        W33529  10.231  15.353  15.780  0.1596 -0.1283 -0.2147
15326W        W33530   5.679  15.515  14.176  0.1854 -0.0506  0.2337
15327W        W33531   6.628  11.277   5.170  0.1639 -0.0376 -0.1190
15328W        W33532   8.142  10.189  16.869 -0.0606  0.0166  0.1063
15329W        W33533   4.909   7.267   3.717  0.1476 -0.0156 -0.2833
15330W        W33534   0.070  12.569  15.723 -0.0909 -0.1153  0.3474
15331W        W33535   9.639  14.633  12.709 -0.1310 -0.0050  0.0354
15332W        W33536  14.380  13.778  13.490 -0.1338  0.0824  0.0616
15333W        W33537   3.587   7.093   6.373 -0.2607 -0.0002 -0.0247
15334W        W33538   5.498   2.332   0.040 -0.1704 -0.4303 -0.0983
15335W        W33539   8.314  10.618  15.579 -0.0212 -0.0356 -0.3203
15336W        W33540   2.235   9.971   5.022  0.2369 -0.1091 -0.0543
15337W        W33541  16.079  16.914   3.211  0.0282  0.3014  0.0159
15338W        W33542   9.369   6.090   3.408 -0.0550 -0.0466 -0.1171
15339W        W33543   1.586   7.628  13.993 -0.1720 -0.0770  0.1232
15340W        W33544   9.614   2.821  15.795  0.6141 -0.2741  0.0966
15341W        W33545  15.319  15.109   0.339 -0.0232 -0.1600 -0.0905
15342W        W33546   7.224   6.370  15.647 -0.0481  0.2439  0.1362
15343W        W33547   1.781  16.962   4.839  0.0643  0.1172 -0.1230
15344W        W33548  17.304   3.935  16.185 -0.1658 -0.3540 -0.0447
15345W        W33549   2.824  10.843  16.867  0.0193  0.1072  0.1753
15346W        W33550   8.657  15.982   2.955  0.2616 -0.1981  0.1834
15347W        W33551  14.528  17.056  13.780  0.2788 -0.0069  0.2507
15348W        W33552   8.788  11.485   4.930  0.0227 -0.1458 -0.0730
15349W        W33553   8.142  11.269  15.158  0.0807  0.0997  0.0781
15350W        W33554  10.584   7.636  12.692  0.0211 -0.0783 -0.1296
15351W        W33555  12.369  13.347  12.922  0.1357  0.0185  0.0842
15352W        W33556   5.321  11.034   5.455 -0.1874 -0.0440 -0.2781
15353W        W33557  10.186   3.046   2.026  0.0347 -0.0200  0.0709
15354W        W33558   6.192   7.569  15.426  0.0673  0.0345 -0.2522
15355W        W33559  10.603   1.417  14.759 -0.2027 -0.1997 -0.1539
15356W        W33560   5.282   1.931   0.974 -0.1589 -0.0170 -0.1499
15357W        W33561  14.019  13.331   2.909 -0.2101  0.1114  0.0871
15358W        W33562   1.492   5.126  15.991 -0.0962 -0.1193 -0.0410
15359W        W33563   4.390  13.382   4.519  0.2942 -0.0280 -0.1990
15360W        W33564  12.168  15.384   1.828  0.1721  0.0184  0.1649
15361W        W33565  14.078   5.228  13.944  0.0008  0.3970 -0.1503
15362W        W33566  12.767   8.852  16.551  0.0761 -0.1798 -0.2576
15363W        W33567   3.911  12.147  13.181 -0.0032 -0.0304  0.0155
15364W        W33568   4.053   1.451   1.296 -0.0143 -0.1616  0.1272
15365W        W33569  11.534  10.416   1.240 -0.0041  0.1066  0.0914
15366W        W33570   5.642   6.447   4.568  0.0522  0.3850 -0.1908
15367W        W33571   4.963  10.454  12.954 -0.1499  0.0959  0.2952
15368W        W33572   0.822  13.062  15.624  0.2054  0.0019  0.0658
15369W        W33573  10.819  15.822   4.398  0.2114  0.0851 -0.1034
15370W        W33574  17.007   3.905   5.294 -0.2219 -0.3645 -0.0289
15371W        W33575   8.950   8.111   3.848  0.3326 -0.0129  0.1028
15372W        W33576   0.991   0.304   0.088  0.1756  0.1045 -0.1654
15373W        W33577   0.986  15.513   5.015 -0.1968 -0.1185  0.1476
15374W        W33578  14.339   4.735  13.784 -0.1452  0.0473 -0.1104
15375W        W33579   4.840  12.705  15.800  0.1932  0.1019  0.4346
15376W        W33580   9.300  16.820   1.184  0.2428  0.0077  0.0179
15377W        W33581   8.800   8.095  16.220 -0.1026 -0.1002 -0.1199
15378W        W33582   8.647  16.721  16.829  0.0900 -0.1984  0.2315
15379W        W33583  16.643  14.158   1.825 -0.2357  0.2231  0.2631
15380W        W33584  12.160   6.888  14.128 -0.1147 -0.3040  0.2991
15381W        W33585  12.739  13.682  13.848 -0.0149  0.2112  0.1269
15382W        W33586   9.418   0.387  12.688 -0.2768 -0.2383  0.0268
15383W        W33587  13.134   5.719  13.015 -0.0926  0.1053 -0.1155
15384W        W33588   9.893   4.609  15.571 -0.0262 -0.0338  0.1477
15385W        W33589   7.810  12.025   0.530 -0.0679 -0.2355  0.1210
15386W        W33590   6.537   4.862  16.018  0.1387 -0.2601  0.0146
15387W        W33591   1.115   0.090  14.564  0.0643  0.1032  0.3792
15388W        W33592  11.606   8.718  17.269  0.1966 -0.0373  0.1445
15389W        W33593  11.478  13.880  16.426 -0.0911 -0.2053  0.0817
15390W        W33594   6.773  14.589  17.388  0.6138 -0.0165  0.0108
15391W        W33595   5.255   7.763   0.009 -0.0792  0.3546  0.0880
15392W        W33596   1.228   7.625  13.621  0.2015 -0.2129 -0.1466
15393W        W33597  15.993  14.595  15.522  0.2758  0.0653  0.3549
15394W        W33598   8.726  13.658  16.407  0.0299 -0.0076  0.0600
15395W        W33599   5.461  11.400   3.310 -0.2686 -0.2317  0.3466
15396W        W33600   5.834   2.434   5.109 -0.2280  0.1759  0.1641
15397W        W33601   4.943  11.309  12.984  0.1521  0.0729  0.1239
15398W        W33602  16.496   1.928   4.977  0.0467  0.2848 -0.1810
15399W        W33603   1.697  11.391  14.033 -0.5063 -0.0842 -0.0908
15400W        W33604  17.229   3.696   4.875  0.2625 -0.0886  0.0098
15401W        W33605   4.988   6.085   2.463  0.1020  0.1456  0.1519
15402W        W33606   4.310   6.929  15.276  0.0647 -0.2032 -0.1093
15403W        W33607   0.364  15.672   1.534 -0.0221  0.0145 -0.1658
15404W        W33608  15.568   8.579  16.794 -0.2735  0.1194 -0.0507
15405W        W33609  11.954  10.624  15.885 -0.0407 -0.2640  0.1403
15406W        W33610  16.427   5.177  16.753  0.1176  0.2405 -0.0357
15407W        W33611  10.274  11.404   3.156  0.1143 -0.0096  0.1558
15408W        W33612   4.306   1.180   0.183  0.3245  0.0397  0.2761
15409W        W33613  17.207   2.349  16.421 -0.2213  0.0302 -0.2497
15410W        W33614   1.638   5.214   3.939 -0.3755 -0.1144 -0.0293
15411W        W33615  12.746  16.024   0.864 -0.0868  0.2296  0.3543
15412W        W33616   3.093  15.791   3.552 -0.0295  0.0404  0.3061
15413W        W33617   9.811   3.725  13.550  0.0656 -0.1178  0.0620
15414W        W33618   1.832   9.361  12.794  0.0413 -0.5206 -0.0777
15415W        W33619  10.852  14.031  14.528  0.0281  0.0472 -0.1182
15416W        W33620  15.216   4.636  15.026 -0.0857  0.1769 -0.1409
15417W        W33621   1.431  12.444   1.415  0.1863  0.1396 -0.0108
15418W        W33622   3.760  12.633  12.514 -0.2749 -0.3279 -0.0892
15419W        W33623  13.029  12.661   0.540  0.0627  0.0577 -0.2631
15420W        W33624  11.181   3.928   4.898  0.0990 -0.0355 -0.1575
15421W        W33625   1.544  12.638   2.895 -0.1614  0.1099  0.1922
15422W        W33626   9.679   8.510   3.020 -0.1220 -0.0487 -0.0400
15423W        W33627   7.417  12.898  12.390  0.2426  0.1733 -0.2859
15424W        W33628   4.563  12.314   0.425  0.0090  0.0819 -0.0905
15425W        W33629   1.575   9.788   0.636 -0.1909 -0.1181  0.1739
15426W        W33630  11.696   9.124  12.615 -0.1036 -0.0312  0.1756
15427W        W33631  12.986   3.691   1.803 -0.1758 -0.1214  0.2478
15428W        W33632   9.981   9.336   3.936 -0.1842 -0.2903 -0.0861
15429W        W33633  13.680  15.857  13.880  0.0966 -0.1017  0.0390
15430W        W33634   6.751  17.270   4.544 -0.1134 -0.1199 -0.2154
15431W        W33635   8.401   9.342  16.652 -0.3983  0.2032 -0.0490
15432W        W33636   1.782   5.422  17.377  0.0098  0.2224  0.1632
15433W        W33637  14.956  13.269   2.746  0.1549  0.2678  0.1445
15434W        W33638   0.428   6.427   4.378  0.3140 -0.0279 -0.4130
15435W        W33639  16.422  15.682   4.744 -0.2233  0.0185 -0.0500
15436W        W33640   1.223   7.328   0.739  0.0790  0.0706 -0.1227
15437W        W33641  13.853   1.401  14.415 -0.0403  0.1024  0.2589
15438W        W33642   6.910   4.475   4.565  0.0383 -0.1742 -0.0656
15439W        W33643  12.426  14.183   2.712 -0.0329  0.2328  0.2304
15440W        W33644  12.298   8.956   0.626 -0.2078  0.0273  0.2263
15441W        W33645  14.063   3.127   3.351 -0.0407 -0.0900 -0.1696
15442W        W33646  13.530   6.809  16.434  0.2389 -0.3866 -0.0176
15443W        W33647   6.825   9.766  13.209 -0.5224  0.2109  0.2886
15444W        W33648   8.119   7.309  14.287 -0.0695 -0.0030  0.2012
15445W        W33649   6.992   4.591   3.304  0.0914  0.1058 -0.2210
15446W        W33650   3.206  10.917  11.724  0.4791 -0.2960  0.0450
15447W        W33651   6.439  11.318  14.842 -0.2092  0.1500  0.0358
15448W        W33652  16.176  13.621  15.489  0.1444  0.2728 -0.0159
15449W        W33653   2.045  16.912   2.566 -0.1097  0.0419 -0.2427
15450W        W33654   8.471   9.938   4.592  0.0765  0.4303 -0.2879
15451W        W33655  17.075   4.086  17.202 -0.1095 -0.0069  0.0958
15452W        W33656   3.857  14.930  17.374  0.0916 -0.0582  0.3206
15453W        W33657  13.540   8.120   3.483  0.2085  0.1637  0.2735
15454W        W33658   5.543  11.781   5.059  0.0786  0.1425  0.0668
15455W        W33659   2.812  11.170   1.498 -0.0777  0.2903  0.0793
15456W        W33660   8.735  10.548   1.516 -0.0718 -0.1226  0.1508
15457W        W33661   4.061   9.404   4.834 -0.3097  0.1202 -0.2725
15458W        W33662  15.810   8.475   5.140 -0.1894  0.2165  0.0118
15459W        W33663   0.273  10.386   3.066 -0.1699  0.2532  0.0882
15460W        W33664   7.867   5.104   0.220 -0.0646 -0.0835  0.0253
15461W        W33665   5.483   4.077  15.102 -0.0743 -0.1282 -0.1630
15462W        W33666  17.004   2.261   1.117 -0.1122 -0.1349 -0.0290
15463W        W33667  11.962   3.364  17.339 -0.1541 -0.1352  0.0447
15464W        W33668   9.276   8.314   5.436 -0.2137  0.1839  0.0782
15465W        W33669   5.701  10.113  14.922  0.3317 -0.2849  0.0592
15466W        W33670  10.844  12.681  12.313  0.1885 -0.0231  0.3320
15467W        W33671   8.777  14.766   1.117  0.1024 -0.3536 -0.2584
15468W        W33672  11.930   8.145   5.107 -0.0537  0.0153 -0.1074
15469W        W33673  16.062   9.769  15.700  0.0459  0.3365  0.0765
15470W        W33674   6.810   5.030   3.212  0.0960  0.5027  0.1618
15471W        W33675   6.354  11.178   4.791  0.0116  0.2673  0.0460
15472W        W33676   3.112  14.250  16.399  0.0936  0.1186 -0.0715
15473W        W33677   2.949   7.593   4.359 -0.1350 -0.3681 -0.1564
15474W        W33678   8.753  14.257   6.286  0.0492  0.1057 -0.2076
15475W        W33679  14.229   9.213   2.897  0.0599  0.1429  0.1570
15476W        W33680  14.803  11.413   0.216 -0.1004  0.1236 -0.1690
15477W        W33681  14.685  16.053   0.249 -0.1234  0.0149 -0.0843
15478W        W33682  14.556  16.604   5.531  0.0682  0.0406 -0.0630
15479W        W33683  14.972   7.385   4.588 -0.1206  0.0191 -0.1212
15480W        W33684  16.525   8.219  14.860  0.1605  0.1180  0.1661
15481W        W33685  16.689   1.714  14.340 -0.0405  0.1432 -0.2229
15482W        W33686  16.755   6.637  17.087 -0.2003 -0.1009 -0.0504
15483W        W33687  10.350  13.921   0.949 -0.2069 -0.2900 -0.2387
15484W        W33688   1.295  12.240   0.583  0.0874 -0.2604 -0.0376
15485W        W33689  13.325  11.078   1.251  0.0690 -0.0876  0.0413
15486W        W33690   9.902  15.846  14.709  0.1313  0.2946  0.3008
15487W        W33691   7.897  14.498  13.795 -0.2484  0.0814  0.1696
15488W        W33692   8.259  11.243   0.871  0.0806 -0.0273  0.1409
15489W        W33693   9.638  17.249   1.264  0.1367  0.1813  0.1738
15490W        W33694  12.163   3.762   2.648 -0.0826 -0.1569  0.2236
15491W        W33695  12.862  14.349   5.319 -0.2201  0.0455 -0.2196
15492W        W33696  15.488  11.768  12.566  0.2933  0.0896 -0.0985
15493W        W33697  11.440  15.670   0.773  0.2693 -0.2607 -0.3644
15494W        W33698   9.653   5.795   4.773 -0.0988  0.0901  0.0646
15495W        W33699   7.970  15.471   3.118 -0.0728 -0.1525 -0.1361
15496W        W33700   4.324   1.277   3.963  0.1355 -0.0501 -0.0844
15497W        W33701   8.392   9.885  13.099 -0.1413 -0.2321 -0.0441
15498W        W33702  14.602   1.604   0.787 -0.0037 -0.1668  0.1244
15499W        W33703  16.443   7.696  17.449  0.1909 -0.0340 -0.1864
15500W        W33704  14.069   7.850  15.769  0.0633 -0.3210  0.1224
15501W        W33705   4.792   2.536   3.310  0.1157 -0.1319  0.1344
15502W        W33706   8.581  10.306  12.817 -0.2413 -0.0525 -0.2740
15503W        W33707  10.257   0.916  12.935  0.0683 -0.3324 -0.1177
15504W        W33708  12.885  11.771  17.190  0.0444 -0.2046 -0.1593
15505W        W33709  11.892  14.104  14.056  0.2828 -0.0751 -0.0133
15506W        W33710   9.183   0.625   2.272  0.1612  0.1176 -0.2479
15507W        W33711   6.301   5.917  16.607 -0.0914  0.3455 -0.0260
15508W        W33712   8.597   9.552   4.897 -0.1605 -0.0010 -0.0122
15509W        W33713   3.968  10.838   3.241 -0.0026  0.3570  0.0517
15510W        W33714   0.205   0.077   2.743 -0.2332  0.1758 -0.0863
15511W        W33715  15.607  10.709  16.055 -0.0402 -0.0216  0.0150
15512W        W33716  15.790   4.538   3.702 -0.0966  0.1588  0.2478
15513W        W33717  10.268   4.989   2.120  0.2217 -0.0310  0.1239
15514W        W33718  16.026   9.181   4.129  0.0323 -0.1088  0.0821
15515W        W33719  16.796  13.898  14.281  0.1292  0.3510  0.3001
15516W        W33720  10.681  11.164   5.024  0.2898  0.0229  0.2371
15517W        W33721  12.164  14.220   0.416  0.0530 -0.0935  0.2457
15518W        W33722   3.031  16.432  17.384 -0.0756 -0.0580  0.0647
15519W        W33723   0.690   5.269   0.971  0.2815 -0.0040  0.0711
15520W        W33724   5.719  10.632  14.890  0.0381  0.1613 -0.2724
15521W        W33725  13.964  11.677  14.459 -0.0885 -0.0080  0.1809
15522W        W33726  13.584   0.583   2.140 -0.1704  0.4079 -0.0916
15523W        W33727  13.523   6.564   4.102 -0.1182  0.0136  0.1797
15524W        W33728   9.224  13.340   4.487 -0.0978  0.1144  0.5467
15525W        W33729   6.006  11.671   4.796  0.2637 -0.0401 -0.2283
15526W        W33730   5.540   3.232   1.582 -0.4234 -0.1450  0.1396
15527W        W33731  15.977   5.333   4.298 -0.0657  0.0123 -0.1468
15528W        W33732   4.728  14.568  13.261  0.0451  0.1193  0.1582
15529W        W33733  17.165   3.938  16.751 -0.0614  0.1125  0.2785
15530W        W33734   7.297  11.855   0.631 -0.1330  0.1446  0.0396
15531W        W33735  10.748  17.079  15.296 -0.1878  0.1959 -0.0175
15532W        W33736  13.750   6.692  15.254  0.2224  0.4582 -0.0494
15533W        W33737  12.610   4.656   4.848  0.1154  0.4947  0.0689
15534W        W33738   3.519  11.317  12.600  0.0342  0.0721  0.0024
15535W        W33739  13.030   5.933  14.135 -0.0587 -0.0792  0.2074
15536W        W33740  11.855   2.234  12.074 -0.0017  0.0520  0.1587
15537W        W33741   1.350  16.551   3.362 -0.0404 -0.3163 -0.1343
15538W        W33742   2.430   9.485  17.063 -0.0548 -0.2916  0.3033
15539W        W33743  15.069   9.722   3.010 -0.1851  0.1467  0.1023
15540W        W33744   2.596   6.095   4.920 -0.2135 -0.1039 -0.0177
15541W        W33745  16.139   6.194  14.930  0.1035  0.0382  0.2543
15542W        W33746  14.493  12.561   2.938 -0.2738 -0.2265  0.0547
15543W        W33747   7.504  14.277   2.108 -0.1749 -0.1616  0.0456
15544W        W33748  12.218   4.907  12.387 -0.1640  0.0735 -0.0271
15545W        W33749   2.452  15.714  15.499 -0.1555  0.1386  0.0346
15546W        W33750   4.800   9.004  13.523 -0.0663 -0.1296 -0.0268
15547W        W33751  11.786   6.052  13.616 -0.0374 -0.1256 -0.0456
15548W        W33752  17.155   7.139   2.374  0.1515 -0.0570  0.0950
15549W        W33753   1.488  10.665  13.376 -0.0832  0.0051  0.2103
15550W        W33754   5.080  10.479  15.388  0.0731  0.1244 -0.0091
15551W        W33755  14.379   9.803  13.416  0.1141 -0.0636  0.2428
15552W        W33756   3.926   2.411  17.171 -0.0782 -0.2343 -0.2121
15553W        W33757   0.310   8.736   1.416 -0.2909  0.1250 -0.3122
15554W        W33758  13.085   6.379   2.373 -0.4178  0.1673 -0.2266
15555W        W33759   6.154   7.032  13.432  0.0716  0.3493  0.1023
15556W        W33760   9.524   8.300  13.388 -0.1069 -0.2782  0.2082
15557W        W33761   6.159  14.228  16.375 -0.0524  0.0917 -0.0894
15558W        W33762   0.137   7.430  12.706 -0.0562 -0.0926  0.3033
15559W        W33763  12.416  16.422  13.585 -0.0124  0.2780  0.0578
15560W        W33764   8.035  12.297   2.753  0.1292 -0.1280  0.0111
15561W        W33765   8.094   6.736   4.173 -0.0877  0.0917  0.3726
15562W        W33766  12.888   0.336  14.825 -0.1300  0.0057 -0.0701
15563W        W33767   8.953  10.057  17.059 -0.1361 -0.0657 -0.3363
15564W        W33768  14.597   6.720  12.502 -0.0728  0.2691  0.1089
15565W        W33769  14.440  14.027   2.940 -0.0322  0.2010 -0.1751
15566W        W33770   9.134  16.269   4.935  0.0700 -0.1775  0.0777
15567W        W33771  13.531   2.385   0.220 -0.0769 -0.0928  0.2136
15568W        W33772   0.118  11.520   2.465 -0.0086 -0.0042  0.0597
15569W        W33773   0.315  16.405  15.288 -0.3063  0.0117 -0.0491
15570W        W33774   8.443   8.211   4.870  0.0862 -0.3966 -0.0077
15571W        W33775   0.804   8.331  12.413 -0.1522 -0.2708 -0.0555
15572W        W33776   7.917  13.698   3.891  0.0312  0.0504  0.1978
15573W        W33777   7.649   0.008   0.227  0.1673 -0.0455  0.0421
15574W        W33778   8.122   0.815  12.488 -0.2863  0.0905 -0.0731
15575W        W33779  10.949   7.155   5.585  0.0753  0.2143  0.3180
15576W        W33780   4.259  17.297   1.793 -0.1880  0.0912  0.0762
15577W        W33781  12.258   6.097   1.991  0.1034 -0.2082 -0.3216
15578W        W33782   9.115  14.672  15.631 -0.2823  0.1442 -0.1396
15579W        W33783   9.957   1.978   3.137  0.2523 -0.1047  0.3777
15580W        W33784   1.997   8.599  16.362  0.2633 -0.0473  0.0501
15581W        W33785   4.382  11.835  12.800  0.2538 -0.0565  0.2444
15582W        W33786   5.581  12.810   4.860  0.1371  0.2104  0.3681
15583W        W33787  13.167  12.346   1.460  0.0638  0.0016  0.1990
15584W        W33788   9.350   0.958   3.344 -0.0830 -0.2832  0.1371
15585W        W33789   8.781   3.549   2.525 -0.0290 -0.0391 -0.1005
15586W        W33790  11.095   0.417  12.990  0.2108  0.1069  0.0602
15587W        W33791  12.755   2.778  16.838 -0.1433  0.0475  0.1242
15588W        W33792   2.178  11.834   5.057 -0.1647  0.2358 -0.1640
15589W        W33793   3.968   2.910   3.998 -0.3357  0.2543  0.0220
15590W        W33794  14.789  13.457  13.419 -0.1222 -0.1052 -0.1726
15591W        W33795   9.818   7.562   5.309  0.0926  0.0834 -0.0502
15592W        W33796  16.751  11.367   0.276  0.1273  0.0592 -0.1149
15593W        W33797  17.284  10.835  13.704  0.0116  0.2930  0.1345
15594W        W33798  15.760   4.816  13.007  0.0550  0.1669 -0.1085
15595W        W33799   2.937  16.849  16.125  0.1267 -0.0508 -0.2117
15596W        W33800   0.034  16.336  16.792 -0.2328  0.3836 -0.0594
15597W        W33801  16.520   5.461   1.566 -0.3457  0.2423 -0.0397
15598W        W33802   8.099   1.827   0.584 -0.1034  0.0305  0.0186
15599W        W33803   5.554   3.063  15.205  0.1102 -0.2791 -0.2461
15600W        W33804   1.935   5.743   1.338 -0.1265 -0.1421 -0.0920
15601W        W33805  10.931   6.071   4.492  0.3836  0.1388 -0.0933
15602W        W33806   9.879  13.146   5.233 -0.3768 -0.0097  0.0336
15603W        W33807  15.427  12.643   4.410  0.0155  0.0412 -0.0449
15604W        W33808  17.193   2.368  13.327 -0.1321  0.4265  0.1691
15605W        W33809   8.549   3.677  15.094  0.1648 -0.2119  0.0233
15606W        W33810  13.468  15.999   3.701  0.1539  0.0867 -0.1077
15607W        W33811   9.243   0.649   0.986 -0.1690 -0.0854 -0.3492
15608W        W33812   0.451   1.581   1.055  0.2380 -0.0667 -0.0736
15609W        W33813   2.062  14.340  14.369  0.0443 -0.0503  0.0132
15610W        W33814   9.206   6.622   4.861 -0.0249 -0.0255 -0.0405
15611W        W33815   3.239  10.452   1.931  0.1553 -0.2694 -0.1084
15612W        W33816  12.760   6.588  12.962  0.0758 -0.1918  0.2043
15613W        W33817   1.926   6.759  16.358  0.2036 -0.0789 -0.0183
15614W        W33818   4.427  12.806  16.583  0.1766  0.1746  0.0655
15615W        W33819  16.437   6.876  12.837 -0.0302  0.2323  0.1075
15616W        W33820   3.976  11.193   4.760 -0.1063  0.2506  0.0352
15617W        W33821   3.113   5.418  17.477  0.1318  0.1160 -0.1076
15618W        W33822   4.885   3.789  16.042 -0.0412  0.0147 -0.0470
15619W        W33823  15.571  15.740   3.765  0.2302  0.0519  0.0580
15620W        W33824   1.262   7.597  16.490 -0.1490  0.2248  0.2999
15621W        W33825  13.366   5.050  15.007 -0.1392  0.3348 -0.0105
15622W        W33826   1.064  15.057  14.100 -0.2686  0.1943 -0.2413
15623W        W33827  13.955  12.896   1.451  0.1663  0.0651  0.3039
15624W        W33828  10.195   8.537   1.347 -0.0486  0.1225  0.3125
15625W        W33829   1.623  15.753   0.970  0.1443  0.1518 -0.2125
15626W        W33830   2.883   6.952   2.606 -0.1124  0.0371 -0.1610
15627W        W33831  14.614  15.474   5.311 -0.1269  0.2248  0.2759
15628W        W33832  14.042   9.107   3.318 -0.2488 -0.1172 -0.0576
15629W        W33833  16.585   1.494  16.344  0.3586  0.1451 -0.0881
15630W        W33834  15.998   1.301  14.342  0.0475  0.1708  0.1806
15631W        W33835  16.221  10.921   2.005 -0.1156 -0.0839 -0.0659
15632W        W33836  14.155  11.084  16.753  0.2138  0.1527  0.0552
15633W        W33837   6.544   7.220  13.691 -0.1627 -0.1401  0.0174
15634W        W33838   0.504  11.871  14.182  0.4097 -0.0567 -0.1611
15635W        W33839   9.003  12.854   2.768 -0.0083 -0.2302 -0.0836
15636W        W33840  13.736   3.805  13.312 -0.1865 -0.0400 -0.0014
15637W        W33841   3.054  11.369  14.555  0.4068 -0.0714 -0.1321
15638W        W33842  10.966  17.247   1.281 -0.2992 -0.2165 -0.1296
15639W        W33843   5.492  11.140  16.554  0.0464  0.1117 -0.2321
15640W        W33844   7.936   8.206   0.199 -0.1718 -0.1410 -0.1640
15641W        W33845  16.673   5.230  14.579 -0.0272 -0.0057  0.1678
15642W        W33846   4.900   2.240   3.708 -0.1051  0.1165  0.4076
15643W        W33847  16.569  13.032   2.108 -0.0941 -0.0688 -0.1244
15644W        W33848   7.230   7.214  13.993  0.3737  0.1314 -0.1631
15645W        W33849   9.136  15.621  15.162  0.0847 -0.0027 -0.3902
15646W        W33850  15.972  15.891   2.228  0.0581  0.2764 -0.3924
15647W        W33851   7.997   5.569  14.705  0.2075  0.1082  0.4292
15648W        W33852  14.270  12.346  15.395 -0.0690 -0.0855 -0.1694
15649W        W33853  14.682  16.335  16.377 -0.0851 -0.1609 -0.1647
15650W        W33854   2.996   7.053  13.804  0.2806  0.0425  0.0031
15651W        W33855   8.775   5.469  17.222 -0.0187  0.2124 -0.2574
15652W        W33856  11.956  14.963   0.309  0.1292  0.0273  0.0043
15653W        W33857   3.547  10.192  15.056  0.0427  0.3904 -0.1907
15654W        W33858  12.071  15.208   2.822  0.1944  0.1090  0.2062
15655W        W33859  11.899  15.656  15.004 -0.0348  0.0092  0.0379
15656W        W33860  15.249   9.690  12.318 -0.0356 -0.1393  0.3319
15657W        W33861   8.283   8.694   4.768  0.2773  0.0613  0.0867
15658W        W33862   4.200   2.322   0.272  0.0426 -0.3165 -0.0683
15659W        W33863   6.560   3.958   3.301  0.4162  0.1844 -0.1282
15660W        W33864   0.130   0.350   5.325 -0.1186  0.0191 -0.1267
15661W        W33865  15.163   7.832  14.409 -0.1027  0.1185  0.3624
15662W        W33866   9.425   4.129   2.196 -0.0672  0.2934  0.2668
15663W        W33867   0.843  10.148  14.452 -0.0444  0.0253 -0.2137
15664W        W33868  16.771   0.651  15.147 -0.0432  0.2372 -0.1980
15665W        W33869   7.812  16.180   1.956  0.0641  0.0962 -0.2991
15666W        W33870  16.698  12.339  12.604  0.0363 -0.2503  0.0451
15667W        W33871   6.576  10.561   3.561  0.2627 -0.1765  0.0817
15668W        W33872   2.981   8.645  16.150  0.0062 -0.0934  0.2463
15669W        W33873   2.845  11.972   4.492 -0.0346  0.1286  0.3621
15670W        W33874   0.959   9.125  13.074  0.1403 -0.2013 -0.1691
15671W        W33875  12.158   8.845   2.995  0.1141  0.1224  0.0033
15672W        W33876   3.053   1.571   2.773 -0.0775  0.2472 -0.1051
15673W        W33877   0.422  14.517   3.770  0.0900  0.0664 -0.0962
15674W        W33878   4.630  10.783   4.798  0.1680  0.1177 -0.0328
15675W        W33879   0.259  12.184   1.974 -0.1993 -0.0172  0.0736
15676W        W33880   9.836  11.360   5.195 -0.4581  0.2304  0.2245
15677W        W33881  13.716  10.129  16.607  0.1112  0.0882  0.0990
15678W        W33882   2.288  12.448   3.805  0.2775  0.3292  0.0586
15679W        W33883   6.364  17.175   3.393 -0.0803  0.1858  0.0124
15680W        W33884   9.634  14.491   2.287 -0.1259 -0.1756  0.2793
15681W        W33885   3.282  11.017  16.136 -0.0927  0.1832  0.2907
15682W        W33886  11.617  13.345  11.935 -0.1523  0.0897 -0.0687
15683W        W33887  12.149  16.646  15.836  0.3628  0.2091 -0.0763
15684W        W33888  16.489  12.761   0.329 -0.0875 -0.2364 -0.1574
15685W        W33889   5.097   6.907  14.857  0.1014  0.1906 -0.0474
15686W        W33890   4.278  17.186   1.299  0.2745 -0.2263 -0.1246
15687W        W33891  10.605  12.906  14.527 -0.0541  0.1154  0.1572
15688W        W33892   4.369   7.453   2.301  0.2409 -0.1618 -0.0636
15689W        W33893   2.244   3.527   3.828 -0.1143  0.2955 -0.0848
15690W        W33894  14.141  10.466  15.711  0.1323  0.3138 -0.1443
15691W        W33895   4.414   3.935  16.194  0.1813 -0.4277 -0.0939
15692W        W33896  11.694   6.577   3.119 -0.0097 -0.0598 -0.1327
15693W        W33897   5.889   8.005   4.302  0.0292  0.1557  0.3836
15694W        W33898  10.055   0.702  14.573  0.3390  0.0049 -0.0038
15695W        W33899  16.573   0.775  15.596 -0.2113 -0.0173  0.0570
15696W        W33900   7.703  13.516  16.865  0.0565 -0.5523  0.2546
15697W        W33901   5.050   8.453  16.780 -0.3160 -0.2053 -0.2794
15698W        W33902  10.410   8.374  16.569 -0.2809 -0.1248  0.0893
15699W        W33903   9.976   3.026  17.203  0.0498  0.1599  0.0351
15700W        W33904   9.152  13.487   2.427 -0.1803 -0.0389 -0.1789
15701W        W33905   5.837   8.213   1.554  0.2978 -0.0407 -0.0107
15702W        W33906   1.352   2.487  13.191 -0.2873 -0.1990 -0.0643
15703W        W33907  13.023  11.948  14.669 -0.3900 -0.3777 -0.2649
15704W        W33908  15.235   6.677  16.386 -0.2562  0.0773  0.0912
15705W        W33909   4.948   4.510   3.330 -0.2100  0.1204 -0.1734
15706W        W33910   2.169   3.205   0.444  0.1613 -0.1874 -0.0697
15707W        W33911  11.397  14.682  15.744 -0.0515 -0.1576 -0.0815
15708W        W33912   6.905   3.995   1.714  0.0796 -0.0092 -0.5693
15709W        W33913   7.449   2.327   0.576 -0.0317  0.0424  0.3032
15710W        W33914  14.294   7.533  13.576  0.1696  0.5002 -0.1617
15711W        W33915  12.058   8.519  16.112 -0.2218 -0.1162 -0.3509
15712W        W33916   1.251   7.011   2.085 -0.0696 -0.0335 -0.1181
15713W        W33917   0.703  14.810   1.535  0.0807  0.2342 -0.0245
15714W        W33918  11.135  14.603   4.249  0.1005 -0.2258  0.3632
15715W        W33919  14.415   1.845  16.702  0.1137 -0.0993 -0.1049
15716W        W33920   9.234  12.795  16.041 -0.1804  0.1110 -0.1995
15717W        W33921   2.472  13.586  13.166 -0.2144  0.1227 -0.2723
15718W        W33922   1.779  10.836   4.688  0.2247  0.1519 -0.0757
15719W        W33923   9.589  11.472   3.991  0.1886  0.1996 -0.0169
15720W        W33924   3.164   8.988   2.914 -0.2914  0.0539  0.0421
15721W        W33925   2.859   9.575   0.279 -0.0367  0.1249 -0.2767
15722W        W33926   3.247   3.906   3.868 -0.0384  0.0864  0.0365
15723W        W33927   7.180   4.873  15.190 -0.1417  0.4051 -0.1354
15724W        W33928   9.673   6.872  14.957 -0.1353 -0.1716 -0.0625
15725W        W33929   2.397   7.335   1.466  0.1144  0.0944  0.0095
15726W        W33930  12.983  12.762  12.818  0.0638  0.0406 -0.1431
15727W        W33931   0.150  14.473  14.572  0.2534  0.4762 -0.0015
15728W        W33932  14.140   1.428  12.775  0.0986  0.1365 -0.0122
15729W        W33933  10.659   2.050   4.967 -0.1138 -0.2353  0.0122
15730W        W33934   0.977   5.641  16.476 -0.3678  0.3066  0.0431
15731W        W33935   7.660   3.455   2.717  0.2142  0.1609  0.1363
15732W        W33936  16.258   0.395   2.268 -0.1208  0.1915  0.4376
15733W        W33937  13.664  17.302  14.359  0.2548  0.2200  0.2569
15734W        W33938   8.027   8.816  15.562  0.2367 -0.2644 -0.1552
15735W        W33939   7.004  12.683  13.728 -0.1429 -0.2769 -0.0604
15736W        W33940  10.288  10.764  17.376  0.2238  0.0826  0.0391
15737W        W33941  16.353   8.443  17.461  0.1339 -0.0190  0.1209
15738W        W33942   4.356  12.561  15.585 -0.1853 -0.0046  0.0149
15739W        W33943   2.606  10.970   1.102  0.0050 -0.0817 -0.0285
15740W        W33944   1.364  13.844   0.064  0.0858  0.0496  0.0265
15741W        W33945   4.853  14.634  13.763  0.0165 -0.2284 -0.0221
15742W        W33946  13.726   8.436   1.631 -0.4900 -0.0312 -0.3471
15743W        W33947   2.105   8.136   3.015  0.2410  0.1855  0.1898
15744W        W33948  16.466   4.432  13.032 -0.0728  0.4103  0.0878
15745W        W33949  14.888   4.596  13.183 -0.2517  0.0101  0.0746
15746W        W33950   3.049   7.739   2.064  0.1385 -0.1758  0.2574
15747W        W33951   8.552  14.243   0.779  0.1262  0.0041 -0.1743
15748W        W33952  10.793   1.439  12.594 -0.2956  0.1905  0.4284
15749W        W33953  12.920  11.377   2.056  0.1089 -0.1512 -0.1573
15750W        W33954  15.840  12.260   3.872  0.4048 -0.0352 -0.0352
15751W        W33955   9.406  17.083   3.786  0.0193 -0.1187 -0.2406
15752W        W33956   2.245  12.216   2.388  0.3866  0.0842  0.0270
15753W        W33957   4.451  12.933   3.544 -0.1465 -0.1416 -0.0723
15754W        W33958   5.189   4.966   2.200  0.1258 -0.0447 -0.2442
15755W        W33959   2.011   2.303  16.661  0.2115 -0.2726  0.0265
15756W        W33960   0.704   9.590   4.945  0.1888 -0.1753  0.3203
15757W        W33961   6.388   0.872   3.051  0.0999  0.0217 -0.1856
15758W        W33962  13.691  15.512   5.985  0.1956 -0.1972  0.2528
15759W        W33963  10.867   3.381   2.543  0.3328  0.1024 -0.2215
15760W        W33964  15.878  13.510   2.632 -0.1213 -0.2552 -0.1061
15761W        W33965   9.680   2.679  13.157  0.1186  0.0041  0.3735
15762W        W33966   6.175   2.805  12.898  0.0332  0.0539 -0.2505
15763W        W33967   9.444   7.771   3.959  0.0298  0.0180 -0.1456
15764W        W33968  16.163  13.298  14.766 -0.0288 -0.0205 -0.0174
15765W        W33969   1.574   0.396   2.681  0.3429  0.1444  0.2439
15766W        W33970  16.262   6.263  12.812  0.0941 -0.0102 -0.0636
15767W        W33971  12.535  12.279   3.476  0.1241 -0.0632 -0.1777
15768W        W33972   4.032  15.160   1.576 -0.0838 -0.0339  0.2123
15769W        W33973   3.996   0.860  14.997  0.2659  0.0648 -0.0127
15770W        W33974   0.590  16.086  14.934  0.1304  0.0608 -0.2826
15771W        W33975   5.236  16.010  12.626  0.0418  0.2048 -0.2210
15772W        W33976   2.738  10.547  12.830  0.1697  0.1855  0.0430
15773W        W33977  12.435   5.275   2.938  0.0844 -0.1378  0.1860
15774W        W33978   9.552  10.850   1.895 -0.1132  0.0995  0.0706
15775W        W33979  14.541   0.133  12.813 -0.1730 -0.1718 -0.0392
15776W        W33980   8.245   8.967   2.909 -0.1622  0.0258  0.0194
15777W        W33981  10.246   1.694   5.008 -0.0072  0.0153  0.0620
15778W        W33982   1.061   1.093  16.105  0.1050 -0.3764  0.3068
15779W        W33983   0.992   0.759  14.276  0.0049  0.1557  0.1368
15780W        W33984  16.489  16.440  14.114  0.0584  0.2010 -0.1848
15781W        W33985   6.885   6.994  12.676  0.0830 -0.1094  0.0200
15782W        W33986   0.785   1.553   3.507  0.1057  0.2735 -0.4101
15783W        W33987   6.629   7.808  12.326  0.0073  0.0105 -0.1916
15784W        W33988  12.842   2.977  12.052 -0.1571 -0.0910 -0.2113
15785W        W33989   0.355   9.710  17.456  0.1431 -0.2744  0.2235
15786W        W33990  13.800  15.152   2.378 -0.1956 -0.1659  0.4037
15787W        W33991   9.649  12.824   1.367  0.1736  0.1087  0.0619
15788W        W33992   5.625   5.451  12.715  0.3144 -0.2236 -0.1898
15789W        W33993   1.721   6.659   4.377 -0.0830  0.1502 -0.0257
15790W        W33994   8.188   2.114  12.976 -0.1198 -0.1868 -0.1280
15791W        W33995   9.093   3.734  15.916  0.0573  0.3902 -0.0178
15792W        W33996   6.287  10.312   0.857  0.0706 -0.1393  0.1390
15793W        W33997  15.102  15.868   3.390  0.0045  0.1283 -0.2335
15794W        W33998  13.055  11.467   3.796 -0.3705  0.0252  0.0894
15795W        W33999   4.115   4.894  12.852 -0.0618 -0.0180 -0.0886
15796W        W34000  12.826   2.194   4.497  0.0061  0.0272  0.0557
15797W        W34001   6.052  13.666  15.603 -0.1503 -0.0838  0.1080
15798W        W34002  12.477   5.277  14.667 -0.3633  0.1021  0.1935
15799W        W34003  10.924  16.311   5.730  0.0938  0.3096 -0.0048
15800W        W34004   6.400  17.053  15.938  0.0048 -0.2181  0.0513
15801W        W34005  15.410  13.949  16.826 -0.1042 -0.0608  0.1290
15802W        W34006  10.310   7.932  12.424  0.0618  0.0041  0.2141
15803W        W34007   2.004   6.790   3.663  0.2489  0.1572  0.3581
15804W        W34008   5.417   4.197  11.861 -0.1260 -0.2008  0.0570
15805W        W34009  13.567   9.897   0.750  0.0790 -0.0236 -0.1929
15806W        W34010  12.838   3.941  14.366 -0.0235 -0.1660 -0.2224
15807W        W34011   3.417   4.649   5.156  0.0135 -0.0111  0.0261
15808W        W34012   0.409  14.569   4.327 -0.2289 -0.1056 -0.0007
15809W        W34013   1.757   2.589  15.491  0.1609 -0.0850 -0.0895
15810W        W34014   5.368  11.076   1.504 -0.2329  0.3490  0.2488
15811W        W34015  14.975  15.611  13.916 -0.1927  0.0041  0.0792
15812W        W34016   5.018   0.879   4.238 -0.1249 -0.4125 -0.1823
15813W        W34017  15.051   0.926   0.023 -0.1195 -0.1818 -0.5243
15814W        W34018   2.208   5.614   0.021 -0.0602 -0.1871  0.0388
15815W        W34019  12.656  13.872  15.545  0.0524  0.1959 -0.0815
15816W        W34020   6.028  12.229  14.691 -0.1795 -0.0921 -0.1668
15817W        W34021  11.529   9.047  15.602 -0.1551 -0.1000  0.1362
15818W        W34022   4.372  16.164  12.078  0.0019  0.2277  0.1246
15819W        W34023  14.784  11.243   2.235  0.1534 -0.0330  0.2747
15820W        W34024  12.358  14.930   5.359 -0.0198 -0.0754  0.0381
15821W        W34025   1.466  12.671  17.000 -0.0954  0.0770  0.2498
15822W        W34026  11.040   3.974   3.977  0.0456 -0.3180  0.3534
15823W        W34027  10.873  16.670   4.278  0.1420 -0.2134  0.0707
15824W        W34028  15.971   7.384   3.635  0.0525  0.0350 -0.3127
15825W        W34029   6.003   0.621  17.398  0.0058 -0.0629 -0.0896
15826W        W34030   1.179   3.606  13.161 -0.1489 -0.0360 -0.1249
15827W        W34031   6.068   3.743  15.621 -0.1286  0.0897 -0.1047
15828W        W34032   8.093  15.037  12.379  0.0631  0.0453  0.1146
15829W        W34033   4.275  17.182   4.729  0.3395  0.2036  0.1080
15830W        W34034   9.370  16.474  14.201 -0.2681  0.0470  0.1783
15831W        W34035  16.446   5.465  14.919 -0.0181 -0.1555 -0.0782
15832W        W34036   0.806   7.294  13.725 -0.0105 -0.0392 -0.0388
15833W        W34037  11.670   6.593  14.443  0.0864  0.1071 -0.0497
15834W        W34038  13.016  10.124   2.843  0.0497 -0.0042 -0.2344
15835W        W34039   2.095  15.181   1.174  0.0340  0.2289 -0.2697
15836W        W34040   9.093   8.916   5.769 -0.0763 -0.1825 -0.0605
15837W        W34041   5.128   1.679   0.555 -0.3100 -0.0453 -0.0986
15838W        W34042   0.908   9.202   5.745  0.2961  0.2206 -0.1547
15839W        W34043   2.547  15.399  14.398  0.1182 -0.2996 -0.1708
15840W        W34044  10.558   2.688   2.103  0.2526  0.0334  0.2011
15841W        W34045   8.419  12.885  12.429 -0.1531  0.2700  0.0055
15842W        W34046   5.542  13.683  15.825  0.2588  0.0599 -0.1569
15843W        W34047   7.711   8.115  13.516 -0.0260 -0.1237  0.1853
15844W        W34048  11.553  14.849   5.160  0.1076 -0.3576 -0.3939
15845W        W34049   4.013   5.834  15.951 -0.0975  0.0994  0.0159
15846W        W34050  10.259  10.225   0.680  0.0108  0.0858 -0.1212
15847W        W34051   8.769  17.206   4.907  0.4745  0.2514 -0.2422
15848W        W34052  13.549   1.800   0.740 -0.1011  0.2312 -0.0549
15849W        W34053  16.100  15.685   0.089 -0.0638  0.0226 -0.1495
15850W        W34054  16.265   1.042   5.074 -0.0017 -0.2719  0.2197
15851W        W34055  14.267   0.455  13.623  0.1567 -0.0728 -0.0078
15852W        W34056  11.003  16.849   0.351 -0.1680 -0.1605  0.0235
15853W        W34057   9.201   3.334  13.203  0.2918  0.0397  0.0183
15854W        W34058   7.400  10.599  16.966 -0.0173  0.0765 -0.2004
15855W        W34059  13.100   9.515   0.166 -0.0390  0.2916 -0.0760
15856W        W34060   7.276   9.490   1.313 -0.2746 -0.1851  0.0621
15857W        W34061  14.281   3.076   1.767  0.0905  0.1863 -0.4224
15858W        W34062  14.640   9.205   3.959 -0.0962 -0.0120 -0.0858
15859W        W34063   7.309   4.295   3.591  0.3502 -0.2308  0.0311
15860W        W34064  10.174  12.037  13.991 -0.1115 -0.2881  0.1399
15861W        W34065  15.830   6.198  11.243  0.0734 -0.1018  0.0194
15862W        W34066  14.472  10.544  15.296  0.2404 -0.1111 -0.0849
15863W        W34067  10.975  12.054  15.478 -0.1068 -0.2756 -0.1839
15864W        W34068   4.128  15.930  12.489 -0.0579 -0.2735 -0.0378
15865W        W34069   7.754  11.035  15.913 -0.1216  0.0369 -0.0118
15866W        W34070   7.102   0.934  17.132 -0.0818  0.1099 -0.1683
15867W        W34071   2.670  16.659  14.972  0.1653 -0.0288  0.3669
15868W        W34072  16.038   7.258  12.966  0.1100  0.2489  0.0741
15869W        W34073   9.559   3.645   2.259  0.1694 -0.1965 -0.1128
15870W        W34074  15.458  11.299  17.262 -0.0776  0.0349  0.1482
15871W        W34075   3.141   9.459  15.490 -0.1312 -0.1064 -0.0435
15872W        W34076  15.510   7.432  14.049  0.0269 -0.1595 -0.0769
15873W        W34077  11.717  15.347   4.213  0.0698 -0.0053 -0.3704
15874W        W34078   2.836  15.599   0.901 -0.1752 -0.1664  0.0041
15875W        W34079   5.446   4.727   2.610  0.2061 -0.0813 -0.1782
15876W        W34080   0.767   0.237   2.132 -0.3049  0.4067  0.2102
15877W        W34081   4.969   9.889   5.113  0.0815  0.0111 -0.1123
15878W        W34082   6.928   0.353   0.884 -0.0459  0.0449 -0.0599
15879W        W34083   1.334  16.411  13.774  0.1701  0.4152 -0.0798
15880W        W34084  17.028   1.907  16.231 -0.0366 -0.0660 -0.3265
15881W        W34085  10.469   0.324  15.241  0.1039  0.1590 -0.2565
15882W        W34086  15.177   1.436  13.963  0.0680  0.0965  0.1933
15883W        W34087   9.197  10.918  13.190  0.3699  0.0717  0.0145
15884W        W34088   4.308   8.058   3.386  0.1968 -0.4315 -0.0656
15885W        W34089   2.793  13.625   2.340 -0.2532  0.1003 -0.0442
15886W        W34090   5.207  13.170   1.475 -0.2107  0.1485 -0.0788
15887W        W34091  16.269  13.037   0.709 -0.0677  0.1764  0.2271
15888W        W34092   0.554   1.585   1.858  0.0710  0.2563  0.3693
15889W        W34093   9.594  12.114  15.967  0.1728  0.2378 -0.3911
15890W        W34094   6.485   4.678  14.771 -0.0642  0.1198  0.3126
15891W        W34095   8.187   6.913  14.064 -0.0956  0.0124 -0.1767
15892W        W34096   5.707   3.141  13.495  0.2288 -0.3076  0.3210
15893W        W34097  10.668  11.451   3.672 -0.0075 -0.0715 -0.1126
15894W        W34098   3.137  15.814  17.364 -0.1636 -0.0571  0.2217
15895W        W34099  15.053   7.641   0.366  0.1369 -0.0803  0.4870
15896W        W34100   8.607   2.636   4.683  0.0237 -0.5234 -0.1108
15897W        W34101  17.033  12.055   5.511  0.1147  0.1343 -0.1619
15898W        W34102  13.681  13.196  16.739  0.0500 -0.0522  0.1222
15899W        W34103  17.041   6.906   4.163  0.0394  0.1540 -0.1752
15900W        W34104   0.206  15.199  12.921 -0.4890 -0.0289  0.2732
15901W        W34105  13.250  12.192  16.776 -0.0923  0.2382 -0.0191
15902W        W34106   0.249  15.995   5.102 -0.2240  0.1912  0.0544
15903W        W34107   2.951   3.489   2.177  0.1807  0.0031 -0.1645
15904W        W34108   3.771  13.620   3.730  0.1404 -0.2042  0.0743
15905W        W34109  12.908   2.018  11.709  0.1867  0.0280  0.0989
15906W        W34110  12.952  10.092  12.239 -0.2137 -0.0419  0.1021
15907W        W34111   6.486   8.071   2.356 -0.1011 -0.0132  0.0568
15908W        W34112   8.560   1.880  15.597 -0.1030  0.0564  0.0175
15909W        W34113   2.068  15.890   2.398 -0.1672 -0.2555 -0.2656
15910W        W34114  16.637  17.058  13.383 -0.0637 -0.1918  0.1195
15911W        W34115   1.935   8.508   0.311 -0.0187  0.3502 -0.0011
15912W        W34116   1.777   0.122  15.534 -0.0848 -0.0378  0.3885
15913W        W34117  16.489   0.852   2.073 -0.0103  0.0932 -0.0667
15914W        W34118   3.463   6.106   2.966  0.0070 -0.0063 -0.3187
15915W        W34119  10.927   7.554  14.076  0.0531 -0.1992  0.1373
15916W        W34120   1.962   8.242  14.437  0.1395 -0.0129  0.5358
15917W        W34121   6.834   2.599   1.739 -0.0402  0.1836 -0.2393
15918W        W34122   4.979   0.222  16.266 -0.0233  0.0561 -0.0458
15919W        W34123  16.119   7.227   2.269 -0.3406  0.1179  0.2833
15920W        W34124   1.170   3.506   1.146 -0.0193  0.1622  0.1525
15921W        W34125   5.538  12.162   2.808 -0.1956 -0.1635 -0.0048
15922W        W34126   9.976  16.574  12.365 -0.2316  0.1532  0.2442
15923W        W34127   4.242   6.731  12.961  0.2024 -0.2410  0.0269
15924W        W34128   6.784  15.938  14.925  0.2212  0.0801 -0.0223
15925W        W34129  15.760  10.807  15.224 -0.0656 -0.0787 -0.1525
15926W        W34130   5.365   6.962  15.694  0.2566 -0.1211  0.0073
15927W        W34131   3.158  13.047  17.002  0.0946 -0.2089  0.0858
15928W        W34132  10.855   2.810  14.051  0.0777 -0.0603 -0.3355
15929W        W34133   1.693  10.544   1.705 -0.1547  0.1731 -0.1350
15930W        W34134   9.361   2.804   4.341  0.1340  0.1148  0.3182
15931W        W34135  10.925  15.336   4.339 -0.0100  0.1495 -0.1918
15932W        W34136  10.031   5.602   3.676  0.2544  0.0800 -0.3057
15933W        W34137  15.552   9.083   4.160  0.1365 -0.0995  0.1470
15934W        W34138   2.191   0.874  15.227  0.0313 -0.2459  0.2395
15935W        W34139  14.989   3.348   3.258 -0.1127 -0.0661  0.4874
15936W        W34140   2.662  15.380  13.205 -0.2828 -0.0472 -0.2136
15937W        W34141  10.655  10.276  14.344  0.0114  0.1061  0.1326
15938W        W34142   4.455  16.102   3.130 -0.3251 -0.0231 -0.1780
15939W        W34143  16.966   4.747  13.909 -0.3055  0.0655  0.2837
15940W        W34144  17.126  13.659  14.671 -0.1770 -0.2819 -0.0897
15941W        W34145   0.049   4.326  12.752 -0.1969 -0.1291 -0.1332
15942W        W34146   6.761  10.773  13.019 -0.2183  0.1395  0.2597
15943W        W34147   3.476   6.028   4.023  0.1600  0.0523  0.0290
15944W        W34148   6.680   1.654  16.764  0.2576 -0.0424  0.1224
15945W        W34149  16.162   3.311  13.349  0.1288  0.1435  0.0043
15946W        W34150   1.979   7.081   1.315  0.0737  0.0385 -0.0855
15947W        W34151   5.010   6.418  14.501 -0.0147  0.0800  0.1469
15948W        W34152  15.582   5.945   3.151  0.0678 -0.0480 -0.0857
15949W        W34153  15.082  15.527  16.829 -0.2437  0.0670 -0.0888
15950W        W34154  12.099  16.117  12.833  0.0109 -0.3358  0.2309
15951W        W34155   5.160  11.034   2.169  0.1518 -0.2093  0.0952
15952W        W34156   4.540   8.849   4.176 -0.2055 -0.0823  0.0193
15953W        W34157  10.722   1.477  16.208 -0.2563 -0.2031 -0.0982
15954W        W34158   2.953  15.283  13.592  0.2981  0.1531  0.0518
15955W        W34159  13.910  10.749  14.365  0.2073 -0.0026 -0.0959
15956W        W34160  13.400  12.881   3.149  0.0692  0.2390  0.1908
15957W        W34161   8.129   6.928  12.345  0.1260  0.2853  0.3189
15958W        W34162  14.229   2.115  15.855 -0.1560  0.0480 -0.1466
15959W        W34163   6.544  13.636  16.932 -0.0234 -0.0356 -0.1374
15960W        W34164  11.649  11.514  17.026  0.0336  0.0663 -0.0522
15961W        W34165  14.608   8.257   5.414  0.2297  0.0437  0.2919
15962W        W34166   0.441   2.331  16.610  0.3199 -0.1016  0.0447
15963W        W34167   8.277  17.094  14.717  0.0914  0.1193 -0.0033
15964W        W34168  15.673  17.057   4.634 -0.1428 -0.3363  0.0014
15965W        W34169  10.968   4.851  16.962  0.1986 -0.2450  0.2312
15966W        W34170   0.972   4.888  12.838 -0.2525  0.0584 -0.0876
15967W        W34171   9.079   2.941   3.443  0.0270  0.0812 -0.0235
15968W        W34172   4.221   0.199   3.718  0.1646  0.1047  0.4637
15969W        W34173   3.573   7.695   1.973 -0.0057 -0.2674  0.1553
15970W        W34174  16.747   8.412   3.043 -0.1037 -0.0624 -0.0822
15971W        W34175   2.364  16.815  14.594  0.0590 -0.0407  0.2810
15972W        W34176   5.423   2.220  14.087 -0.0059 -0.0618 -0.0260
15973W        W34177  11.097  13.463   0.609  0.1868  0.0612 -0.2138
15974W        W34178  12.495  13.463  13.415 -0.0464 -0.2585  0.1428
15975W        W34179   2.284   1.747  13.173 -0.0983  0.2001  0.0764
15976W        W34180  17.144   9.831   0.184  0.0896  0.1547 -0.2341
15977W        W34181  12.012  10.892   2.590  0.0168 -0.1318  0.1853
15978W        W34182   1.756   8.482   4.968 -0.0488  0.1164 -0.1904
15979W        W34183  12.319   7.215  16.099 -0.0217  0.1391  0.0027
15980W        W34184  14.766  13.799   2.598  0.0390  0.1519 -0.2031
15981W        W34185   0.181  14.300  12.402 -0.1652  0.2954 -0.0402
15982W        W34186  12.858   2.036   1.380 -0.1875 -0.1161 -0.1521
15983W        W34187   4.655  14.425  16.856 -0.0569  0.1032  0.4460
15984W        W34188   0.022  13.214  14.882  0.1107  0.0949 -0.0198
15985W        W34189  11.744  14.812   2.930  0.0612 -0.1271 -0.3150
15986W        W34190   8.706   0.677   2.222  0.2221 -0.1191 -0.0897
15987W        W34191  12.685  11.921  15.651 -0.0442  0.0595 -0.0745
15988W        W34192  14.958   7.511   2.099 -0.3227 -0.1205 -0.1984
15989W        W34193   3.592   2.343   0.580 -0.1848 -0.0691  0.2551
15990W        W34194   6.329   0.580  14.050  0.0171 -0.1755  0.1319
15991W        W34195   9.101  16.992  13.520 -0.1451  0.1857 -0.1117
15992W        W34196   4.293   3.312  15.564 -0.0254 -0.0260 -0.0965
15993W        W34197   3.825   4.517   3.670 -0.0292  0.1596 -0.2250
15994W        W34198   1.523  12.895  16.082 -0.2397  0.0384  0.1658
15995W        W34199  11.325   3.622  12.890 -0.1601  0.1936 -0.2068
15996W        W34200   8.271  10.327   5.697  0.2471  0.3357  0.0472
15997W        W34201  11.708   0.767   4.476  0.0333 -0.0289  0.0315
15998W        W34202  16.047   8.797  13.478 -0.0791  0.0455  0.0428
15999W        W34203  16.923  16.707  15.853  0.0210 -0.1947 -0.2470
16000W        W34204  14.323  14.013   2.464 -0.2197  0.0016  0.2898
16001W        W34205   3.800  11.080   2.542  0.0412  0.1033 -0.0301
16002W        W34206  11.271  14.394   0.378  0.0563 -0.1617 -0.3494
16003W        W34207   3.843  10.330   0.998  0.2291 -0.0407 -0.1784
16004W        W34208   1.389  15.587  16.318  0.4530 -0.1702 -0.0325
16005W        W34209   2.018   2.139  15.684 -0.0141 -0.0187  0.0604
16006W        W34210   9.090  11.679  15.793  0.1724 -0.0006  0.0008
16007W        W34211   3.792   2.817  14.737 -0.0282 -0.0686  0.1219
16008W        W34212   7.804   2.524  16.540  0.0605  0.2537 -0.3442
16009W        W34213   2.515  12.491   5.652 -0.0708  0.1842  0.1562
16010W        W34214   2.535   7.336  13.825 -0.0566  0.2189  0.1229
16011W        W34215   6.482   7.290   1.242 -0.0921  0.0780  0.0741
16012W        W34216   0.132   7.956  14.780 -0.1148 -0.0755  0.1563
16013W        W34217   9.185  15.284   4.593  0.1048  0.2643  0.1868
16014W        W34218  14.343  12.430   0.005  0.0857  0.0084  0.1290
16015W        W34219  17.045  10.213  16.385 -0.2177  0.0387  0.1306
16016W        W34220   3.923  11.789  15.062 -0.0959  0.0939  0.2585
16017W        W34221  11.915   0.137   3.291  0.2193 -0.2996 -0.0854
16018W        W34222  10.744  15.903   5.442  0.0852  0.0880 -0.1259
16019W        W34223  16.429   5.704   2.378  0.3277 -0.3208 -0.3237
16020W        W34224   0.650  11.059   4.694  0.0993 -0.1086  0.1826
16021W        W34225   5.205   3.634   0.007  0.0040  0.0023  0.1522
16022W        W34226   3.794  10.883  15.305 -0.1132  0.1199  0.1502
16023W        W34227   4.338  17.117   3.349  0.0470 -0.2168 -0.1147
16024W        W34228   3.168   7.568   0.925 -0.1043  0.0199 -0.1669
16025W        W34229   2.459  13.103  12.913 -0.2082 -0.0632 -0.0586
16026W        W34230   8.471  12.015  16.881 -0.0199 -0.2078  0.0848
16027W        W34231  12.256  13.659   5.478  0.1281  0.0764  0.2553
16028W        W34232  12.257  13.841  15.230 -0.2653  0.1003 -0.0685
16029W        W34233  15.353  11.722  16.672  0.0599 -0.1329  0.1673
16030W        W34234   9.965   1.065  15.480 -0.1897  0.0398  0.3105
16031W        W34235   2.640  12.912  14.066 -0.0427  0.2645  0.1027
16032W        W34236  13.299   7.372   3.903  0.4078 -0.1382 -0.0519
16033W        W34237  14.765   2.170   4.216  0.1023  0.4033  0.1241
16034W        W34238   1.258   2.495   2.282  0.0951  0.1670 -0.1696
16035W        W34239   0.129   8.032  12.639 -0.1743 -0.2162  0.2753
16036W        W34240   5.354  11.241  13.324 -0.2279 -0.2597  0.2211
16037W        W34241   8.104  16.894   2.835  0.0888 -0.2254  0.0073
16038W        W34242  12.641   0.862   1.752 -0.2104 -0.2761  0.0654
16039W        W34243   7.677   0.971  15.362 -0.0196 -0.1812  0.0822
16040W        W34244   5.121  14.784   6.295 -0.0530  0.1096  0.1048
16041W        W34245  14.337   5.600  14.233 -0.1547 -0.0074  0.4127
16042W        W34246   4.837  12.067  13.011 -0.0876 -0.0772 -0.2354
16043W        W34247   2.701  12.975   2.037 -0.1324 -0.1741  0.0850
16044W        W34248  10.777   0.899   3.271 -0.3476  0.0878 -0.0855
16045W        W34249  15.282   7.588   4.247  0.1267 -0.0606  0.1735
16046W        W34250  10.418   4.392   5.007 -0.1828  0.0827  0.2288
16047W        W34251  15.633   2.632  17.047 -0.0508 -0.3363  0.2453
16048W        W34252  16.860  15.292   3.441 -0.2749 -0.0239 -0.3826
16049W        W34253  15.965   2.785   0.212 -0.1108  0.0010 -0.0017
16050W        W34254  14.872  12.158  13.875  0.0812  0.0749  0.0354
16051W        W34255  11.824  16.964  14.176  0.1868 -0.1937  0.0169
16052W        W34256   3.896   8.959  16.313 -0.2876  0.1671  0.1109
16053W        W34257  16.006   6.634  12.587  0.0040  0.1025 -0.3584
16054W        W34258   5.828  11.332  16.175 -0.0725 -0.0060 -0.1764
16055W        W34259   3.881   4.752  15.868 -0.2319  0.2445  0.2581
16056W        W34260  11.288   8.428  16.739 -0.0779 -0.2032 -0.0575
16057W        W34261  16.497   2.715  12.895 -0.3599  0.0524 -0.1966
16058W        W34262  15.981  14.852   1.142  0.0242 -0.1246  0.2545
16059W        W34263  10.748   0.030  13.128  0.0464 -0.1176 -0.0585
16060W        W34264   6.009   2.814  14.404 -0.3480  0.0744  0.0292
16061W        W34265  17.137   6.053  12.321  0.2820 -0.0812  0.0831
16062W        W34266  10.214   1.400   0.625 -0.1514  0.2184 -0.0941
16063W        W34267  14.412   0.894   2.102 -0.2365  0.0953 -0.1220
16064W        W34268   5.031   8.269  15.132  0.1062 -0.2383 -0.0960
16065W        W34269   7.642  16.532  13.242 -0.1874  0.0455 -0.1447
16066W        W34270   4.067  15.352  15.846 -0.1378  0.2083  0.2265
16067W        W34271   8.424  14.786   4.098 -0.0248 -0.1265 -0.0699
16068W        W34272   9.552  14.968   2.007  0.1480  0.3385 -0.0437
16069W        W34273   5.067   2.040  13.135  0.3720 -0.2994 -0.0994
16070W        W34274  14.049  11.183  17.200 -0.4798 -0.0993 -0.1792
16071W        W34275  12.633   9.947  13.702 -0.0055 -0.2347 -0.3189
16072W        W34276   7.051   0.056  12.824 -0.2822 -0.4620 -0.3687
16073W        W34277  13.097  10.480   4.861  0.2856  0.2469  0.3490
16074W        W34278  10.841   7.817  15.402 -0.2046  0.1797 -0.1503
16075W        W34279   2.367   5.293  13.370 -0.0738  0.1171  0.0802
16076W        W34280  11.585  11.212  13.791 -0.3799  0.2782 -0.1672
16077W        W34281  17.157   8.413  14.835  0.2224  0.1310 -0.2963
16078W        W34282   2.346  17.234  15.255 -0.1831  0.0248  0.0969
16079W        W34283   3.672   2.343  14.605  0.2809 -0.0539 -0.1092
16080W        W34284  16.859   8.537   0.075  0.3569 -0.1917 -0.1607
16081W        W34285   4.531   2.281   0.727 -0.0694 -0.1452  0.0135
16082W        W34286   1.557  10.069   2.374  0.0414 -0.3288  0.2776
16083W        W34287   8.312   4.546   4.405 -0.2012  0.0558 -0.0092
16084W        W34288   2.910   3.063   2.505  0.0401 -0.0650 -0.0872
16085W        W34289   4.929  15.252  12.863 -0.0304 -0.2256  0.1606
16086W        W34290   0.537  13.305  14.771 -0.2101 -0.0764 -0.0489
16087W        W34291  12.974   8.249   6.117  0.0894  0.2314  0.0512
16088W        W34292  15.598  13.825   0.288 -0.1977  0.1354 -0.0815
16089W        W34293  12.380  11.756  13.465 -0.0453  0.1123  0.2082
16090W        W34294   1.036  12.376  14.843 -0.0997 -0.1977  0.0956
16091W        W34295   4.141  13.238   2.115  0.0018 -0.0398  0.1715
16092W        W34296   4.429   8.426  11.808 -0.0355 -0.0234  0.1682
16093W        W34297   8.581   4.431  16.203  0.1603 -0.0130 -0.0620
16094W        W34298   8.357   7.757  17.434 -0.1793 -0.1195  0.0222
16095W        W34299  12.707   0.470   2.920  0.2802  0.0806  0.1938
16096W        W34300   7.687  15.160  15.331  0.0058  0.0674  0.1912
16097W        W34301   7.451   8.898   4.992  0.0596 -0.1216 -0.0778
16098W        W34302  17.261  14.920   2.698  0.0655 -0.1598 -0.0196
16099W        W34303   9.774   8.034   4.301 -0.0777  0.0510 -0.0379
16100W        W34304   2.347   9.558   5.283 -0.0064 -0.0999 -0.2185
16101W        W34305   6.354  15.805   0.331 -0.1283 -0.3554  0.2320
16102W        W34306  10.862  12.074   5.095 -0.0051 -0.2860  0.2563
16103W        W34307   3.763   1.569  14.087  0.1932  0.0877 -0.2038
16104W        W34308   4.994  10.676  12.243  0.0128 -0.0410 -0.0217
16105W        W34309   8.826   2.340  15.860  0.1984 -0.0891  0.1445
16106W        W34310  14.694  12.666   1.969  0.0214  0.2042  0.2142
16107W        W34311   9.232  12.062   2.532  0.0924 -0.1168  0.1740
16108W        W34312   8.170   4.672   2.644 -0.3600 -0.2382  0.2570
16109W        W34313  17.081  15.320  16.155  0.2271  0.1520  0.3245
16110W        W34314   2.945  16.394  15.949  0.2069  0.0736 -0.0450
16111W        W34315   7.678   7.354   2.586 -0.0113  0.1514  0.0584
16112W        W34316  12.593   7.310   1.144 -0.1613 -0.3448  0.0098
16113W        W34317   9.444   6.824  14.489 -0.0376 -0.1113  0.1401
16114W        W34318   5.709  12.161  13.235 -0.1301  0.0820  0.0390
16115W        W34319   6.465   2.130  16.620 -0.0542 -0.3545  0.1294
16116W        W34320  15.081   7.218   2.484 -0.2811 -0.1257 -0.2272
16117W        W34321   9.415  11.648  16.148  0.0879  0.2396  0.0452
16118W        W34322  16.022   7.512  13.427 -0.0185 -0.0871  0.2057
16119W        W34323   3.745   8.490  16.425  0.1075  0.1451  0.1266
16120W        W34324   7.549   0.367  11.911  0.0965 -0.2010  0.2302
16121W        W34325   0.292   5.966  13.141  0.2715  0.0884  0.1678
16122W        W34326  12.300  14.964   6.647 -0.1147 -0.1707  0.0494
16123W        W34327  16.713  13.862  12.591 -0.0093  0.0644 -0.1243
16124W        W34328   0.612   3.853  15.025 -0.0709 -0.1274  0.1418
16125W        W34329   5.395  16.129   3.623 -0.1534 -0.0004 -0.1712
16126W        W34330   8.399   8.516   1.281 -0.2208 -0.1800 -0.0262
16127W        W34331   9.552  12.767   3.989  0.1464  0.0009 -0.0279
16128W        W34332   6.394  13.495  17.429  0.1097 -0.0460 -0.1670
16129W        W34333   0.492   7.508   3.510  0.1510  0.2182 -0.0417
16130W        W34334  13.402   7.492   4.380 -0.1388 -0.0943 -0.2297
16131W        W34335   3.066   7.875  15.620  0.3319 -0.0824  0.1626
16132W        W34336  16.156  10.982  15.051 -0.3033  0.3177  0.0540
16133W        W34337   7.145   7.300   2.671 -0.0810 -0.5674 -0.3933
16134W        W34338  12.506  13.814   3.659 -0.0253 -0.4134 -0.2687
16135W        W34339   5.851  13.790  13.001 -0.0642 -0.0355 -0.0377
16136W        W34340   4.697   5.451  13.348  0.0534  0.1350  0.0746
16137W        W34341   8.872   7.966   3.349  0.1533 -0.4169  0.0975
16138W        W34342   4.795   8.883  14.330 -0.1109  0.0091  0.1072
16139W        W34343  10.792  14.047   1.160 -0.1189  0.0092  0.1744
16140W        W34344   1.857   9.125   2.600  0.0888  0.1069 -0.1440
16141W        W34345   1.024  14.839  12.323 -0.0582  0.0589 -0.0102
16142W        W34346  13.136  11.822   1.642 -0.2325  0.1369  0.3905
16143W        W34347  11.879  13.462   3.780 -0.2938  0.1971  0.4337
16144W        W34348  16.982  15.392  13.682 -0.1054  0.0923  0.3348
16145W        W34349  10.254   3.361  14.210  0.1781 -0.0257  0.0989
16146W        W34350  14.571   5.498  13.134 -0.1731  0.2569  0.0765
16147W        W34351  14.542   0.541   1.727  0.2164  0.1028 -0.1824
16148W        W34352   0.616  14.300   2.249  0.0890 -0.0194 -0.0100
16149W        W34353  11.528  12.868  12.755 -0.2150 -0.0697  0.2889
16150W        W34354  13.784  10.642  12.576 -0.4395  0.0862  0.1559
16151W        W34355   0.245  14.615   3.016  0.0634  0.0038  0.0539
16152W        W34356  11.302   4.851  14.786  0.2473  0.0922 -0.3728
16153W        W34357  15.644   8.520  14.405  0.0924  0.0636  0.1200
16154W        W34358   1.912   4.623  15.393  0.3421  0.0986 -0.4135
16155W        W34359   8.717  10.991   3.040 -0.1946 -0.1450  0.0649
16156W        W34360   8.210  14.479   3.270 -0.0280  0.1956 -0.1973
16157W        W34361   2.236   0.086  15.767  0.0713  0.0123 -0.0533
16158W        W34362   6.075  10.346   4.085 -0.0503 -0.0841 -0.1147
16159W        W34363  16.350   0.884   1.037  0.0009  0.1792  0.1538
16160W        W34364  16.703   5.535   5.033  0.0975  0.0869  0.1929
16161W        W34365  16.566   3.488  15.204 -0.1933  0.0478 -0.0219
16162W        W34366   6.715  13.571  13.973  0.2771  0.1273 -0.0640
16163W        W34367   4.279  13.701   1.919  0.0614  0.2835 -0.0177
16164W        W34368   0.082   3.945   0.378 -0.1909 -0.0977 -0.1608
16165W        W34369  11.777   2.610   0.993 -0.1835  0.0996  0.1694
16166W        W34370   3.851   6.863   4.850  0.1702  0.3276 -0.1869
16167W        W34371  15.181  17.136   1.126  0.0851  0.0242  0.0051
16168W        W34372   6.967   7.188   5.221 -0.2024  0.0865  0.2132
16169W        W34373   4.551  13.480   2.434  0.0781  0.2283  0.1200
16170W        W34374   7.133  10.445  15.489 -0.1894  0.1579  0.1203
16171W        W34375   1.090  12.230  13.803 -0.1713  0.0085  0.1415
16172W        W34376   0.351   1.261  16.709 -0.0425  0.0218  0.2265
16173W        W34377   9.318  12.516  15.500 -0.1268  0.1586  0.1471
16174W        W34378  11.371  11.967  14.071  0.0521 -0.0313 -0.2639
16175W        W34379  13.147   9.952  16.872 -0.3221 -0.0443  0.2138
16176W        W34380   1.139   4.928   5.001 -0.0214 -0.1423 -0.2255
16177W        W34381  14.446   5.449  15.792  0.2942 -0.1239  0.2279
16178W        W34382  16.538   0.126  13.757  0.3548  0.2706 -0.2752
16179W        W34383  17.133  14.238   2.500 -0.0754 -0.0487  0.0815
16180W        W34384   9.249  14.320  12.714  0.1619  0.2745  0.1912
16181W        W34385   0.158   2.102   5.079  0.0938 -0.1582  0.0068
16182W        W34386   7.772  12.911   4.830 -0.1395 -0.1837  0.1255
16183W        W34387  13.042  10.448  14.990  0.1307  0.0773  0.1089
16184W        W34388  15.455  12.271  16.860  0.0484  0.0631 -0.1365
16185W        W34389   9.789   6.257  14.435 -0.1005  0.0272  0.0039
16186W        W34390   8.903   7.008   4.868 -0.2092 -0.1201  0.2284
16187W        W34391  15.974  14.158  15.839 -0.2446 -0.0943 -0.0161
16188W        W34392   0.174   0.254  13.395 -0.1308 -0.1260 -0.2519
16189W        W34393   4.044   3.188   5.265  0.4795  0.0669  0.2912
16190W        W34394   3.770   1.307  13.062  0.2387 -0.0257  0.0640
16191W        W34395  13.561   8.288  12.393  0.5228 -0.0084 -0.0148
16192W        W34396   4.947   0.744   4.697 -0.1204  0.1548  0.2090
16193W        W34397  13.389  11.745   2.128  0.1398 -0.0376  0.0884
16194W        W34398  15.320  11.938  14.131 -0.4726 -0.0405 -0.0857
16195W        W34399   2.483  14.727   1.935 -0.0364 -0.2482 -0.0397
16196W        W34400   2.975   2.731  17.329 -0.0842 -0.1919  0.4251
16197W        W34401   9.056  16.670   5.807 -0.1221  0.1797  0.0040
16198W        W34402   0.472  13.804  14.757  0.2367 -0.0010 -0.0092
16199W        W34403  11.209  14.549   5.818  0.4341 -0.0655 -0.1057
16200W        W34404   6.254   0.434  15.522 -0.1087 -0.0014  0.1021
16201W        W34405  16.131   5.423  13.819 -0.1425  0.2638  0.1496
16202W        W34406   5.369  15.164   4.612  0.0408 -0.1520 -0.1078
16203W        W34407  16.148   3.420  12.295 -0.2204 -0.1269  0.1337
16204W        W34408   5.032   0.529   3.587  0.1840 -0.0126 -0.2856
16205W        W34409   4.639  10.049   2.330 -0.1916  0.0620  0.1807
16206W        W34410   3.869   5.454   3.464  0.0506 -0.0214  0.2869
16207W        W34411   9.078   7.699  14.581  0.0919  0.0179  0.1070
16208W        W34412   0.231  15.318  17.027  0.2896  0.2149  0.2937
16209W        W34413   7.473  13.019  14.299  0.1576 -0.0308 -0.3597
16210W        W34414   3.721   8.194  15.120 -0.1385 -0.1962  0.0874
16211W        W34415   0.912   2.712  13.373  0.0470  0.2816 -0.0370
16212W        W34416  13.566  16.617  12.616 -0.0648 -0.0497  0.1089
16213W        W34417   8.785   6.259  14.620  0.0277  0.1166 -0.3090
16214W        W34418  14.000  16.194  17.039 -0.1319  0.1263 -0.1561
16215W        W34419  11.876  15.228   3.314 -0.3033  0.0526 -0.0896
16216W        W34420   8.652   6.358  15.660 -0.0841 -0.1782  0.2837
16217W        W34421   1.798  13.116  12.388  0.3688  0.2508  0.0348
16218W        W34422   4.524   0.671   4.415 -0.0042 -0.2854 -0.2956
16219W        W34423  11.098   7.730   0.145 -0.2179  0.1545  0.2143
16220W        W34424   1.583   3.727  16.723 -0.2280  0.0539  0.0709
16221W        W34425   3.379  10.555   1.131 -0.1053 -0.2983  0.0643
16222W        W34426   0.840   7.284  15.304  0.2202  0.0180 -0.1490
16223W        W34427  16.367  12.959   4.830  0.1680 -0.2295 -0.0336
16224W        W34428  12.917  16.476  15.446 -0.0583  0.0088  0.0070
16225W        W34429   6.749   7.585   3.555  0.3043  0.0347 -0.2303
16226W        W34430   2.401  10.466   5.090 -0.0970 -0.2294 -0.3837
16227W        W34431   8.568   1.407   2.910  0.2013 -0.1202  0.3103
16228W        W34432  11.244   1.916   2.244 -0.3915 -0.0324  0.0716
16229W        W34433   9.519  11.687  15.568 -0.2436 -0.3294 -0.2179
16230W        W34434  13.557  11.210   5.374  0.0612  0.1959 -0.0801
16231W        W34435  14.645   9.738  11.820  0.2881 -0.0079 -0.2033
16232W        W34436  14.241   6.421  12.716  0.1901  0.2169 -0.0577
16233W        W34437   2.351   7.816   4.474 -0.0318  0.2431 -0.1409
16234W        W34438   7.603   1.982  16.696 -0.2679 -0.2533 -0.0122
16235W        W34439   8.851  14.262  13.063 -0.2575  0.1894 -0.1682
16236W        W34440   1.247   5.195   1.617 -0.0542  0.1858  0.1531
16237W        W34441  16.091   1.992  15.228 -0.1904 -0.1311  0.2208
16238W        W34442  15.922   6.464   3.838 -0.2739  0.3853 -0.0816
16239W        W34443  17.302   4.747   5.773  0.0571 -0.2544  0.2248
16240W        W34444   7.392   9.758  14.485  0.1171  0.0052 -0.4302
16241W        W34445  15.115   5.154  14.718 -0.2720 -0.1292  0.1399
16242W        W34446   0.710   3.795   3.834  0.0621 -0.1231  0.0534
16243W        W34447  13.913  11.376   1.213 -0.0572 -0.1376  0.2071
16244W        W34448  15.768  14.217   4.141  0.3033  0.1016  0.0020
16245W        W34449  12.882   8.103  15.974  0.0212 -0.1324  0.1080
16246W        W34450  13.009   7.726   1.252  0.0082  0.0501  0.1790
16247W        W34451   5.964   9.554   0.366  0.4483 -0.0654  0.0055
16248W        W34452  15.743   3.060  13.485  0.0201 -0.0316 -0.0490
16249W        W34453  14.291   3.524   4.891  0.2073 -0.0867  0.3042
16250W        W34454   6.871   2.669   4.405  0.1486  0.2883  0.1083
16251W        W34455   8.836   1.221  14.128  0.2250 -0.1218  0.1769
16252W        W34456  17.088   9.382  16.790 -0.0486 -0.1362 -0.0019
16253W        W34457  10.974   7.525  15.929  0.0334 -0.1608  0.0987
16254W        W34458  15.162   0.463  12.677 -0.0227 -0.0824 -0.1837
16255W        W34459  13.543   2.028  17.344  0.1820  0.1654 -0.0863
16256W        W34460   8.257  11.246  14.263  0.0655  0.1430  0.0590
16257W        W34461   0.594   6.871  15.263 -0.0144 -0.1632 -0.0451
16258W        W34462   1.121   2.511  15.477  0.1453  0.0226  0.1127
16259W        W34463  14.466  13.193   4.718  0.2296  0.0077 -0.0671
16260W        W34464   9.945  11.815   4.963 -0.1336  0.2282  0.2992
16261W        W34465  17.079  11.620   2.926 -0.2016 -0.1486 -0.1570
16262W        W34466   8.292   1.726   0.081 -0.1808  0.0627 -0.1812
16263W        W34467   2.453   7.511  16.760  0.0114 -0.0750  0.0463
16264W        W34468   1.811   5.895  17.420 -0.1396 -0.0102 -0.2328
16265W        W34469   0.340   0.682  14.925 -0.0966 -0.0579 -0.2359
16266W        W34470  16.874  15.036   1.916  0.0860  0.0146 -0.1210
16267W        W34471  16.102   4.024  13.982  0.0437  0.2756 -0.0420
16268W        W34472   2.109   5.143  12.425 -0.4625  0.0827  0.0039
16269W        W34473   0.004   5.931   1.234 -0.2658  0.1997 -0.1749
16270W        W34474   7.397  14.846   0.407 -0.1666  0.1919 -0.1216
16271W        W34475   2.152   7.740   1.218  0.0102  0.1004  0.0154
16272W        W34476   0.261  15.483   2.014 -0.1001  0.2933  0.0439
16273W        W34477   5.896  12.190  14.145  0.2420 -0.1317  0.0360
16274W        W34478  13.285   2.760  13.721  0.1149  0.1658  0.0685
16275W        W34479  14.541  15.380   0.880  0.0831  0.1332  0.0118
16276W        W34480  12.155   1.248   3.737  0.0431  0.0274  0.0368
16277W        W34481  16.966   9.547  14.270  0.0989 -0.3307  0.1896
16278W        W34482  11.351  11.362   1.584  0.1217  0.1212  0.1508
16279W        W34483  12.699   4.443  17.189 -0.1952 -0.1358  0.0682
16280W        W34484   5.982  10.649  13.327  0.0328  0.1264 -0.0859
16281W        W34485  13.778  15.448  15.354 -0.0798  0.0842  0.0821
16282W        W34486  13.656  17.062   5.151  0.1687  0.3159  0.0489
16283W        W34487   8.775   0.125  13.368 -0.1669  0.1110  0.0279
16284W        W34488  12.922   0.931  16.254  0.1596 -0.0969  0.2619
16285W        W34489   8.900   0.692  13.975 -0.1622 -0.4324  0.0280
16286W        W34490  13.595  15.430  14.927  0.4318 -0.3344  0.2387
16287W        W34491   7.278   7.264   3.550 -0.0756  0.1888 -0.0355
16288W        W34492   9.449   5.589  15.638  0.0439  0.0990 -0.1067
16289W        W34493  12.181   5.513  16.058 -0.0630 -0.1249 -0.3222
16290W        W34494  11.220  14.896  14.962  0.0019 -0.1815 -0.1371
16291W        W34495   1.754   4.376   3.177 -0.4196  0.2333  0.0582
16292W        W34496   1.861   1.973  13.011 -0.0194 -0.0034  0.0344
16293W        W34497   4.626  11.675   3.511 -0.0749  0.0997 -0.1633
16294W        W34498  13.349  10.819  16.550 -0.1684  0.0504  0.1507
16295W        W34499   2.399   8.476   2.801 -0.3145 -0.1022  0.0400
16296W        W34500   9.363   0.240   0.324 -0.1668  0.1403  0.1752
16297W        W34501  11.209   9.772  13.834  0.0532 -0.1127  0.2711
16298W        W34502  13.163   4.906  14.499  0.0354 -0.0956 -0.4664
16299W        W34503  15.656   9.147  13.987  0.0695  0.1401  0.0392
16300W        W34504  11.055   2.746   2.044  0.2131  0.0955 -0.0799
16301W        W34505   7.657   4.554   0.304  0.1102  0.1434 -0.0638
16302W        W34506   6.880  12.658   4.717 -0.3471 -0.1992  0.0676
16303W        W34507   8.035  13.483   0.756 -0.0919 -0.0408 -0.2983
16304W        W34508   6.574   3.116   4.899  0.1555 -0.3053  0.1649
16305W        W34509  10.496   7.768   4.688  0.3175  0.0896 -0.0954
16306W        W34510  15.146   0.374   1.145  0.2245 -0.3102  0.1084
16307W        W34511   0.153  14.127   2.112 -0.3659 -0.1095 -0.1661
16308W        W34512   6.123   4.422   3.264 -0.1986 -0.0517 -0.1441
16309W        W34513   6.411   6.767   0.948  0.1527  0.0088 -0.0896
16310W        W34514   1.139  17.227   2.192 -0.0521 -0.1849  0.2199
16311W        W34515  15.545   4.230  15.911 -0.1049 -0.0628  0.2153
16312W        W34516  14.588   4.582  14.170 -0.3790 -0.0471 -0.0843
16313W        W34517  16.242   2.180   0.663  0.0098  0.0654 -0.2646
16314W        W34518   9.887   9.672  16.998 -0.1364  0.0009  0.2816
16315W        W34519   2.515   2.400  16.827 -0.0875 -0.1475 -0.2195
16316W        W34520  11.350  13.659  15.364  0.1327  0.0185  0.0458
16317W        W34521  11.822   7.704  14.484 -0.1154 -0.0297 -0.1466
16318W        W34522   4.055  10.120  15.067 -0.1817 -0.0196  0.1160
16319W        W34523  12.430  11.633  13.012 -0.3300 -0.0629 -0.1699
16320W        W34524  12.762   2.069  15.516 -0.0781  0.0177 -0.1468
16321W        W34525   8.121   3.954  15.130 -0.0571  0.0163 -0.1441
16322W        W34526   2.963   6.773   3.448 -0.0055 -0.2151 -0.0570
16323W        W34527  10.931  10.753   1.862  0.3170  0.0329  0.2540
16324W        W34528   6.765   2.768   0.249  0.1661  0.2037 -0.2518
16325W        W34529  10.353  16.710   4.114  0.3429 -0.2920 -0.0165
16326W        W34530   0.821  11.267   5.126  0.4192  0.2258  0.0811
16327W        W34531   4.073   5.811  14.571  0.2594  0.2426 -0.0587
16328W        W34532   0.018   5.392  16.333 -0.1896 -0.1226  0.1211
16329W        W34533   8.504  17.169  16.591 -0.1860 -0.0081 -0.3016
16330W        W34534   9.687   0.845   5.396 -0.0281 -0.1221  0.1493
16331W        W34535   2.702  15.301  15.288 -0.1995 -0.0347  0.0491
16332W        W34536   0.948   8.339   5.424  0.0764  0.0111  0.0403
16333W        W34537  12.037   3.645  14.062 -0.0995  0.2098  0.2412
16334W        W34538  16.525   1.746  12.483  0.3683  0.2730 -0.0914
16335W        W34539  12.687   1.424  17.493  0.0156  0.1924 -0.2531
16336W        W34540  16.906  12.231   3.287  0.2338  0.0571 -0.2330
16337W        W34541  10.866   0.667  15.431  0.1959 -0.0672 -0.1654
16338W        W34542   7.242   7.657   1.679  0.3160  0.1393 -0.1579
16339W        W34543  16.199   4.112   0.084  0.0786  0.0567 -0.0890
16340W        W34544   3.516   5.039  15.675  0.1613 -0.0263  0.0806
16341W        W34545  16.995   1.226   5.074 -0.1117 -0.0729 -0.2155
16342W        W34546   4.966  15.514  16.760  0.0237  0.3167 -0.0208
16343W        W34547   7.235   5.135   2.513 -0.2154  0.0727 -0.0633
16344W        W34548  10.706  10.281  13.061  0.1415 -0.1068 -0.0803
16345W        W34549   4.570   1.351   1.221  0.0973 -0.5162  0.0332
16346W        W34550   0.799   8.126  13.205 -0.1652  0.1589  0.1034
16347W        W34551  17.047   5.241   5.270  0.1960 -0.2769 -0.1924
16348W        W34552  14.683  12.209  16.072  0.2035  0.0967 -0.2412
16349W        W34553  11.028  17.214   3.159  0.1956  0.0715 -0.1563
16350W        W34554   1.231   1.597  13.510 -0.0083 -0.0067 -0.0327
16351W        W34555   0.357   3.040   0.198  0.0093  0.3410  0.1681
16352W        W34556  10.617  13.832  12.158  0.1089  0.1009  0.0585
16353W        W34557  13.377   3.391  13.212 -0.0101  0.1368  0.3366
16354W        W34558   0.137   5.678  12.435  0.1771 -0.1580  0.0110
16355W        W34559   9.504   0.519  14.709  0.0501 -0.2226 -0.0929
16356W        W34560  14.782   1.664   4.020 -0.0412  0.0621 -0.1138
16357W        W34561  16.001   2.225  17.133 -0.1941 -0.0330 -0.1450
16358W        W34562  12.867  16.940  13.933  0.0227 -0.2061  0.2171
16359W        W34563   1.443   1.867   3.935  0.0445 -0.0721  0.0658
16360W        W34564  15.082   9.773  17.365  0.1554  0.2482 -0.1329
16361W        W34565  10.102   8.846   0.894 -0.1630  0.0938 -0.0026
16362W        W34566   9.915   6.145   4.541  0.3099 -0.3966 -0.0869
16363W        W34567   2.735   5.693   5.152  0.0323  0.2549 -0.0786
16364W        W34568  14.336   2.359   2.922 -0.1038 -0.1035 -0.4094
16365W        W34569   2.984   6.279   1.624  0.2335  0.0801  0.1221
16366W        W34570   4.757  11.255  11.956 -0.3302  0.0659  0.0750
16367W        W34571  14.283  12.314  17.016  0.2876  0.0945 -0.2027
16368W        W34572   8.657  10.970  13.873  0.0331  0.2234 -0.1111
16369W        W34573   6.500  11.838   3.985 -0.0941  0.0069 -0.0030
16370W        W34574   1.059   5.826   2.203 -0.0101  0.2449  0.2062
16371W        W34575  11.655  11.835   2.405 -0.2536  0.3027 -0.1118
16372W        W34576   1.563  11.623  15.764  0.1426  0.5353 -0.0012
16373W        W34577   2.399  10.860  17.229 -0.2902  0.0191  0.0654
16374W        W34578   4.885  13.987  17.058 -0.3181  0.0958  0.0894
16375W        W34579   6.523   0.127  12.850  0.0505 -0.2176 -0.0944
16376W        W34580  17.167  14.474  12.888 -0.0976 -0.2810  0.1021
16377W        W34581  12.462   0.288  15.874  0.3030 -0.3362 -0.0727
16378W        W34582  15.319   9.269   3.008  0.1569  0.1116  0.1510
16379W        W34583  10.713   0.784   0.915 -0.2031 -0.0055 -0.2210
16380W        W34584  12.567   1.094  13.862  0.1970 -0.0168  0.0102
16381W        W34585   4.884  13.101   0.122 -0.3224 -0.0452 -0.0783
16382W        W34586   8.213   7.560   3.892 -0.0114 -0.2666 -0.0989
16383W        W34587  10.776   7.054  16.268  0.1612 -0.3529 -0.0172
16384W        W34588   2.087   9.753  13.719 -0.0792 -0.6210 -0.0750
16385W        W34589  16.576   8.392  12.325  0.3102  0.1828  0.0914
16386W        W34590  10.715   7.904  14.909  0.0975  0.0953  0.0151
16387W        W34591  14.775  16.354   4.978 -0.0400 -0.0087 -0.1584
16388W        W34592   0.963  17.007  13.454 -0.0737 -0.0589 -0.5276
16389W        W34593   7.730   8.101   3.977  0.1410 -0.1342 -0.1621
16390W        W34594  14.996   1.095   2.922  0.0561  0.1302 -0.1208
16391W        W34595  13.983   6.573   0.715 -0.0434 -0.2269  0.2604
16392W        W34596   1.295   2.300  12.185  0.1925  0.1971  0.0855
16393W        W34597  13.910  16.279  15.928  0.3924 -0.1075  0.2753
16394W        W34598  14.409   8.269   1.082 -0.0353 -0.0787  0.0620
16395W        W34599   1.308   8.231   4.956  0.1787 -0.0833  0.0466
16396W        W34600   6.121  15.049  13.582  0.1888 -0.0047  0.1727
16397W        W34601   2.474   4.864   3.911  0.0229  0.1931  0.0281
16398W        W34602  14.688  10.569   1.266  0.1245 -0.1107  0.1825
16399W        W34603   7.409   0.445  14.632 -0.0924 -0.0069 -0.0856
16400W        W34604   5.313  11.311   2.727  0.2454 -0.1998  0.1178
16401W        W34605   4.865  15.831  17.145 -0.0414  0.0314 -0.1435
16402W        W34606  16.717   1.899  14.835 -0.0079  0.0632 -0.2402
16403W        W34607   5.193   6.673  16.109 -0.0319 -0.1309  0.2035
16404W        W34608   3.804   2.143   2.289 -0.1580  0.1869 -0.3744
16405W        W34609  12.450  13.953   0.746  0.1031  0.1860  0.1912
16406W        W34610   4.798   7.980   3.553 -0.1161 -0.2514  0.1786
16407W        W34611  10.383  15.857  14.113  0.1286  0.0751  0.0632
16408W        W34612  12.717   1.846   4.053  0.1803  0.0549  0.1213
16409W        W34613   5.680   4.669   4.794  0.0771 -0.0064  0.1239
16410W        W34614  16.535  10.480   2.755 -0.2898 -0.1294  0.4916
16411W        W34615   8.343   9.480   2.209 -0.2492  0.1219 -0.1771
16412W        W34616   4.425  11.824  16.746 -0.0013 -0.0760  0.2516
16413W        W34617   9.894  10.242  12.793  0.3293 -0.2928 -0.1676
16414W        W34618  17.144   3.356   4.011  0.1704 -0.1199 -0.2456
16415W        W34619  17.107  12.328   4.984 -0.0430  0.0110  0.4035
16416W        W34620   4.597  16.903  16.391  0.0065  0.1434 -0.1045
16417W        W34621   9.638   3.191  13.405 -0.0697 -0.1873 -0.1119
16418W        W34622   5.263   4.514   0.240 -0.1267 -0.0386 -0.0852
16419W        W34623  11.369  13.679  15.859  0.0110  0.0447  0.0025
16420W        W34624   4.545  10.597   4.345 -0.2211 -0.0795  0.1200
16421W        W34625   5.401  14.286  12.251 -0.1284 -0.0992  0.2000
16422W        W34626   0.231  16.127   0.785 -0.2200 -0.1935 -0.1033
16423W        W34627  14.150  13.776   3.348  0.1939 -0.0980  0.0448
16424W        W34628   5.393   4.759   1.170  0.1328  0.0888  0.0494
16425W        W34629   4.862   1.169   1.990 -0.0053 -0.0915 -0.1813
16426W        W34630  13.289   6.090   1.176 -0.4072 -0.2958  0.1738
16427W        W34631   5.635   4.009  14.116  0.1785 -0.1377  0.1811
16428W        W34632  14.796   4.899  15.107 -0.0704 -0.2395 -0.0358
16429W        W34633  15.642   4.791  15.859 -0.0733  0.1721 -0.3661
16430W        W34634   0.283  10.133   0.234  0.1347 -0.1062  0.1297
16431W        W34635  13.785   3.579  17.066  0.2992 -0.2578 -0.3797
16432W        W34636  13.627   2.262  16.852 -0.0512  0.1587 -0.1199
16433W        W34637   8.136   6.368   5.263  0.2985  0.0851 -0.2049
16434W        W34638   6.483   6.022   4.488 -0.4451 -0.1646 -0.0319
16435W        W34639   8.409  12.895   0.777  0.0861  0.0797 -0.0330
16436W        W34640  13.384  10.050  14.864 -0.2887 -0.1098  0.1517
16437W        W34641   8.491   1.464   0.461 -0.1068 -0.1605  0.3046
16438W        W34642   2.980   2.313   1.457 -0.0484  0.1455  0.0223
16439W        W34643  14.423  16.724  16.942  0.0687  0.1347 -0.0051
16440W        W34644  15.414  16.328  11.750 -0.1461  0.0276 -0.1417
16441W        W34645  12.877   0.614  14.351  0.1029 -0.0709 -0.1070
16442W        W34646  11.607  14.690  15.286  0.2874 -0.2066  0.1093
16443W        W34647   5.038   7.922  14.738  0.1041 -0.0825 -0.3112
16444W        W34648  13.619  10.202   4.088 -0.0711  0.1960  0.2319
16445W        W34649   9.787   9.142  16.147 -0.1564 -0.1247  0.1259
16446W        W34650   0.749   5.286   3.873  0.1450 -0.0478  0.2225
16447W        W34651  12.227  12.407   0.257 -0.2758  0.3113 -0.2240
16448W        W34652   2.239   1.568  14.125  0.0451  0.0581  0.0073
16449W        W34653  16.306  14.950  14.906 -0.1829 -0.1162 -0.2170
16450W        W34654  11.295   8.057   1.863  0.1281  0.3334 -0.1089
16451W        W34655   3.183  13.887  15.446  0.1724 -0.1188 -0.2214
16452W        W34656  14.672  15.659  13.024 -0.2361  0.1088 -0.1433
16453W        W34657  13.253   8.388  13.438  0.0335 -0.4088  0.1079
16454W        W34658  10.590  11.907  15.799  0.0115  0.2956 -0.1283
16455W        W34659   4.553  10.374   1.227  0.2626 -0.0575  0.0356
16456W        W34660  15.243   1.289   4.608  0.0449  0.2539  0.2337
16457W        W34661   6.238  11.806  13.933  0.1078  0.2042  0.0621
16458W        W34662   7.481  15.413   3.295  0.3084 -0.0618  0.1062
16459W        W34663   2.045  13.600   0.982 -0.0257  0.0407  0.1043
16460W        W34664   1.738   5.649   2.918  0.1144  0.2690 -0.0267
16461W        W34665  13.628   3.826  16.635 -0.0810 -0.3810 -0.1681
16462W        W34666  12.284   4.081   5.112 -0.3100  0.0098 -0.1327
16463W        W34667   7.223   5.744  15.690 -0.0942 -0.0362  0.1957
16464W        W34668   0.493   4.837   0.102  0.3157 -0.1475 -0.0712
16465W        W34669   1.265  12.833  14.787  0.3021  0.1816 -0.1345
16466W        W34670   1.662   3.519  14.488  0.0713 -0.2619  0.1477
16467W        W34671   9.081   2.651   2.204 -0.0764 -0.5358  0.0229
16468W        W34672  10.381   7.110  14.859  0.2493  0.1274 -0.1709
16469W        W34673  12.958   1.556  15.501 -0.0528  0.0631  0.0654
16470W        W34674  14.076   2.547   1.997 -0.3621 -0.2893  0.1512
16471W        W34675   5.439   3.809   4.465 -0.2194  0.0281  0.1912
16472W        W34676   8.610   1.911   2.702 -0.1987  0.0389 -0.3359
16473W        W34677  14.660   9.006  16.533  0.0203 -0.1483  0.2550
16474W        W34678   3.119   6.651   4.361 -0.1845  0.3291 -0.0892
16475W        W34679  16.250   9.720   1.756 -0.0895 -0.1622  0.0075
16476W        W34680   0.045  12.102  16.606 -0.0599 -0.0057  0.4771
16477W        W34681   1.442   5.652   1.381 -0.1704  0.1453 -0.1149
16478W        W34682   8.568   2.763  12.443 -0.4815  0.1915  0.1676
16479W        W34683  14.428   9.169  15.777 -0.0016  0.0301  0.2789
16480W        W34684   2.400   7.841  16.278 -0.2317 -0.0347  0.1665
16481W        W34685  15.159   9.344   1.138  0.2554  0.2709  0.0974
16482W        W34686  12.320  13.272  14.390 -0.1245  0.0838  0.3086
16483W        W34687  13.106   7.323  15.760 -0.1914  0.0390 -0.1020
16484W        W34688   5.656   0.797  17.104 -0.0880  0.0768  0.0371
16485W        W34689   2.296  16.038   4.721 -0.0009 -0.0879 -0.0796
16486W        W34690   7.712   8.806   0.996  0.2172  0.0273  0.2357
16487W        W34691   4.946   2.699   2.804 -0.1434 -0.0984 -0.0672
16488W        W34692  11.052   7.707  13.110 -0.1100  0.0741  0.0755
16489W        W34693   1.442   2.947  15.699 -0.2360  0.0918 -0.0132
16490W        W34694   2.230   8.403  13.154  0.2916  0.0050 -0.3963
16491W        W34695   2.369  15.493   0.663 -0.3130  0.0253 -0.4599
16492W        W34696   8.201  12.672  16.462 -0.1874 -0.0245 -0.1034
16493W        W34697   7.412   6.277   4.688 -0.2768 -0.0023 -0.0932
16494W        W34698   9.358   1.051   0.455  0.2660 -0.0489  0.1926
16495W        W34699  12.942   9.488   1.889 -0.0557 -0.2100 -0.0760
16496W        W34700  10.254   9.695   1.961  0.2786 -0.2160  0.1766
16497W        W34701  14.793   2.565  16.533  0.1463  0.0593  0.2299
16498W        W34702  16.004   8.796  14.172  0.0687  0.1424 -0.2877
16499W        W34703   2.307  13.651  15.364  0.4191  0.1472 -0.0648
16500W        W34704  13.369   8.606   1.920  0.1122  0.1711 -0.1377
16501W        W34705   2.225   2.106  13.503 -0.1470  0.1451 -0.1195
16502W        W34706  17.267   5.173  15.853 -0.3196  0.1466 -0.0621
16503W        W34707   6.604   2.572   0.725  0.2315 -0.0630 -0.0530
16504W        W34708   2.414   3.856   4.165 -0.2693 -0.1184  0.0351
16505W        W34709   7.982  10.524   3.025  0.2016  0.2797  0.1569
16506W        W34710   7.898  10.287  12.005 -0.1859  0.0600 -0.2586
16507W        W34711   8.141   0.772   1.646  0.2472 -0.2577 -0.1110
16508W        W34712  16.873   9.599   5.038  0.0159  0.3297  0.1462
16509W        W34713   5.308  10.571  16.984 -0.1349  0.2153  0.0606
16510W        W34714  15.571   1.330  14.807  0.3478  0.2821 -0.0278
16511W        W34715   8.494   5.389  15.676  0.0693 -0.2196 -0.1481
16512W        W34716   7.212   9.000   1.015  0.0244 -0.0994 -0.0852
16513W        W34717  13.427  15.468  12.515 -0.0852 -0.1555 -0.0749
16514W        W34718   7.377  16.274   2.161 -0.0017 -0.0144 -0.1310
16515W        W34719   8.227   4.983   0.706  0.0819  0.0910  0.1920
16516W        W34720  14.835  13.906  17.088 -0.1835 -0.2930  0.0965
16517W        W34721   8.096   9.117   3.425 -0.3334  0.1039 -0.1693
16518W        W34722   6.328   5.726  15.630 -0.1997  0.2043  0.1910
16519W        W34723   5.311   6.744  12.353 -0.0145  0.1090 -0.0806
16520W        W34724  10.778  12.124   5.589  0.3877 -0.2142 -0.4746
16521W        W34725  14.492   7.401   1.251 -0.1543 -0.0012 -0.0292
16522W        W34726  12.369  15.037  14.282 -0.1284  0.0852 -0.1117
16523W        W34727  10.554   2.346   1.756  0.0148 -0.1700 -0.0695
16524W        W34728   7.180  14.464   4.332 -0.1238 -0.1261  0.1059
16525W        W34729   8.814   5.770   4.924  0.0406  0.0931  0.1353
16526W        W34730  10.745   1.949  14.048 -0.2074  0.0742 -0.2396
16527W        W34731   4.229  13.867  15.297 -0.4326 -0.2037 -0.0014
16528W        W34732   7.555   2.632  15.262 -0.1880  0.2150 -0.0561
16529W        W34733   5.506  14.258   0.738  0.0324  0.0581  0.0641
16530W        W34734   1.523  12.966   4.836 -0.1077 -0.2062 -0.1881
16531W        W34735   9.036  11.296   2.733  0.2315  0.3097  0.5318
16532W        W34736   3.056   2.041  14.044  0.1881  0.2447  0.1771
16533W        W34737  15.259   6.547  13.904 -0.1106  0.1776  0.0479
16534W        W34738   4.568   4.764  16.355 -0.0751 -0.0182 -0.0721
16535W        W34739  13.094   4.381   0.056  0.0177 -0.1954  0.2561
16536W        W34740   8.817   3.008  13.418 -0.1752 -0.1950  0.1097
16537W        W34741  10.366  12.909  13.300  0.1557 -0.0458  0.1087
16538W        W34742  15.948  14.242   1.269 -0.0228 -0.2376 -0.1441
16539W        W34743  12.620   9.657   3.139  0.2539  0.0432 -0.0714
16540W        W34744   3.178   5.228   1.895  0.2684  0.0393  0.0342
16541W        W34745  12.243  16.834   5.470 -0.0005  0.4211  0.1814
16542W        W34746  16.721   1.439   3.339  0.0910  0.3659 -0.1231
16543W        W34747  15.279  11.436  14.330 -0.0746 -0.1226 -0.1695
16544W        W34748   5.172   0.761   2.842 -0.0343  0.1258 -0.0555
16545W        W34749  12.867   3.630  13.366 -0.2849  0.0360  0.1720
16546W        W34750  12.778   2.748   4.465 -0.2422 -0.0667 -0.3118
16547W        W34751  16.209  17.174  14.197 -0.2002 -0.1426  0.0191
16548W        W34752   9.801   0.440  13.653 -0.0379 -0.0030  0.1153
16549W        W34753  10.795   8.894  14.023 -0.2784 -0.0408 -0.0016
16550W        W34754   1.355  15.296   4.089 -0.1775 -0.0123 -0.0315
16551W        W34755  12.796   5.943   1.894  0.0736 -0.2089 -0.0847
16552W        W34756  16.277   4.586   4.909  0.2774  0.3571  0.0149
16553W        W34757   9.137  14.185   1.669 -0.2139  0.1693 -0.0115
16554W        W34758  15.098   3.371  16.474 -0.0110 -0.1024  0.2166
16555W        W34759  16.707   8.490   1.238  0.1053  0.1792  0.1651
16556W        W34760   8.677  17.298   1.751 -0.4698 -0.0506  0.0056
16557W        W34761  11.417   8.904   4.033  0.5562  0.0763 -0.1587
16558W        W34762  15.568   5.856   0.932  0.1983  0.0429 -0.2193
16559W        W34763  10.427  15.405   2.316 -0.3165 -0.1118  0.0279
16560W        W34764   7.931   7.486  12.534  0.1780 -0.1955 -0.2006
16561W        W34765   9.471  15.494  12.249 -0.1160 -0.2927 -0.1066
16562W        W34766   6.226   8.420   4.419 -0.1946  0.1468 -0.1471
16563W        W34767   6.544   8.837  12.455 -0.2070  0.1262 -0.1589
16564W        W34768  16.224  11.106  16.724 -0.0950  0.1599  0.0826
16565W        W34769  10.016   4.381   0.692 -0.0150  0.0138 -0.2670
16566W        W34770  12.993   5.037   0.329 -0.4533 -0.0335 -0.0136
16567W        W34771   3.536   8.689  13.351  0.0606  0.0396 -0.0651
16568W        W34772   9.385  10.494  14.173 -0.2264 -0.2747  0.0362
16569W        W34773   1.998  12.934   0.321  0.1513  0.2268  0.2701
16570W        W34774  13.576   8.032   4.358  0.0827 -0.2241  0.1751
16571W        W34775   7.406   9.994   4.268  0.0868  0.0051 -0.0510
16572W        W34776   6.901  10.165  14.490  0.2033  0.0519 -0.1014
16573W        W34777   2.233  12.795   1.391 -0.0356 -0.4935 -0.0324
16574W        W34778  16.634  15.319   3.929  0.0138 -0.1402  0.0163
16575W        W34779   0.061  13.627   1.851 -0.1591  0.1265  0.2410
16576W        W34780   2.081   0.676  16.980  0.2737  0.0984  0.1568
16577W        W34781   3.746   8.674  15.026 -0.0684 -0.4123  0.3523
16578W        W34782   7.819   8.437  12.172  0.0920 -0.0246  0.0323
16579W        W34783   8.517   0.174  17.397  0.0295 -0.1369 -0.1301
16580W        W34784   5.696   6.399  12.232 -0.0544 -0.0600  0.0324
16581W        W34785   8.754  14.635   2.263 -0.1472  0.1209  0.3769
16582W        W34786  15.465  14.005   2.992  0.2060  0.1174 -0.1407
16583W        W34787   1.388  13.450  15.067  0.2387  0.0389  0.3652
16584W        W34788   7.773   9.955  14.819  0.0434 -0.1717 -0.0840
16585W        W34789  15.165   9.007  13.864 -0.1617 -0.0201  0.0962
16586W        W34790   7.772   4.229  13.738  0.2594  0.1171  0.1037
16587W        W34791  16.732  13.151   0.521  0.3263 -0.1152  0.0488
16588W        W34792  16.361  10.057   0.873 -0.1754  0.0651  0.0108
16589W        W34793  14.064   7.799   3.429  0.0870  0.1543 -0.2845
16590W        W34794  14.132   6.379   3.229  0.2525  0.2549 -0.0104
16591W        W34795   8.253   0.827   5.074  0.3080  0.1835  0.1793
16592W        W34796   7.097  14.518  16.158  0.2204  0.2131  0.2493
16593W        W34797   7.327  16.809  15.888  0.0018 -0.4868 -0.0899
16594W        W34798  10.329   4.919   1.130  0.3686 -0.0803 -0.1233
16595W        W34799  10.495  10.560   2.016 -0.1725 -0.2557  0.2296
16596W        W34800   3.598   5.355   0.273  0.3245 -0.1594 -0.1800
16597W        W34801  17.167  10.624   1.410  0.0621  0.1099 -0.0508
16598W        W34802   1.804  13.017   2.760 -0.0568 -0.0603 -0.1638
16599W        W34803  16.830   3.703  14.805 -0.0338 -0.0627  0.3035
16600W        W34804  13.433  10.425  13.158  0.0688 -0.2834 -0.1123
16601W        W34805  12.051   6.341   5.012 -0.0156  0.0185 -0.0548
16602W        W34806   1.365  16.568  16.166 -0.2137 -0.0995  0.0099
16603W        W34807  11.732   1.478  15.492 -0.2832 -0.2226  0.0879
16604W        W34808   6.718  14.210   1.126 -0.2645  0.0262  0.2364
16605W        W34809  13.204   9.825   5.748  0.1401  0.2980  0.2104
16606W        W34810  10.452  12.883   2.985 -0.0205 -0.1439  0.0221
16607W        W34811   9.019  13.906  14.690  0.0183  0.0578  0.2256
16608W        W34812   8.237   2.163  16.575  0.0305 -0.0805  0.0630
16609W        W34813  15.565   6.619   0.246  0.1899 -0.3587  0.1331
16610W        W34814   8.119  14.488   5.180 -0.1703  0.0196 -0.0961
16611W        W34815   6.522  14.266  14.373 -0.0469  0.0222 -0.1884
16612W        W34816   0.527   3.779  13.897  0.0573  0.1784  0.0520
16613W        W34817   1.388   2.567  13.745 -0.1880 -0.0546  0.1729
16614W        W34818   8.270  13.134   1.306  0.3530  0.1681 -0.2958
16615W        W34819   1.312  13.344  17.464 -0.2554  0.0352 -0.0671
16616W        W34820   9.493  11.969   4.903 -0.0197  0.0033 -0.2062
16617W        W34821   7.651  16.017  11.426  0.0578  0.0911 -0.2231
16618W        W34822   5.706  15.092   1.119  0.1835  0.2475  0.0820
16619W        W34823   7.424  15.334   2.021  0.0762 -0.0315 -0.0243
16620W        W34824   4.665   9.268  14.696  0.2871  0.0196  0.2837
16621W        W34825   2.514   0.809   0.559  0.0636  0.1545  0.3456
16622W        W34826  14.247   0.678   3.226  0.2217 -0.1476 -0.0089
16623W        W34827   6.585   0.755  11.044 -0.0092 -0.0013  0.1579
16624W        W34828   1.169   6.762  12.661 -0.0912  0.1695  0.2504
16625W        W34829   6.265   2.173  16.119  0.1688  0.1748 -0.1078
16626W        W34830  16.811   7.214  16.717  0.1242 -0.1690 -0.1771
16627W        W34831   8.921   4.247   2.207  0.1828  0.1937  0.0110
16628W        W34832  14.864  12.394   5.051  0.5103  0.0168 -0.2384
16629W        W34833   5.761  10.017   0.679 -0.1122  0.0020  0.1785
16630W        W34834   2.245   5.073  17.266  0.1781  0.0765  0.2296
16631W        W34835  17.053  11.514   4.283  0.1010 -0.2359 -0.1330
16632W        W34836   0.570   6.598   3.803  0.0073 -0.4317 -0.1888
16633W        W34837  10.777  15.521  14.215  0.4421 -0.0559 -0.1181
16634W        W34838  16.411   4.235   3.121  0.1097 -0.2177 -0.0962
16635W        W34839   7.953   7.278   2.168 -0.1873 -0.1288  0.2343
16636W        W34840  16.077   8.450  16.923 -0.0535  0.0643 -0.2693
16637W        W34841  10.661   8.017   0.695 -0.1196  0.1820  0.1422
16638W        W34842   1.319   1.606   0.609  0.0067  0.5114  0.0080
16639W        W34843   0.931  13.806   4.637  0.1907  0.0231  0.1345
16640W        W34844   9.949  16.379  13.262  0.0469 -0.3173  0.0034
16641W        W34845  17.101   9.404  15.049  0.0376 -0.1799 -0.2504
16642W        W34846   5.485  14.517  16.460 -0.1843  0.0457 -0.1758
16643W        W34847   8.307   1.977   2.349 -0.0720 -0.3908 -0.1791
16644W        W34848   0.375   1.416  12.377  0.1641  0.4361 -0.0270
16645W        W34849   0.243  12.980  12.953  0.6011 -0.1286  0.0760
16646W        W34850   5.755  11.565  13.246  0.1245 -0.0164  0.0957
16647W        W34851   2.843  11.247  16.446  0.1735  0.0253 -0.2120
16648W        W34852  17.231  13.095   0.399  0.1307  0.1012 -0.2240
16649W        W34853   8.988   1.919   1.678  0.0006 -0.0631  0.2067
16650W        W34854  15.565   7.164   4.476 -0.2267  0.2329  0.0118
16651W        W34855   3.811   9.365   3.644  0.1651  0.4920 -0.0173
16652W        W34856   9.883   1.147   2.690  0.4094 -0.0503 -0.1447
16653W        W34857  16.674   6.174   5.445  0.0074  0.3110  0.1189
16654W        W34858  10.418  12.716   1.667 -0.4948  0.3093  0.1637
16655W        W34859   4.768   5.861  15.558 -0.1723 -0.2528 -0.1663
16656W        W34860  12.121  11.134  12.324  0.1825  0.0410 -0.3688
16657W        W34861   9.150   3.255   0.792 -0.5583 -0.1915 -0.0278
16658W        W34862  11.388   6.602  12.124  0.1267  0.0235  0.1675
16659W        W34863   7.296   0.287  14.154  0.3413 -0.1696  0.1437
16660W        W34864  13.484  15.230  16.540 -0.1469  0.0438 -0.2356
16661W        W34865  16.469   6.378  17.408 -0.1323  0.0445 -0.0780
16662W        W34866   4.336  11.420  14.909 -0.3414  0.0596 -0.1606
16663W        W34867   2.719   7.578  12.015 -0.1434 -0.0168  0.1374
16664W        W34868  10.079   3.785  12.357  0.1059 -0.3635 -0.1702
16665W        W34869   7.143   0.417  17.027 -0.1685  0.1464 -0.4143
16666W        W34870   6.864  16.032   2.566  0.0916  0.3340 -0.2177
16667W        W34871  11.243   4.118   3.474 -0.1069  0.3497 -0.1998
16668W        W34872   0.382   2.717   1.899 -0.2827  0.0110 -0.1027
16669W        W34873  16.305   8.916  15.492  0.0426  0.0501 -0.0891
16670W        W34874  12.752   5.113  15.638 -0.0670  0.0962  0.1325
16671W        W34875  13.476   5.782   3.000 -0.0098  0.0032  0.0617
16672W        W34876   6.475  16.616   1.371  0.3474 -0.1916  0.1310
16673W        W34877   5.022   8.233   0.078 -0.2047  0.2385  0.1871
16674W        W34878  14.726   6.547  13.817  0.0632 -0.0704  0.1044
16675W        W34879   3.508  12.655  14.642  0.2452  0.2396  0.3358
16676W        W34880   6.625   5.811  17.497 -0.1210 -0.1518 -0.0308
16677W        W34881   7.442  14.623  13.604  0.1917  0.1231  0.1404
16678W        W34882   5.813   0.272   3.368  0.1895 -0.0065 -0.2449
16679W        W34883   4.437   3.644  17.237  0.0293 -0.0147  0.0808
16680W        W34884  13.020   9.219  12.672 -0.0506 -0.0435 -0.1311
16681W        W34885   8.872   5.347  15.174  0.2374  0.1827 -0.1030
16682W        W34886   0.807   9.741   1.278  0.0046 -0.0115 -0.5304
16683W        W34887  10.261  16.611  12.887  0.1147 -0.1330 -0.0687
16684W        W34888  13.900  13.963   2.218  0.1363  0.1629 -0.0383
16685W        W34889   1.038   1.266   0.923 -0.0190  0.0562  0.1210
16686W        W34890  12.976   8.323   3.288 -0.0869  0.0559 -0.2256
16687W        W34891   4.215  10.761   5.538 -0.1570  0.0417  0.1124
16688W        W34892  15.934   3.738  13.119 -0.1798 -0.0438  0.3593
16689W        W34893   7.685  12.444  15.496  0.1472  0.0413 -0.1488
16690W        W34894   6.638  15.996   0.739 -0.2337  0.4101  0.1375
16691W        W34895  16.679   8.386  13.596  0.0231 -0.1144 -0.1890
16692W        W34896  15.483  14.487   2.830  0.0993 -0.0256 -0.0927
16693W        W34897   3.605   0.950   3.005 -0.1853  0.1653  0.0209
16694W        W34898   7.211   8.588   4.651 -0.0258  0.2848 -0.2094
16695W        W34899   1.634   8.347  17.402 -0.0010  0.3128 -0.3166
16696W        W34900   7.309   2.518   3.155 -0.5500  0.1197 -0.1115
16697W        W34901   7.910   0.619  17.137 -0.1430 -0.0631  0.1510
16698W        W34902  16.872   8.078  13.938  0.1493 -0.0133 -0.0780
16699W        W34903  10.774   9.885   1.427 -0.3938 -0.0129 -0.1123
16700W        W34904   6.179  12.035  13.441 -0.1022 -0.2624 -0.3791
16701W        W34905  11.248   9.293  16.668 -0.0172 -0.1306 -0.2414
16702W        W34906   7.162  15.843   5.381  0.2616 -0.1069  0.1551
16703W        W34907  13.051   3.244  12.402 -0.1089  0.0633 -0.3220
16704W        W34908  12.957   8.903   2.500 -0.1407 -0.2417 -0.1564
16705W        W34909   9.092   8.929   3.279 -0.3204 -0.0187  0.0144
16706W        W34910  12.326  11.765   5.306 -0.1108  0.1860  0.0306
16707W        W34911  12.589   2.152  15.014  0.2022 -0.1907  0.2796
16708W        W34912  12.483   3.905  13.880 -0.3101  0.1228 -0.0733
16709W        W34913  17.212   7.300  17.148 -0.0620  0.1133  0.2595
16710W        W34914  10.463   1.014  11.947 -0.0477  0.3116  0.4039
16711W        W34915  12.875   7.776  15.095 -0.1841  0.4399  0.1520
16712W        W34916  16.490  16.973   0.960 -0.1228 -0.2377 -0.2415
16713W        W34917  12.182   0.737  15.227 -0.0731 -0.0143  0.1095
16714W        W34918   8.828   7.282   0.182 -0.1279 -0.2945 -0.3252
16715W        W34919   7.731  14.734   4.054 -0.1693 -0.0265 -0.0470
16716W        W34920   1.208   5.591  12.665 -0.1025  0.1331  0.0265
16717W        W34921   3.127   6.652  16.020  0.4131 -0.2506  0.4142
16718W        W34922   7.389   9.774   0.499 -0.1792  0.1525 -0.0266
16719W        W34923   3.479  14.865  16.959 -0.4029  0.1124 -0.1738
16720W        W34924   2.598  16.799  16.543 -0.0008 -0.0839  0.1290
16721W        W34925   8.124   1.586   5.710 -0.0167 -0.0249 -0.1479
16722W        W34926  14.298  13.192  12.951 -0.1624  0.1971  0.2372
16723W        W34927   5.536  16.737   0.865 -0.2387 -0.2347 -0.1973
16724W        W34928   1.702   4.970   4.814  0.0938  0.0564 -0.2068
16725W        W34929   6.455   6.392  16.243 -0.1870 -0.1331 -0.2503
16726W        W34930  15.951   0.550   0.814 -0.1837  0.4595  0.0035
16727W        W34931   4.038   6.403  15.937  0.2347  0.0117 -0.2328
16728W        W34932   6.722  11.827   4.498  0.1885  0.1241  0.1956
16729W        W34933  16.356  16.067  17.004  0.2126 -0.1984 -0.0343
16730W        W34934  15.627   2.949   3.183  0.0078 -0.0861 -0.1250
16731W        W34935   9.106   7.661  11.899  0.0824  0.2091  0.3973
16732W        W34936  16.310   5.302  16.279 -0.0235  0.2112  0.1462
16733W        W34937  14.638  14.160  13.300 -0.1192  0.0750 -0.2727
16734W        W34938  15.576   8.836   2.904 -0.1111 -0.0888  0.1383
16735W        W34939   9.180   8.368   2.957 -0.0235  0.0467 -0.2447
16736W        W34940   4.614  12.465   3.268  0.0863 -0.2017 -0.2630
16737W        W34941  14.667   0.517  17.474  0.2183  0.0100  0.3289
16738W        W34942   8.036   4.729   4.009  0.1397  0.2399 -0.2933
16739W        W34943   3.040   0.331   0.309  0.4130  0.0372 -0.3274
16740W        W34944   6.534   6.758  17.326 -0.2417  0.2652 -0.1117
16741W        W34945   0.966   9.848  13.514  0.3297 -0.0535  0.0879
16742W        W34946   9.787   5.815   1.267 -0.1998 -0.0987  0.1542
16743W        W34947  12.074   8.618   1.439  0.0917  0.0601 -0.0920
16744W        W34948  16.664   3.968  17.488 -0.2713 -0.0799 -0.1570
16745W        W34949   6.862   5.411   1.121 -0.2364  0.0391 -0.0980
16746W        W34950  16.425   7.190   0.118 -0.3282  0.2333 -0.0339
16747W        W34951   7.581   3.944   3.418  0.2312 -0.0595 -0.0075
16748W        W34952  10.573  14.852   1.569  0.2179  0.0067 -0.1827
16749W        W34953  15.328  16.074  17.001  0.1971 -0.3509 -0.1365
16750W        W34954  12.421  10.427   1.196  0.0163 -0.0768 -0.1905
16751W        W34955   6.850  10.279   1.369  0.1265  0.1242  0.1636
16752W        W34956  10.519  15.135  14.430  0.1183  0.1215 -0.1020
16753W        W34957  16.211  15.682  12.974 -0.0638 -0.0692  0.0561
16754W        W34958   3.103  16.167  13.476  0.1765 -0.2277  0.2267
16755W        W34959   4.793  13.855   0.026  0.0665  0.3345  0.0129
16756W        W34960   1.203  11.198   1.979 -0.1421  0.0120  0.1433
16757W        W34961   6.924  15.536  12.952  0.2130  0.0167 -0.0588
16758W        W34962  16.119   0.117   4.777  0.2368  0.1538 -0.0003
16759W        W34963  14.606  13.772  16.307  0.1279 -0.3039 -0.1213
16760W        W34964   2.932   3.670   4.192  0.1700 -0.2140  0.0682
16761W        W34965   8.099   3.121   4.225  0.1851 -0.0167  0.3088
16762W        W34966  14.475   7.274   4.508  0.1085  0.3191  0.2893
16763W        W34967   7.521  16.938  16.326 -0.0659 -0.0346  0.0414
16764W        W34968  14.237  11.763  16.665 -0.4206 -0.1000  0.1935
16765W        W34969   8.625   4.263  13.111  0.2153  0.0430  0.1136
16766W        W34970   7.741  11.186  14.175 -0.0333 -0.1100  0.2374
16767W        W34971  12.787   9.734   4.944  0.1353  0.0450 -0.3498
16768W        W34972  10.482   2.464   3.468  0.1508  0.1345  0.2075
16769W        W34973   4.832  15.659  13.983  0.2822 -0.0269 -0.0786
16770W        W34974  11.386   3.095  13.042  0.1905 -0.1726 -0.0358
16771W        W34975   9.371   8.637   0.214 -0.0844  0.1865 -0.2238
16772W        W34976   8.318   0.437   2.015  0.2011 -0.0396 -0.1644
16773W        W34977   8.417   6.400   4.327  0.1448  0.1725 -0.1932
16774W        W34978   2.873  10.231   4.477 -0.0259 -0.0887  0.0149
16775W        W34979   9.190   1.600   2.094 -0.1109 -0.0629  0.0299
16776W        W34980   1.381  15.030  16.339  0.0695 -0.0158  0.1601
16777W        W34981  13.148  10.870   2.052  0.0358 -0.2825 -0.0757
16778W        W34982   3.013  13.372   1.972  0.1326 -0.0065  0.0267
16779W        W34983   1.443  16.317   2.075  0.2903  0.1858 -0.0118
16780W        W34984   2.575   8.220  14.904 -0.3306 -0.2629 -0.0766
16781W        W34985  10.494  15.989   0.195  0.0299 -0.0529  0.1267
16782W        W34986   3.620  15.109  14.244  0.0204 -0.1570 -0.1855
16783W        W34987  17.052   3.698  13.713  0.4204  0.0634  0.4056
16784W        W34988  15.938   1.781   1.933  0.1544 -0.2032 -0.0155
16785W        W34989   5.868  16.974  12.528  0.1222 -0.3316  0.3155
16786W        W34990   7.667  15.644   0.495  0.1052 -0.0334  0.0367
16787W        W34991   0.426  11.933   0.648  0.1573 -0.0813  0.2804
16788W        W34992   3.636   2.647  16.820  0.3163  0.2973 -0.1112
16789W        W34993   1.953  13.775   1.424  0.0349 -0.1145  0.0759
16790W        W34994   3.417  15.584  14.059  0.2798  0.0468  0.1104
16791W        W34995   1.644   1.595   5.005 -0.1136 -0.1438  0.1286
16792W        W34996   2.497   4.525   5.288  0.1681 -0.0953 -0.3783
16793W        W34997   4.591   7.728   2.617 -0.0848  0.0902  0.1988
16794W        W34998  17.024  11.893  17.030  0.2483  0.0927 -0.0744
16795W        W34999   2.136   1.453  16.026  0.1926  0.3224  0.0688
16796W        W35000  10.244   4.783  12.861 -0.1945 -0.0657  0.2173
16797W        W35001   4.532   5.226   0.168 -0.2585 -0.1873 -0.0648
16798W        W35002   6.094   3.021   3.455 -0.2603 -0.1069 -0.1830
16799W        W35003  11.357   6.906   0.631  0.3153 -0.1943  0.0174
16800W        W35004   4.723   6.762   4.431  0.1411 -0.2404  0.0217
16801W        W35005  16.626   2.484   4.306  0.2439  0.1120 -0.0926
16802W        W35006   3.789   8.860   5.410 -0.1604 -0.2555  0.0000
16803W        W35007   7.084  10.931  12.620 -0.1815  0.1628 -0.1030
16804W        W35008   8.774   6.379  14.069  0.0569  0.0814  0.3245
16805W        W35009   1.535   4.260  15.259 -0.1622 -0.1005  0.0185
16806W        W35010  16.880   3.225  17.093  0.0171  0.2274 -0.1172
16807W        W35011  12.081  12.895  16.772  0.1501  0.1145  0.1486
16808W        W35012   1.957   6.389   0.072 -0.2653  0.0386 -0.0355
16809W        W35013   5.174  16.570  14.168  0.1844  0.0866  0.1089
16810W        W35014   3.523   2.321   3.400 -0.2795  0.1364 -0.0479
16811W        W35015  12.164  11.588  12.558 -0.0316 -0.1552 -0.0158
16812W        W35016  10.593  16.193   1.663  0.1111 -0.0179 -0.0055
16813W        W35017  10.268   4.858   0.413 -0.0566  0.1465 -0.0248
16814W        W35018   4.754   7.721   1.196  0.2614 -0.1569 -0.1177
16815W        W35019  12.732   0.730  15.699  0.1201 -0.2950  0.2512
16816W        W35020  12.131   8.223  11.698  0.0653  0.0400 -0.1087
16817W        W35021   8.972   6.333  13.034  0.0580 -0.2526 -0.1474
16818W        W35022   6.085   9.882   1.117 -0.1390 -0.3526 -0.1863
16819W        W35023   2.237   1.921   1.468  0.0679  0.1353 -0.2311
16820W        W35024   4.565   5.189  14.262  0.2262  0.1366 -0.0349
16821W        W35025   4.901   3.641  13.573  0.3345 -0.3666  0.0966
16822W        W35026  11.912   2.905  15.368  0.1270 -0.2313  0.0402
16823W        W35027  16.584  11.243   1.767 -0.3026  0.0674 -0.2246
16824W        W35028   9.869  13.215  13.421  0.2933 -0.3856 -0.0740
16825W        W35029  12.130   6.651  13.035 -0.1188 -0.1425  0.0092
16826W        W35030  12.947  11.217  14.460 -0.1273 -0.1073 -0.0406
16827W        W35031   4.562  16.927   1.887  0.0979  0.0965  0.1391
16828W        W35032  12.793  16.773   3.223  0.0190  0.1862  0.1253
16829W        W35033   2.213   8.094  11.603  0.1915  0.5921 -0.1762
16830W        W35034  14.375   6.211  16.184 -0.1121  0.2420  0.0805
16831W        W35035  11.872   3.282   5.176  0.2318  0.2648 -0.0074
16832W        W35036   1.157   0.811   3.757 -0.2619 -0.0166  0.1717
16833W        W35037  14.314  15.101   0.513  0.4542  0.0850 -0.0063
16834W        W35038   3.883   6.907   2.350  0.1600  0.0728 -0.5850
16835W        W35039  15.470   2.552  16.044 -0.0878  0.0322  0.1910
16836W        W35040   3.526  14.119   2.123 -0.2602  0.1886 -0.0453
16837W        W35041   2.159   1.253   4.256 -0.1698 -0.2472  0.1086
16838W        W35042  11.134   4.999   2.458 -0.1799  0.1550 -0.1612
16839W        W35043  10.780   6.383  13.397 -0.1012 -0.1242  0.1270
16840W        W35044   4.805  17.224   2.444  0.0478  0.1212 -0.0102
16841W        W35045  11.053   4.377  13.197 -0.1151 -0.3844 -0.0814
16842W        W35046  15.434   2.392  13.897 -0.0206  0.0275  0.1900
16843W        W35047  11.381  12.404  17.275 -0.0545  0.1623  0.0132
16844W        W35048   3.792  10.846   1.242 -0.1241 -0.2891 -0.2744
16845W        W35049  10.884  14.036  13.963 -0.2475 -0.0129 -0.2955
16846W        W35050   2.635  13.329   3.373  0.0271  0.3885  0.0066
16847W        W35051   5.572   1.498  12.226  0.1493 -0.1096 -0.1432
16848W        W35052   5.036   1.247   4.630 -0.2306  0.1392 -0.0443
16849W        W35053  13.764   6.212   1.061  0.2738  0.1520 -0.0749
16850W        W35054   8.898   9.434   3.873 -0.0641  0.1557 -0.0623
16851W        W35055   8.598  16.534  12.927  0.1165 -0.1669  0.1537
16852W        W35056   0.722  12.970   4.501 -0.1111 -0.0020  0.0955
16853W        W35057   9.085   1.316  16.028 -0.0915  0.0640 -0.1127
16854W        W35058  16.395   8.771  12.911 -0.1620  0.1908  0.1580
16855W        W35059   1.006  16.396   1.175  0.1928 -0.0229 -0.3918
16856W        W35060  10.830   6.479   1.943  0.0916 -0.3340  0.1240
16857W        W35061  11.964   5.345  12.383  0.1834  0.1070 -0.1890
16858W        W35062   1.721   3.106  13.734 -0.0109 -0.1103 -0.3186
16859W        W35063   5.065  10.394   1.118 -0.0377 -0.0216  0.4051
16860W        W35064  10.856  15.941   4.928 -0.0905  0.2309  0.0786
16861W        W35065   0.288   1.614   3.587  0.0906  0.2277  0.0633
16862W        W35066   2.417  12.043  14.221 -0.2365 -0.0644 -0.0750
16863W        W35067  14.380   5.582   1.445  0.0657 -0.1740  0.2658
16864W        W35068   5.256   2.456  15.585  0.0092 -0.0803 -0.0345
16865W        W35069   7.404  16.414  17.004 -0.3974 -0.0213 -0.2337
16866W        W35070   5.585   1.548   5.195  0.2786  0.0722 -0.1609
16867W        W35071  16.243  12.433  14.158  0.0027  0.0980  0.1029
16868W        W35072   0.604  11.977  17.299 -0.0191  0.1907 -0.1426
16869W        W35073   2.180  15.108  16.067  0.3328  0.0324 -0.1813
16870W        W35074  13.867  13.533  15.086 -0.0078 -0.0803 -0.1174
16871W        W35075   7.834   7.304   0.662 -0.1789 -0.2528 -0.0473
16872W        W35076   9.871  12.320   4.908 -0.0779 -0.2722 -0.1021
16873W        W35077  16.718   2.127   0.241  0.1073 -0.0210  0.4161
16874W        W35078   9.319   8.802   4.265 -0.1944  0.1503 -0.1536
16875W        W35079  15.754   0.943  13.067  0.1400  0.1017  0.1000
16876W        W35080  16.116   3.773   1.773 -0.2676  0.1731  0.1686
16877W        W35081   1.766   6.926  13.320  0.0800  0.0038 -0.1780
16878W        W35082   5.436   1.755   3.109  0.2918  0.2685  0.0788
16879W        W35083  16.679  15.612  16.980  0.0570  0.0396  0.0475
16880W        W35084   6.120   2.391   4.221 -0.2036  0.1036  0.3234
16881W        W35085  11.173  10.286  13.548  0.1088  0.1330  0.4158
16882W        W35086   6.432   1.910   0.105 -0.2089  0.1928 -0.1482
16883W        W35087  11.478  15.854   1.836  0.1705  0.1674  0.1877
16884W        W35088  11.010   3.412   4.108  0.2172 -0.1128 -0.1278
16885W        W35089   5.416   0.335  17.120  0.0714 -0.0979 -0.0273
16886W        W35090  12.231  13.492  15.691 -0.4033 -0.0749  0.0321
16887W        W35091   3.105   7.850  16.505  0.1830  0.1029 -0.0080
16888W        W35092   9.266   2.618   5.212  0.2433  0.1659 -0.0828
16889W        W35093  14.952   0.870   2.402  0.0059 -0.1101 -0.0465
16890W        W35094   8.710  12.896  17.256 -0.0605 -0.0411  0.0561
16891W        W35095   0.488  10.735  13.687 -0.2199  0.1652  0.1927
16892W        W35096  11.020   8.223   0.299  0.1193  0.0929  0.1563
16893W        W35097  16.461   4.964   1.762  0.1545 -0.3219 -0.0131
16894W        W35098  14.105   3.732   2.549 -0.1321  0.1239  0.3783
16895W        W35099   0.263   8.723  16.287  0.0958  0.0260 -0.1654
16896W        W35100  12.935   5.238  17.063  0.0221  0.1838 -0.3307
16897W        W35101   6.300   2.059  13.218  0.2724 -0.1912 -0.2648
16898W        W35102   8.533   6.683  16.058  0.1584  0.0772 -0.2581
16899W        W35103   6.934   1.729   1.490 -0.0246  0.0019  0.4010
16900W        W35104   7.647  14.448  16.702 -0.0981  0.0093 -0.0769
16901W        W35105   3.157  13.063   5.179  0.0065  0.1198  0.2117
16902W        W35106  16.940  13.911  13.491  0.2781  0.2980  0.0606
16903W        W35107   3.122  16.064   0.266 -0.2922 -0.1356 -0.0475
16904W        W35108   4.410   0.798   2.020  0.4690  0.1093 -0.4306
16905W        W35109   1.960   3.431  15.546  0.2233 -0.0359 -0.0309
16906W        W35110   9.745   4.259  13.904  0.3800  0.0141  0.1309
16907W        W35111  11.527  13.911  12.423  0.0437  0.1410 -0.0729
16908W        W35112  10.913   1.864   3.978  0.2529 -0.4296 -0.0807
16909W        W35113  14.772   6.005  14.975  0.0859 -0.2455  0.0975
16910W        W35114  15.637   3.792   5.227 -0.0172  0.0387 -0.0782
16911W        W35115   3.462  13.549  13.046 -0.1494  0.2008  0.1030
16912W        W35116   6.826   0.471  14.270  0.1142  0.0878  0.4341
16913W        W35117   0.550   1.324   3.978  0.3123  0.1211  0.4334
16914W        W35118   5.093  17.012   2.911 -0.4487 -0.1222  0.0976
16915W        W35119  10.244   9.420  13.942 -0.0645  0.1718  0.0882
16916W        W35120  15.639  15.286   3.774  0.1458  0.1979 -0.1219
16917W        W35121   2.389   0.244   2.953 -0.0935  0.2111  0.1588
16918W        W35122   5.935  10.254  16.195  0.2644 -0.0775  0.1465
16919W        W35123   5.035   9.749   2.304  0.1004  0.3019 -0.1349
16920W        W35124  15.064   0.106   0.702  0.2253  0.0967  0.0265
16921W        W35125  10.366  10.497  13.990 -0.3262  0.2102 -0.0856
16922W        W35126   4.826   1.364  16.049  0.4345  0.1298 -0.2662
16923W        W35127  12.582   8.821   5.848 -0.0968  0.2473 -0.0359
16924W        W35128  10.287   1.764  14.932 -0.0440 -0.3178  0.3852
16925W        W35129  17.128  11.463   4.755  0.1732 -0.1580 -0.0051
16926W        W35130  10.987   9.483   2.584 -0.0363  0.2442 -0.2913
16927W        W35131  11.083  13.859   6.620 -0.1249 -0.2490  0.0574
16928W        W35132   7.846  13.195   3.918 -0.2244 -0.4135 -0.1401
16929W        W35133  17.236   3.471   5.420  0.1315 -0.2650 -0.2013
16930W        W35134   6.560   5.818  14.831  0.0659 -0.2408  0.1939
16931W        W35135   0.493  11.889   4.822  0.1132 -0.1379 -0.3692
16932W        W35136   4.860  11.302  16.975 -0.0111 -0.1312 -0.1085
16933W        W35137  16.609   2.463  17.396  0.0876  0.0874 -0.2281
16934W        W35138  15.941   2.973   5.876 -0.0905 -0.2040 -0.1516
16935W        W35139  15.233  13.484  15.080  0.0180  0.2061  0.1348
16936W        W35140  14.131  11.287  15.862 -0.0407  0.2912  0.0466
16937W        W35141   9.552   1.150  14.712 -0.0533  0.1011 -0.0918
16938W        W35142   3.038  17.057   5.376  0.1505  0.0347  0.3464
16939W        W35143   2.867   7.656  12.959  0.0084 -0.0280  0.0296
16940W        W35144   6.876   2.556  16.534  0.1805 -0.0440 -0.1907
16941W        W35145   9.983   3.055   0.843  0.1919  0.0075 -0.1885
16942W        W35146   5.192  10.117  17.226  0.2905 -0.1145  0.1206
16943W        W35147  10.055   9.288   1.765  0.1364  0.1208 -0.3809
16944W        W35148  10.959   7.226  11.776 -0.0481  0.0900  0.1177
16945W        W35149   7.789   5.729   4.662  0.0248  0.2586  0.0914
16946W        W35150   6.677  11.706  15.025 -0.0322  0.3173  0.0674
16947W        W35151  16.955  14.198   4.965  0.0280 -0.0922 -0.1310
16948W        W35152   9.923  12.592   0.957 -0.2876 -0.1646  0.0391
16949W        W35153   8.631  12.157   1.656  0.0232  0.0665  0.3386
16950W        W35154  12.812  10.750  13.305  0.0494 -0.0471 -0.2060
16951W        W35155   7.576   5.560  14.436 -0.1410 -0.2069 -0.0495
16952W        W35156   9.230  16.944  12.081  0.0351  0.0094 -0.1477
16953W        W35157  10.104  16.378   0.227  0.1249 -0.0836 -0.2237
16954W        W35158   3.720  13.949   1.554 -0.0044  0.1164  0.1980
16955W        W35159  11.260  15.412   1.730 -0.0494 -0.1143 -0.1984
16956W        W35160   9.554   1.251  12.296  0.4300 -0.1046  0.0492
16957W        W35161   5.863   8.848   1.731 -0.2484 -0.0457  0.0946
16958W        W35162  10.842   6.764   3.033 -0.1606 -0.4619  0.4831
16959W        W35163   1.617   8.399  15.114  0.0345  0.1517  0.0708
16960W        W35164  16.026  12.974  12.027  0.0025  0.0334  0.0062
16961W        W35165   1.579   8.190  14.126 -0.3547  0.2663 -0.0686
16962W        W35166  12.958   1.527   1.473 -0.0199 -0.0320  0.0015
16963W        W35167  12.634   9.086   2.139 -0.2406  0.0153 -0.0088
16964W        W35168   3.302   9.506   2.790 -0.0194  0.1825 -0.1671
16965W        W35169  16.726   6.509   4.256 -0.1852  0.1684 -0.0626
16966W        W35170   1.964  12.549   2.656  0.2695  0.2471  0.1043
16967W        W35171  16.644  11.275   2.991  0.0274  0.1037 -0.0432
16968W        W35172   4.175   8.484   5.583  0.0171 -0.0313  0.1464
16969W        W35173  15.727   8.133  17.158 -0.2343 -0.1677 -0.0215
16970W        W35174   5.623   0.780  12.933  0.1303  0.0627  0.2960
16971W        W35175   8.732   9.941  15.369 -0.0497  0.1954 -0.0037
16972W        W35176  10.474   2.736   1.190 -0.2154 -0.2472 -0.0514
16973W        W35177  14.116  13.016   4.409 -0.0015 -0.2552  0.2167
16974W        W35178   5.872  10.122  12.312 -0.0918 -0.0668  0.0001
16975W        W35179   7.876   6.162  16.259 -0.0458  0.3643 -0.1806
16976W        W35180  15.996   8.883  16.568 -0.0345  0.0887 -0.0395
16977W        W35181   7.135  11.350  16.222 -0.1657 -0.2886  0.1135
16978W        W35182   7.480   5.523  15.285  0.0635 -0.3280 -0.0359
16979W        W35183  14.925  16.272   0.747 -0.0243 -0.0587 -0.1093
16980W        W35184   8.086   0.689  15.655 -0.2630 -0.2619  0.3072
16981W        W35185   8.895   0.382   5.077  0.3229 -0.1114 -0.0408
16982W        W35186   8.197   9.390  17.138 -0.1176  0.0823  0.0304
16983W        W35187  14.573  16.440  15.896 -0.0053 -0.1255 -0.2004
16984W        W35188  11.320   4.864  13.847 -0.2911  0.4032 -0.2118
16985W        W35189  16.980  12.215  13.018 -0.1925  0.0586  0.1756
16986W        W35190  12.546   6.364   1.108 -0.3991 -0.4542  0.1891
16987W        W35191   2.562  15.458   1.296  0.0612 -0.0405 -0.1779
16988W        W35192  16.035   0.539  12.342 -0.1360  0.1509 -0.1592
16989W        W35193   9.682   7.203   3.887 -0.0294 -0.2466 -0.0966
16990W        W35194  15.431  12.105   4.186  0.0074  0.0846 -0.0622
16991W        W35195   3.072  15.444   4.376 -0.1586  0.1295  0.0184
16992W        W35196   7.424   5.861  17.497  0.3706  0.3060 -0.2684
16993W        W35197   8.257   5.461   3.267  0.1056 -0.0007 -0.1034
16994W        W35198  15.615  10.471  15.548 -0.0231 -0.1288  0.0601
16995W        W35199   7.777   1.343   2.078 -0.4350 -0.2029 -0.0944
16996W        W35200  13.118  10.318  14.505  0.2223 -0.2369 -0.0555
16997W        W35201  15.578   5.894  14.458  0.1600 -0.2203  0.0482
16998W        W35202   2.470   7.321   4.551  0.4344  0.1207 -0.0612
16999W        W35203   6.886   9.519   5.311 -0.1091 -0.0571 -0.0381
17000W        W35204  11.203  14.611  13.202  0.1788  0.1326 -0.1759
17001W        W35205   6.660   1.842   3.359 -0.0479 -0.0124 -0.2471
17002W        W35206  11.815   5.314   3.913  0.0646 -0.0139  0.0416
17003W        W35207   1.834   4.003   4.640  0.0844 -0.0577  0.3543
17004W        W35208   9.989   5.694  13.907 -0.0336 -0.0023  0.0113
17005W        W35209  10.935  14.445   2.645  0.0973  0.0855 -0.2207
17006W        W35210  14.078  12.036  16.224  0.0011  0.1034  0.3853
17007W        W35211  12.894   0.224   0.032 -0.2695 -0.0489 -0.0784
17008W        W35212  13.269   8.462   4.867 -0.1096 -0.3811  0.2235
17009W        W35213  10.112   0.514  15.483 -0.2644 -0.2338 -0.0005
17010W        W35214   8.253   8.015   2.772  0.0516  0.2139  0.1956
17011W        W35215   5.110   2.438   1.095 -0.0650 -0.0717  0.4567
17012W        W35216   1.104   6.349  14.075 -0.1761 -0.0785 -0.1157
17013W        W35217   1.654   7.050  13.926  0.0331  0.0186  0.0121
17014W        W35218   1.787   7.923  16.452  0.0572  0.1922 -0.0140
17015W        W35219   9.732   8.939   0.039  0.1397 -0.1924  0.1183
17016W        W35220  16.163   8.492  14.541  0.1563  0.0933 -0.0427
17017W        W35221  11.658  13.023  13.763  0.0723  0.1502  0.1128
17018W        W35222   5.906   9.134   0.051 -0.0905 -0.3805 -0.1394
17019W        W35223   9.195   1.535  15.491 -0.1706  0.1091 -0.0450
17020W        W35224   1.998   6.396  15.058  0.1076 -0.2186 -0.4140
17021W        W35225  15.624  12.389   6.492  0.0323 -0.0502  0.0165
17022W        W35226   3.276   2.118   4.049  0.0946 -0.0124 -0.1009
17023W        W35227   2.844   6.087   0.582  0.1259  0.0587  0.0784
17024W        W35228   6.174  14.015   2.146  0.0546  0.2407  0.3426
17025W        W35229   7.226   4.866   4.791 -0.0579  0.1990 -0.3768
17026W        W35230  16.474  11.521   6.086 -0.0520 -0.1048  0.1634
17027W        W35231  13.091   2.195   0.087 -0.0062  0.0092  0.1338
17028W        W35232   2.409   9.152   3.280 -0.1713  0.1818 -0.2008
17029W        W35233   6.806   7.095   3.557 -0.1978 -0.1665  0.1715
17030W        W35234   2.128  13.304   3.304 -0.1802 -0.1744  0.1790
17031W        W35235  13.081   4.989  15.971  0.1572  0.1014  0.2685
17032W        W35236   9.535  12.968   3.424 -0.1456  0.1534 -0.2631
17033W        W35237  15.050   2.420  17.412 -0.1152  0.0805  0.0493
17034W        W35238  10.927   5.128  14.896  0.0325  0.0049  0.0473
17035W        W35239  15.791   0.818   0.457 -0.0561 -0.0791  0.0116
17036W        W35240  16.987   3.747   0.575  0.1328 -0.1281  0.3082
17037W        W35241   4.001  16.620   4.514  0.3582  0.1385 -0.1940
17038W        W35242   5.758  14.778  11.076  0.2784  0.2222  0.3304
17039W        W35243   0.958   8.981  15.033 -0.1178 -0.1251  0.4539
17040W        W35244   9.249   6.385  14.203  0.0427  0.2071  0.1240
17041W        W35245   5.612   3.254  16.703  0.0229 -0.1489 -0.3305
17042W        W35246   1.147   6.582   5.479 -0.3864  0.2622 -0.1213
17043W        W35247   2.308  15.229   0.249  0.0250 -0.0961  0.1955
17044W        W35248  14.331   0.961  15.831 -0.1957 -0.1659  0.0811
17045W        W35249  10.081  13.961  16.336 -0.1948 -0.1193  0.1561
17046W        W35250   2.556  12.452  16.441  0.0513  0.0104 -0.0472
17047W        W35251   4.728   3.635   0.132 -0.1414  0.0495 -0.2990
17048W        W35252   9.624  16.654   0.288  0.1429  0.0571  0.2176
17049W        W35253   2.709  14.954   2.633 -0.1736  0.0247 -0.1029
17050W        W35254  16.684  12.481   4.769 -0.0919  0.1779 -0.0271
17051W        W35255   5.554  10.166   1.121 -0.0582  0.1405 -0.1819
17052W        W35256  15.977   2.953  15.452 -0.0201  0.0670 -0.0070
17053W        W35257   6.003   5.552  16.488 -0.1646 -0.4257  0.0136
17054W        W35258  16.331   8.791   2.142  0.1955  0.1227  0.2717
17055W        W35259  15.633  14.584  12.679  0.1138 -0.1561 -0.1473
17056W        W35260   0.988  16.801   3.152 -0.1080 -0.1400  0.3365
17057W        W35261  15.023  11.895  12.778  0.0641  0.1092  0.3745
17058W        W35262  12.990   6.155   0.441 -0.2804 -0.0976 -0.2758
17059W        W35263  14.867  13.237   1.346  0.2815  0.0609  0.2701
17060W        W35264   9.860  14.782   0.280 -0.1950 -0.2917  0.2345
17061W        W35265   3.570  11.791  15.507 -0.0532  0.0314  0.0376
17062W        W35266   7.101   5.321   4.671 -0.1015 -0.1067  0.0289
17063W        W35267  13.389   3.307  15.523 -0.0091  0.0557  0.0199
17064W        W35268   8.574   9.017  12.523 -0.0169  0.0395  0.3296
17065W        W35269   2.341  12.250   1.430 -0.0038  0.0301 -0.0925
17066W        W35270  16.363  13.848   1.445 -0.1491  0.1821  0.3324
17067W        W35271   7.815   6.196  13.507 -0.0269 -0.1580 -0.1163
17068W        W35272   3.361   0.932   4.861 -0.0623 -0.1868 -0.0801
17069W        W35273  13.575  11.686  14.071 -0.5396  0.2145 -0.0822
17070W        W35274   2.814   7.354   0.308  0.1675  0.1754 -0.0816
17071W        W35275  13.939   8.931   2.543 -0.0213  0.1049 -0.0343
17072W        W35276  15.096  11.853   5.649 -0.2506  0.2097  0.1600
17073W        W35277  10.789   3.883  15.016  0.2528  0.2260  0.0654
17074W        W35278   0.513   4.839  13.704  0.1031 -0.4096 -0.0253
17075W        W35279   9.278   0.109   1.907  0.0903 -0.1159 -0.2527
17076W        W35280   9.070   3.684   0.202  0.1439 -0.0390 -0.0387
17077W        W35281   4.797  14.022   1.158  0.1357 -0.1511 -0.1374
17078W        W35282   6.407   4.058   2.043  0.1577  0.0924  0.0171
17079W        W35283  10.726  12.602  13.265 -0.0122  0.3632  0.0075
17080W        W35284  12.392  13.500  12.426 -0.1558 -0.2278  0.2086
17081W        W35285  16.825  15.427  12.700 -0.0254  0.2028  0.0824
17082W        W35286   2.161   5.239  16.047  0.0428  0.0159  0.3407
17083W        W35287   1.752   3.953  14.783 -0.0350 -0.0666  0.3009
17084W        W35288   6.562  17.105   0.314  0.0757 -0.2778 -0.2363
17085W        W35289   3.430  13.505   1.051  0.1124 -0.1007 -0.0348
17086W        W35290   2.228  16.369  13.962 -0.2856  0.3321  0.1745
17087W        W35291   0.863   5.708   2.719  0.0360  0.2948 -0.2648
17088W        W35292   4.564   0.159   5.217 -0.0926 -0.1628 -0.1555
17089W        W35293   7.364   2.262   2.190  0.0334 -0.1713  0.2246
17090W        W35294   7.910   9.881  12.339  0.3819  0.0754  0.2614
17091W        W35295  14.994  12.974  16.151 -0.0842  0.2128 -0.1367
17092W        W35296   0.698  10.094  16.290  0.3401 -0.0245 -0.0371
17093W        W35297  10.303   5.602   0.108 -0.0142  0.1453 -0.2115
17094W        W35298  14.222   0.804   5.565  0.0294  0.0762 -0.2210
17095W        W35299  12.794   4.114   4.583 -0.0960  0.1620  0.0773
17096W        W35300   9.997  11.086   0.167 -0.1075 -0.0996  0.0316
17097W        W35301   4.715   0.937  12.698 -0.2895  0.0017  0.1999
17098W        W35302  17.198   1.430  16.934 -0.1684  0.3548  0.1483
17099W        W35303  10.465   3.651  15.846 -0.1722 -0.2914 -0.0018
17100W        W35304   5.420  16.084   1.296  0.0403 -0.1603 -0.5338
17101W        W35305  15.881  16.565   0.696 -0.1079 -0.1309 -0.0738
17102W        W35306   7.540  10.887   4.398  0.0365  0.2706  0.1941
17103W        W35307  15.507   2.356  13.322  0.0551 -0.0427 -0.2414
17104W        W35308   3.471  14.432   4.219 -0.0543 -0.1045 -0.0578
17105W        W35309   2.225  14.588  13.032  0.1163 -0.1134 -0.1736
17106W        W35310   3.632  12.708  15.294  0.0376 -0.1175  0.1183
17107W        W35311   5.146  11.380  14.726  0.0233 -0.1344  0.2637
17108W        W35312  12.558  17.096  16.713  0.1700  0.0319 -0.0196
17109W        W35313   9.589   1.000   0.004  0.0650 -0.4517 -0.1165
17110W        W35314   0.218  13.033  17.504 -0.1924  0.0457 -0.0141
17111W        W35315   4.077   9.815   6.447 -0.1172  0.0225 -0.1373
17112W        W35316   2.052   6.611  13.662 -0.1594  0.1882 -0.0063
17113W        W35317  13.922   4.979  16.344  0.3143  0.0741 -0.1744
17114W        W35318   7.267   1.603   4.792 -0.1681 -0.0756 -0.1824
17115W        W35319  10.124   4.903   2.853 -0.0805  0.0575 -0.3710
17116W        W35320   5.955  13.509  14.800  0.0489  0.4519 -0.0606
17117W        W35321   5.052  12.867   4.897  0.1077  0.1324  0.0979
17118W        W35322   8.283  15.048   0.258 -0.0859 -0.0512 -0.4182
17119W        W35323  11.673   1.677   4.217 -0.1799 -0.2029  0.0776
17120W        W35324  11.916   4.472   0.938  0.1878  0.1398 -0.1084
17121W        W35325   0.933  10.893   0.376  0.0110  0.0236  0.0517
17122W        W35326  15.460   0.490   0.673 -0.3692  0.0101  0.0923
17123W        W35327   3.565   4.146   5.262  0.0318  0.2053 -0.0639
17124W        W35328   4.346   6.637  13.528 -0.0969  0.1211 -0.0345
17125W        W35329   1.777  10.086   5.323 -0.0165 -0.0207 -0.1170
17126W        W35330  16.545  13.781   3.071 -0.0813  0.0027  0.2472
17127W        W35331   1.395  14.795  14.818 -0.0582  0.3101 -0.2360
17128W        W35332   4.499   7.272   4.529 -0.0694  0.3006  0.1707
17129W        W35333   4.633   0.867   1.021  0.2124 -0.1063 -0.2224
17130W        W35334  14.745   7.907  17.039 -0.0451  0.0736  0.0711
17131W        W35335  13.922   3.023  17.228 -0.1785  0.1676 -0.1813
17132W        W35336   9.980  15.591   2.536 -0.0025  0.1350 -0.0550
17133W        W35337   4.671  11.627  14.453  0.2342  0.5224 -0.0837
17134W        W35338   1.159   7.350   5.238 -0.0891 -0.0594 -0.1865
17135W        W35339   7.694   7.032  16.197 -0.3697 -0.1762 -0.0410
17136W        W35340  11.543   3.867   4.067  0.1056 -0.0862 -0.0424
17137W        W35341   7.722  16.056  16.754 -0.0732 -0.1964  0.3244
17138W        W35342  12.854   3.082   2.724 -0.0649 -0.0106  0.1189
17139W        W35343  11.886  13.698  12.673 -0.2458  0.0479  0.0839
17140W        W35344  15.412   4.926  16.872 -0.1136  0.1377 -0.0908
17141W        W35345   4.083   1.831   4.077 -0.0646 -0.1988  0.3143
17142W        W35346   0.870  10.417  15.866 -0.1306 -0.0011  0.1546
17143W        W35347   7.923   0.236  12.303  0.1301  0.0150 -0.0446
17144W        W35348  12.738  14.916   2.910 -0.3575  0.1921 -0.2030
17145W        W35349  10.780   5.913  12.124 -0.1784  0.0458  0.0957
17146W        W35350   5.302   7.075   0.678 -0.0656  0.2188  0.2461
17147W        W35351  15.151  15.839  14.297 -0.0351  0.0617  0.1647
17148W        W35352   0.544  14.098   4.239  0.0626 -0.1646 -0.2382
17149W        W35353   7.192   6.108  12.704 -0.1374 -0.1595 -0.0425
17150W        W35354   6.890   1.636   0.144  0.0455  0.0841  0.1099
17151W        W35355  11.723   4.229  16.630  0.0663 -0.0435  0.1426
17152W        W35356   1.021  16.237   4.391 -0.1422  0.0133 -0.3368
17153W        W35357   7.747  14.816  17.033 -0.0194  0.2636  0.0122
17154W        W35358   2.824  10.527   0.189  0.0277 -0.1369 -0.0128
17155W        W35359   9.485   3.878   3.625 -0.2533  0.3518 -0.2148
17156W        W35360  17.146   8.775   5.669 -0.2750 -0.3293 -0.0896
17157W        W35361   6.011  15.772  14.519  0.0476 -0.0501  0.0539
17158W        W35362   7.059   8.062  12.421 -0.0194  0.1520  0.1309
17159W        W35363   2.759  16.550  15.447  0.2738  0.0075  0.2166
17160W        W35364  16.485  13.684  17.443  0.0307 -0.1658 -0.0663
17161W        W35365   2.092   5.873   3.182 -0.2544  0.0460 -0.2363
17162W        W35366  11.264   3.122   2.683  0.0667 -0.1668  0.3490
17163W        W35367  14.731   7.313  17.500  0.1127  0.0765 -0.1328
17164W        W35368   1.964   5.142  15.623  0.0233  0.1418 -0.0764
17165W        W35369  12.474   6.290   6.247 -0.1417  0.2930  0.3541
17166W        W35370   4.734   9.416   4.553 -0.0653 -0.0777 -0.0352
17167W        W35371  15.884  15.010  14.569  0.2979  0.1190  0.2374
17168W        W35372  15.578   2.293  12.779 -0.2015  0.3033 -0.1254
17169W        W35373  13.979   3.593  11.731  0.1266  0.0331  0.1548
17170W        W35374  14.956   3.898  12.176  0.1121  0.3530 -0.1597
17171W        W35375  10.263   2.396   5.080  0.1380 -0.0332  0.3696
17172W        W35376   9.222   6.043  17.338 -0.1751 -0.0941  0.0421
17173W        W35377   5.778  12.803   2.205  0.0009  0.1193 -0.3162
17174W        W35378   4.466  17.245  11.856 -0.1625  0.2709 -0.1306
17175W        W35379  13.510   6.121   2.581 -0.1432  0.2111  0.0088
17176W        W35380  13.064  16.720   0.274 -0.1808 -0.0421 -0.1143
17177W        W35381   8.181   7.625  10.968  0.1729  0.3389 -0.0526
17178W        W35382  16.672   9.531  16.584  0.0099 -0.0137  0.1153
17179W        W35383  13.237  11.826  16.284 -0.1279  0.1397  0.2410
17180W        W35384   2.554   7.090   5.008  0.0928  0.0172 -0.2006
17181W        W35385   9.679  11.005  15.754  0.0248 -0.0777  0.1025
17182W        W35386   2.420  11.838  13.533 -0.1028  0.0087  0.0132
17183W        W35387   8.699  12.924   5.089  0.1535 -0.0346 -0.0642
17184W        W35388   5.962   6.861  17.084 -0.0275  0.0615  0.1632
17185W        W35389  16.928   0.370   5.393 -0.0171  0.0326  0.1121
17186W        W35390  16.684   8.108  16.759  0.2309  0.0160  0.0524
17187W        W35391   9.029   9.190   0.687  0.0243  0.0134 -0.0553
17188W        W35392  14.756   4.622  17.460  0.0022 -0.1923 -0.1378
17189W        W35393  11.770   6.477   2.491 -0.2346 -0.3231  0.0932
17190W        W35394  10.042  11.538  14.262 -0.0866 -0.4295  0.0118
17191W        W35395  10.748   0.524   0.471 -0.3591 -0.0431 -0.5130
17192W        W35396   7.299  13.304  15.945  0.0800 -0.0917  0.0388
17193W        W35397   0.040   9.111  15.481  0.1186 -0.2567 -0.0035
17194W        W35398   9.301   4.249  14.742  0.0503 -0.1636  0.0940
17195W        W35399  16.208  13.453  16.528 -0.0261 -0.0544 -0.0729
17196W        W35400  11.185  14.759   3.783 -0.1165 -0.0940 -0.1548
17197W        W35401   0.430  13.367   0.298 -0.1804  0.0909  0.0412
17198W        W35402  12.362   9.773   5.505  0.2385  0.0576 -0.1750
17199W        W35403   8.621  10.347   4.260 -0.1867 -0.2468 -0.0645
17200W        W35404  11.849  16.095   1.572  0.1049  0.2710  0.0177
17201W        W35405   6.611  10.059   3.164  0.1401  0.0234 -0.0391
17202W        W35406  10.295  13.314  15.864  0.2345 -0.0191 -0.1697
17203W        W35407  14.942   8.625   4.614  0.0213 -0.0984  0.1766
17204W        W35408   7.502  12.713   0.309  0.0140 -0.2015 -0.1271
17205W        W35409   4.082   6.598   0.164  0.2892  0.1969  0.0787
17206W        W35410  17.066   0.928  12.904 -0.0221  0.0673  0.1845
17207W        W35411   6.777  16.977  13.169  0.0924  0.2490 -0.0452
17208W        W35412   3.885   4.052  16.466  0.1139  0.0120 -0.1955
17209W        W35413   7.841  16.819  13.737 -0.0391  0.3360  0.0862
17210W        W35414   0.639   2.037  16.980 -0.0136 -0.1976  0.0043
17211W        W35415  15.890   1.540   0.978 -0.2662  0.4723  0.2591
17212W        W35416  16.385  12.811   5.354  0.1348 -0.0988 -0.0453
17213W        W35417  12.159  16.317   4.613  0.1017  0.0957 -0.2296
17214W        W35418   8.600   9.600   5.387  0.2313  0.0807  0.1111
17215W        W35419  11.573   5.618   3.547 -0.1297  0.3252 -0.1562
17216W        W35420   4.723  12.356   6.004  0.0906 -0.2331  0.0596
17217W        W35421   6.853   6.372  15.169 -0.0541 -0.0075 -0.1245
17218W        W35422  12.850   4.917  12.482  0.0588  0.1566 -0.0552
17219W        W35423   4.000   6.138   2.891  0.0680  0.2958  0.1519
17220W        W35424   7.778  15.508  14.176 -0.0502 -0.1494 -0.2262
17221W        W35425   4.006   9.511  15.187 -0.1598  0.1648 -0.0136
17222W        W35426   1.155   1.495  13.045  0.1229 -0.2990 -0.2509
17223W        W35427  13.109  15.440   4.120 -0.2157 -0.2314  0.1205
17224W        W35428   6.253   4.372   1.638 -0.0663  0.3951  0.2920
17225W        W35429   0.754   7.811  13.555  0.0969  0.0354 -0.2149
17226W        W35430  12.180  11.265  15.114  0.1391  0.0719  0.0333
17227W        W35431  13.612  12.082  15.988 -0.0967 -0.1236 -0.0637
17228W        W35432   2.212  14.075   4.134 -0.3100 -0.0719 -0.0207
17229W        W35433   7.562   5.468   2.241  0.0749 -0.1273  0.0544
17230W        W35434   0.747  11.694   3.925  0.0979  0.1010 -0.2073
17231W        W35435   1.490   5.551  15.675 -0.1684 -0.1508 -0.0214
17232W        W35436   9.044   8.637   2.485  0.3550  0.0543  0.2872
17233W        W35437  13.820  13.962   5.389  0.0597  0.1415 -0.0517
17234W        W35438   2.886   5.271  13.353  0.0362  0.1304 -0.1410
17235W        W35439   1.022  13.456  14.063 -0.1414 -0.0382 -0.0433
17236W        W35440  15.074  16.556   0.343  0.3229  0.0705 -0.0034
17237W        W35441  16.635  14.008   0.649  0.0669 -0.0774 -0.3403
17238W        W35442  14.896  15.012   6.500  0.0587  0.0339 -0.0785
17239W        W35443   0.519  16.506   1.088 -0.1437 -0.0397  0.2397
17240W        W35444   8.072   4.291   4.961  0.2099  0.1132 -0.1525
17241W        W35445  12.105   4.948   0.766  0.1193  0.1277 -0.2418
17242W        W35446   9.308  10.869  15.039  0.0347 -0.0825  0.0841
17243W        W35447   7.773  17.088   3.084 -0.1321 -0.1521 -0.2790
17244W        W35448  14.281   4.212  14.896 -0.0964  0.0408 -0.0750
17245W        W35449   4.122   3.837  13.040  0.0023  0.1121  0.4878
17246W        W35450   8.809   2.313  14.993 -0.1256  0.1208 -0.0137
17247W        W35451   5.562  12.889   1.266 -0.0263 -0.2139  0.2260
17248W        W35452  16.180   5.115   2.986 -0.0599 -0.0052  0.3249
17249W        W35453  12.785  14.710   0.081  0.1294  0.1222 -0.1095
17250W        W35454   2.202  15.175   2.674  0.0450 -0.0512  0.1854
17251W        W35455  13.474  14.645   0.986 -0.0578 -0.1608  0.1264
17252W        W35456   7.710   5.078  11.831 -0.4827  0.2898  0.2354
17253W        W35457   4.720   0.884  16.955 -0.0271  0.1160 -0.0973
17254W        W35458  12.179  14.586   5.758 -0.0036  0.1471 -0.2293
17255W        W35459   8.406  12.565   0.378  0.3799 -0.3908  0.0103
17256W        W35460  10.126   4.496   1.835 -0.0497 -0.1536  0.0765
17257W        W35461   3.202   3.184   4.851 -0.0796  0.1176 -0.1324
17258W        W35462  12.507  12.569  13.086 -0.0230 -0.0392 -0.0056
17259W        W35463  14.830   7.505  15.107 -0.2341  0.1487 -0.1201
17260W        W35464  16.749  10.871  16.121  0.1600  0.3144  0.1186
17261W        W35465  15.855  13.785   3.877  0.0354 -0.1103  0.1585
17262W        W35466   2.502   9.103   4.971 -0.0384  0.1270  0.2672
17263W        W35467   0.043   0.995  14.672  0.1636  0.1390 -0.1681
17264W        W35468   2.651  14.555  12.786  0.1183  0.0596  0.1048
17265W        W35469  13.297  11.603   5.083 -0.0609  0.2043 -0.3005
17266W        W35470  10.612   5.412  12.407  0.0777 -0.1320  0.2398
17267W        W35471  11.011   9.428  12.954 -0.0930  0.2150  0.2147
17268W        W35472   2.228   4.162   1.970 -0.0210 -0.1598 -0.2424
17269W        W35473  10.329  15.197   4.078  0.0383  0.1237  0.3783
17270W        W35474   3.959   1.403  16.962 -0.1917  0.1553  0.3807
17271W        W35475   3.436   4.861   3.820  0.1389 -0.0010  0.0995
17272W        W35476   5.138   4.313   3.781  0.2766 -0.0377 -0.2502
17273W        W35477   8.882  11.281  13.131  0.1879 -0.0348  0.1202
17274W        W35478   0.571   2.032   3.635  0.1417 -0.1551 -0.0905
17275W        W35479  15.826   2.613  14.633  0.1423  0.1598  0.2021
17276W        W35480  14.800  12.567   5.525  0.2886 -0.0937 -0.0117
17277W        W35481  16.505   2.334   3.238  0.1789  0.2533  0.0944
17278W        W35482  16.275   7.787   4.778 -0.4680  0.0801  0.0147
17279W        W35483   8.962   2.521  13.250 -0.0228 -0.5694  0.1325
17280W        W35484  11.066   6.973   3.539  0.0137  0.3247  0.2709
17281W        W35485   7.122   2.450   0.965  0.0869 -0.2620  0.0420
17282W        W35486   5.163  14.239  15.508 -0.0096  0.2634 -0.0321
17283W        W35487   3.285  13.041   3.244 -0.1188 -0.0277 -0.3346
17284W        W35488  16.768  12.594   1.245  0.1675 -0.2665 -0.0036
17285W        W35489   6.858   8.634   0.772 -0.2342 -0.0045  0.1607
17286W        W35490   7.559   8.262   4.908 -0.1680 -0.0457  0.0796
17287W        W35491   4.273   7.097  16.463 -0.1844 -0.1883 -0.5010
17288W        W35492  11.007  16.316   1.383 -0.3016  0.1187  0.0160
17289W        W35493  16.042   0.816  17.351  0.1458  0.0954 -0.1347
17290W        W35494   7.859  14.996   1.079  0.3258 -0.2107  0.0182
17291W        W35495   6.301  14.420   3.879 -0.0169 -0.3013  0.0447
17292W        W35496  11.433   5.163  13.434  0.1780 -0.0242 -0.0556
17293W        W35497  15.281   1.455   4.154  0.2296  0.2114 -0.1201
17294W        W35498   0.144   5.920   1.952 -0.1256  0.0691 -0.0187
17295W        W35499   2.761   7.151  15.239 -0.0545  0.1078  0.3216
17296W        W35500   4.728   7.750   2.115 -0.1394  0.0988  0.0703
17297W        W35501   2.207  10.065   4.143 -0.1207  0.1121  0.0425
17298W        W35502   5.123   5.876  15.196 -0.3068  0.1383 -0.3628
17299W        W35503  12.241   4.961  15.076 -0.1302 -0.3115 -0.0320
17300W        W35504   7.592   7.755  13.165 -0.0612  0.1534  0.0636
17301W        W35505  10.351  13.853   1.454  0.0143 -0.1837  0.1132
17302W        W35506  16.789   6.286  12.643  0.2300  0.0886 -0.1852
17303W        W35507  15.828   8.598  15.926  0.0428 -0.0245  0.0381
17304W        W35508   6.596  12.552  13.459 -0.1469 -0.1950 -0.0637
17305W        W35509   9.399   5.609  13.672 -0.3976 -0.2657 -0.2503
17306W        W35510   1.634   8.974  12.598 -0.0289 -0.0898  0.1889
17307W        W35511   1.329  16.436  14.266  0.2000  0.0847  0.0311
17308W        W35512   7.412   1.175  15.789 -0.1366 -0.1403  0.0079
17309W        W35513   1.356  11.111  12.756 -0.0053  0.0159  0.5048
17310W        W35514   7.599  13.480  14.578 -0.0013  0.1589  0.1407
17311W        W35515   1.315  12.356   2.313 -0.1393  0.0816 -0.0973
17312W        W35516  12.345  16.755  14.330  0.0850  0.0570  0.0033
17313W        W35517   6.978   3.771  11.422 -0.1184  0.0908 -0.2386
17314W        W35518  13.440   3.361   3.800 -0.0017  0.1552 -0.4436
17315W        W35519  10.999   1.943  16.544  0.2311  0.0412 -0.1614
17316W        W35520  14.097   8.079   2.097 -0.2976  0.3543  0.2206
17317W        W35521  16.585   9.924   0.447 -0.2461 -0.2413 -0.2081
17318W        W35522  15.839  10.916   0.107 -0.3010  0.2730  0.2891
17319W        W35523   1.787   8.179  16.963  0.1712  0.3720  0.1190
17320W        W35524  16.630  13.028   1.111 -0.1240  0.1051  0.1021
17321W        W35525   0.977   8.623  13.021  0.1086 -0.1464 -0.1486
17322W        W35526   7.854   1.133  12.203  0.0116  0.3057  0.1162
17323W        W35527   3.942   8.008  13.513 -0.0110 -0.0154  0.3179
17324W        W35528   5.964  16.663   2.499  0.0953 -0.5004  0.0148
17325W        W35529  13.439   3.748  14.062  0.1132 -0.0723  0.0043
17326W        W35530   6.468  15.033  12.387  0.3101 -0.0773 -0.3204
17327W        W35531  15.626   0.410   4.856 -0.1157 -0.2029  0.2058
17328W        W35532  13.377  14.361  14.226  0.0924 -0.0625  0.0774
17329W        W35533  14.001  11.397   4.407 -0.0021  0.2088 -0.1090
17330W        W35534   5.965   3.312  13.007 -0.0824  0.2906 -0.1284
17331W        W35535   5.290  10.674  16.374 -0.1474 -0.2028  0.0265
17332W        W35536  14.460   4.607  15.287 -0.2646 -0.0332  0.1616
17333W        W35537  12.934   0.431  16.133 -0.0240  0.0876  0.0392
17334W        W35538  15.281  14.262   1.645 -0.1187  0.0753 -0.1620
17335W        W35539  13.858   7.349   3.161  0.1219  0.3068 -0.1397
17336W        W35540   9.134   0.902  14.613  0.0674  0.1447 -0.1555
17337W        W35541   7.071  12.574   3.086 -0.0094  0.2937  0.1373
17338W        W35542   7.247  13.093   4.801 -0.1061  0.0337 -0.1772
17339W        W35543  13.295   3.611  17.098 -0.0137  0.0604 -0.1055
17340W        W35544   2.540   9.162   0.571 -0.1833  0.0284 -0.2300
17341W        W35545  16.133  13.746  14.938  0.0032 -0.1245 -0.1379
17342W        W35546   9.812   7.875   1.079  0.1175  0.2364  0.0032
17343W        W35547   5.473  17.023   0.446 -0.0641  0.0116  0.1639
17344W        W35548  10.079  13.534   0.149 -0.0691  0.0351 -0.3068
17345W        W35549   6.866   9.269  16.652  0.0330 -0.0479 -0.1771
17346W        W35550  11.887  14.788   2.500 -0.0274  0.0881  0.1569
17347W        W35551   8.255  12.381  12.447  0.1314  0.3062 -0.3658
17348W        W35552   3.742   2.168   1.055 -0.1043  0.0268 -0.1052
17349W        W35553  10.081  13.637   3.456 -0.1478  0.3694 -0.0437
17350W        W35554   1.840   4.505  13.569  0.0375  0.1177 -0.0095
17351W        W35555   7.372  15.528   0.989  0.1360  0.0796  0.0951
17352W        W35556   6.912   1.112  14.894  0.0013 -0.2286 -0.2185
17353W        W35557  16.018  16.947   1.560 -0.0753 -0.1203 -0.0288
17354W        W35558   6.376  12.030  14.336 -0.0020  0.2431 -0.2162
17355W        W35559  13.280  12.746  17.452  0.4175 -0.1415  0.0908
17356W        W35560   2.518   7.283  12.818 -0.2176 -0.0316 -0.1292
17357W        W35561  15.904  12.089   0.621 -0.1413 -0.0654 -0.4537
17358W        W35562   7.759  15.840   2.931  0.1622 -0.1823  0.1620
17359W        W35563  15.147  10.494   0.285 -0.1005 -0.1201 -0.2282
17360W        W35564  11.689  10.463   2.460 -0.3247 -0.0652  0.1848
17361W        W35565   8.844  16.326  15.908  0.0616  0.0987 -0.0588
17362W        W35566  16.308   1.211   0.222 -0.0739 -0.3489 -0.0318
17363W        W35567  17.244  17.118  14.681  0.2197 -0.1217 -0.0946
17364W        W35568  15.064   6.286  13.254 -0.1327  0.1206  0.1397
17365W        W35569   6.879   1.242  15.873 -0.2151 -0.3154  0.0871
17366W        W35570  13.264  13.538   2.460  0.2665 -0.1885 -0.1275
17367W        W35571   9.720  13.476  15.161  0.1977  0.0198  0.1493
17368W        W35572  11.546  10.794  13.169 -0.1133 -0.2190 -0.1331
17369W        W35573  10.945   6.877  12.096  0.2430  0.1456 -0.1208
17370W        W35574   1.691   3.112  15.167 -0.1769 -0.1931 -0.0200
17371W        W35575   7.561  17.283   5.928  0.0799 -0.0713  0.1779
17372W        W35576   8.862   7.196  12.913  0.2143  0.1145 -0.1320
17373W        W35577   3.898  15.249  13.765  0.1662  0.0827  0.0388
17374W        W35578  16.712  12.220   3.781  0.2076 -0.0969 -0.1806
17375W        W35579  12.251   1.151  17.403 -0.1450 -0.0039 -0.2909
17376W        W35580   1.896  16.509  12.756 -0.0344  0.0860 -0.6224
17377W        W35581  12.671   7.327   0.052 -0.2186  0.0851  0.1649
17378W        W35582   6.780  10.109  15.618 -0.3399  0.0168 -0.0140
17379W        W35583  16.610  15.742   0.517  0.1195  0.0229 -0.0321
17380W        W35584   4.397   3.264   4.356  0.0814 -0.0219 -0.2723
17381W        W35585   3.936   1.959  17.004  0.0189  0.0385  0.1285
17382W        W35586   5.617   0.630   1.945  0.0154 -0.0188 -0.1297
17383W        W35587   4.859   2.191  12.174 -0.3259  0.1657  0.0744
17384W        W35588  15.056  10.587   2.726 -0.3263  0.1556  0.3074
17385W        W35589  13.064  16.547   2.547  0.2458 -0.0479 -0.0170
17386W        W35590  10.828  15.845  15.228 -0.0252  0.1109 -0.0661
17387W        W35591   0.646  11.069  13.166 -0.3047  0.0302  0.0183
17388W        W35592   6.008  11.552   3.201 -0.1048  0.1752 -0.1603
17389W        W35593  17.015  10.000   2.041  0.2152  0.0840  0.1703
17390W        W35594   6.274   3.480   0.540  0.1802  0.0676 -0.0370
17391W        W35595   8.770   7.260  14.629 -0.0036  0.0559  0.0418
17392W        W35596   1.866   0.732  13.583  0.0147 -0.1035  0.2829
17393W        W35597  12.804   8.827   3.269 -0.1656  0.0073  0.0628
17394W        W35598   6.219  16.017  14.897  0.1280  0.0195 -0.0824
17395W        W35599   2.541   6.246  14.470  0.0962  0.1425 -0.2936
17396W        W35600  13.358  10.565  11.971 -0.0178 -0.1031 -0.0914
17397W        W35601   8.665  10.988   2.492 -0.1047 -0.0192 -0.2825
17398W        W35602  13.156  13.119   0.345  0.0013  0.0860  0.2355
17399W        W35603  13.401  14.991   4.183 -0.1063 -0.0997  0.0601
17400W        W35604  11.602   4.874   3.138  0.5038 -0.0323 -0.2439
17401W        W35605  12.366  15.884   4.529 -0.1405  0.0077 -0.1381
17402W        W35606   4.156  10.526   4.042  0.3195 -0.4669  0.0335
17403W        W35607   3.958   8.704  11.059 -0.2761 -0.0084 -0.0777
17404W        W35608   4.137  11.689  14.493 -0.1338 -0.2240  0.1524
17405W        W35609   8.474  11.550  16.993 -0.1121  0.0583  0.0262
17406W        W35610  14.620  14.372  14.153  0.0765 -0.0907 -0.0181
17407W        W35611  13.390   5.897  16.682 -0.1058 -0.0391 -0.1307
17408W        W35612  10.827  10.403   2.402 -0.0134  0.0119 -0.0616
17409W        W35613   4.130  13.324   0.589 -0.0933 -0.0679 -0.0608
17410W        W35614  17.069  12.535   1.719 -0.0345 -0.1530  0.1260
17411W        W35615   0.532   6.628   1.877  0.0734  0.0321  0.1359
17412W        W35616  11.681   6.932  16.640  0.1801 -0.1450  0.0113
17413W        W35617   6.808  12.702  17.056  0.0806 -0.0979 -0.0037
17414W        W35618   7.779  13.124   1.926 -0.0195  0.0804  0.2385
17415W        W35619   7.407   3.307  15.647  0.1363 -0.5078 -0.0778
17416W        W35620   3.795   8.519  17.413  0.1970  0.0419 -0.2756
17417W        W35621   0.931   0.233   5.034 -0.1433  0.2017  0.1538
17418W        W35622  16.434   5.995   4.972  0.1992  0.1953 -0.3804
17419W        W35623  14.032  12.074   4.682 -0.2398 -0.2704  0.0175
17420W        W35624   7.996  11.544   2.168  0.2507 -0.1765  0.0394
17421W        W35625   1.790   9.907   2.921  0.1911 -0.1191 -0.2137
17422W        W35626   5.613  12.333  16.572 -0.2929  0.0310  0.0094
17423W        W35627   3.122  12.609  14.237 -0.1792 -0.1751  0.0589
17424W        W35628  14.697  14.446   4.266  0.0201 -0.0302 -0.0929
17425W        W35629  14.565   2.482   3.842 -0.0371 -0.1836 -0.2988
17426W        W35630   0.234  16.080   0.205  0.1251 -0.0601  0.0848
17427W        W35631   8.876   5.888  14.310 -0.1507  0.0930 -0.0216
17428W        W35632   8.039   5.741   1.857 -0.1133  0.0754  0.3665
17429W        W35633   0.394   3.767   3.112  0.2791 -0.1499 -0.1264
17430W        W35634   4.741  13.558  12.905  0.1863  0.0753 -0.0719
17431W        W35635   6.567  10.473   0.434  0.0451 -0.0200 -0.1799
17432W        W35636   1.918  17.039  13.651  0.0932 -0.0948 -0.0035
17433W        W35637  10.843  13.891   4.873 -0.0694  0.3785  0.0192
17434W        W35638  15.130   0.816   3.779 -0.4259  0.0857 -0.1079
17435W        W35639  11.642  10.752   0.145 -0.1022 -0.2354 -0.0967
17436W        W35640  17.033  10.206   0.517 -0.1067  0.0565 -0.1311
17437W        W35641   4.209  15.245  17.397 -0.3100 -0.3219  0.0219
17438W        W35642   1.124   8.936  12.620 -0.0863 -0.2456 -0.1657
17439W        W35643   7.162   8.754  16.921 -0.1263  0.1962  0.0763
17440W        W35644   5.112   5.713  11.974 -0.0699  0.0977 -0.1447
17441W        W35645  13.694   4.857  14.621 -0.0373 -0.1158  0.0867
17442W        W35646  10.337  11.905   2.848 -0.0611  0.3677  0.2060
17443W        W35647   5.536   0.584   4.696 -0.1266  0.0962 -0.1515
17444W        W35648   4.790   2.028   1.208 -0.1169  0.3719  0.4260
17445W        W35649  17.050   6.029   5.141 -0.3367  0.2587 -0.1650
17446W        W35650   4.545  14.729  16.115  0.2060 -0.0784 -0.3537
17447W        W35651   7.257   2.523   4.030 -0.2430 -0.2924 -0.0798
17448W        W35652   3.757  12.491  16.920 -0.1877 -0.0284 -0.2979
17449W        W35653  14.327   8.609   3.377  0.0077  0.1929 -0.0398
17450W        W35654   3.706   4.255  17.492 -0.1391 -0.1382  0.1777
17451W        W35655  14.736   8.589   3.096 -0.0372  0.1868 -0.0041
17452W        W35656  14.856  15.507  12.587 -0.0948 -0.1022 -0.1311
17453W        W35657  16.358   3.876   3.632  0.0685 -0.0940  0.0663
17454W        W35658  13.481  10.954  13.601 -0.0377  0.1524 -0.0639
17455W        W35659  11.554  13.421  13.400 -0.1322 -0.0513  0.1118
17456W        W35660  10.709   6.648  16.562  0.4917 -0.0233  0.2419
17457W        W35661   1.705  13.850   4.889  0.0262  0.0447  0.1269
17458W        W35662   1.031   4.003  13.754 -0.0007 -0.1979  0.2947
17459W        W35663  16.895  13.419  12.759 -0.3104  0.0407 -0.1840
17460W        W35664   8.023   0.946  13.526 -0.0357  0.0065 -0.0287
17461W        W35665  14.756   4.730  16.114 -0.0638  0.0160  0.3845
17462W        W35666  12.978   2.573   2.621  0.2777 -0.1710 -0.1461
17463W        W35667   0.632   8.000  14.414  0.1994  0.1007  0.1414
17464W        W35668   3.002  12.185   2.798 -0.1074  0.0074 -0.0983
17465W        W35669  15.760   9.346   3.716 -0.0696 -0.0880  0.0629
17466W        W35670   2.868  11.462   5.660 -0.2022 -0.0894  0.1535
17467W        W35671  11.949   4.533   3.257  0.0898 -0.1059  0.2963
17468W        W35672   4.885   3.663  15.586 -0.0027 -0.0250  0.0370
17469W        W35673  14.867   1.197   3.932 -0.0359 -0.1808  0.2895
17470W        W35674  15.362   2.671   2.790  0.0424 -0.0050 -0.0994
17471W        W35675  17.028   3.599  12.584 -0.0718 -0.1630  0.2564
17472W        W35676   2.163   3.458  14.440 -0.1123 -0.0059  0.0082
17473W        W35677   9.684   3.946  11.971 -0.1273 -0.0521  0.0633
17474W        W35678  11.452   2.918   5.317  0.1668 -0.0102 -0.2483
17475W        W35679   1.720  13.353   1.559 -0.1709  0.1847  0.2756
17476W        W35680  11.946   6.819   5.279  0.2647  0.0132  0.1292
17477W        W35681   7.843   9.223  16.725 -0.2726  0.0896 -0.1079
17478W        W35682  11.470   5.204   1.138 -0.2457 -0.2296 -0.2241
17479W        W35683   6.044   2.339  12.935 -0.1284 -0.3778  0.0257
17480W        W35684   0.196   3.738  13.490 -0.0208  0.0364 -0.0401
17481W        W35685   3.723   0.382  16.101 -0.4183 -0.1589  0.0956
17482W        W35686   4.556  14.848   2.711 -0.2662  0.0257 -0.0121
17483W        W35687  11.654   6.176   0.936 -0.0018  0.1154  0.0226
17484W        W35688  12.522  12.210   4.860 -0.1474 -0.0611 -0.1505
17485W        W35689  16.823  13.759   2.611  0.0496 -0.0687 -0.0920
17486W        W35690   3.931  12.526   5.383 -0.0724 -0.1271  0.4525
17487W        W35691   2.594   2.384  12.732 -0.0571 -0.1351  0.2442
17488W        W35692   6.957  12.931  15.115  0.1877  0.1121  0.0199
17489W        W35693   6.341   6.084   0.555  0.0947  0.0998  0.2172
17490W        W35694  10.047  11.360   4.229  0.2797  0.1156  0.0565
17491W        W35695   9.413   9.314   5.034 -0.2588  0.1816 -0.1128
17492W        W35696  14.742   2.689   4.650 -0.1454 -0.1748 -0.1037
17493W        W35697  13.060   1.426   2.288  0.1800 -0.0279 -0.2174
17494W        W35698   5.523   0.973   0.460 -0.2383 -0.1117 -0.1804
17495W        W35699   0.211   1.543   2.771 -0.1891 -0.0581 -0.0574
17496W        W35700   2.637   3.982   5.147  0.1152 -0.0290  0.0826
17497W        W35701  10.426  14.504   0.151 -0.1446  0.0857  0.1503
17498W        W35702  12.729  12.894   3.867 -0.1434 -0.0863  0.0839
17499W        W35703   2.249  13.349   0.144 -0.2741  0.1823 -0.1698
17500W        W35704   1.214   0.148  16.722 -0.0293  0.1439  0.0963
17501W        W35705  10.890   8.249   4.531 -0.0527  0.0038  0.0481
17502W        W35706  15.168  13.713  14.576 -0.0473  0.0877 -0.2320
17503W        W35707  12.568  17.186  14.666  0.1073  0.3456 -0.1209
17504W        W35708  11.571   4.669  16.461 -0.0659  0.0265  0.0714
17505W        W35709  15.573   0.137  14.817 -0.3219  0.3526  0.1011
17506W        W35710   2.885  15.068   1.092 -0.0066  0.3016 -0.0008
17507W        W35711   4.189   9.373   1.166  0.1755  0.2634  0.1506
17508W        W35712   0.768  15.979   1.030  0.0898 -0.1145 -0.0678
17509W        W35713  17.166   9.949  14.018  0.0730 -0.2058 -0.0531
17510W        W35714   0.019  14.828  16.930  0.0256  0.1966  0.1927
17511W        W35715  10.276   7.557  13.440 -0.0435  0.0177 -0.1975
17512W        W35716   8.408  16.110  12.677 -0.0513  0.0411  0.1051
17513W        W35717   0.968   0.776  15.743  0.3665  0.0040  0.4600
17514W        W35718   0.883   1.411  15.129  0.0910  0.0288 -0.1046
17515W        W35719   2.876  13.819  13.659 -0.0693  0.3889 -0.1310
17516W        W35720   7.338  12.497  13.294  0.0521  0.1514  0.0483
17517W        W35721   9.807   9.491   4.782 -0.0068  0.0485  0.0597
17518W        W35722  10.336  12.829  17.309  0.1735 -0.1351  0.0173
17519W        W35723   6.693   6.602   0.574  0.2009 -0.2309  0.1296
17520W        W35724   0.986  10.941  13.511 -0.1193  0.1974 -0.3017
17521W        W35725  14.872   7.170   0.477  0.1357 -0.1985 -0.0652
17522W        W35726   8.864   4.824  16.916  0.0823 -0.1085  0.0993
17523W        W35727  10.017  12.464   5.851 -0.1403 -0.2049  0.0156
17524W        W35728  11.068  12.608   4.399  0.0148 -0.0390  0.0804
17525W        W35729   3.103   8.044   3.407  0.0001  0.0221  0.2408
17526W        W35730   6.978   9.866  12.267  0.0408  0.0506 -0.4408
17527W        W35731   2.004   1.678  14.648  0.1259 -0.0889  0.0347
17528W        W35732   7.833   9.407  12.431  0.4646  0.1354 -0.0277
17529W        W35733  14.870  16.422   2.173  0.1590  0.5401 -0.0552
17530W        W35734  12.559   9.641  16.982  0.0537  0.1253  0.1312
17531W        W35735   5.531   5.676  15.026 -0.5239  0.2434 -0.1597
17532W        W35736  11.022   2.219   3.587  0.0058  0.1354  0.1532
17533W        W35737  11.479   8.128   0.146  0.0043 -0.3583  0.4452
17534W        W35738   1.443  11.325   3.085  0.0257 -0.1153 -0.1976
17535W        W35739   0.449   4.526   3.670 -0.2196  0.0058  0.1172
17536W        W35740   6.171  11.059   1.251 -0.1574 -0.0562 -0.0886
17537W        W35741  15.137  15.626   0.116 -0.1839  0.2241 -0.0218
17538W        W35742   2.751  16.990  17.055  0.1486 -0.1498  0.0621
17539W        W35743  17.023  15.902   4.245  0.1386  0.2062  0.2212
17540W        W35744  16.697   1.980   4.013 -0.1187 -0.1287  0.0630
17541W        W35745  15.478   8.334   3.696  0.1764  0.1544  0.1728
17542W        W35746   9.356   0.057  16.525 -0.2790  0.3418  0.0526
17543W        W35747  13.454   6.367  11.452  0.0943  0.0343 -0.5263
17544W        W35748   1.589   7.166  12.662  0.1316  0.2286 -0.0455
17545W        W35749   2.629   2.083  13.203  0.3706  0.0688  0.0723
17546W        W35750  13.882   2.006   0.190 -0.0661 -0.1809  0.0714
17547W        W35751  13.839  16.844  16.183 -0.0111  0.0830 -0.0457
17548W        W35752   8.572   5.932   4.101 -0.1115 -0.1079 -0.2275
17549W        W35753   0.233   7.099   4.059  0.1740  0.2836 -0.0645
17550W        W35754  12.864   5.130  16.567 -0.2447  0.3303  0.1428
17551W        W35755  15.172   3.666   0.729  0.1726 -0.2118  0.0680
17552W        W35756   5.803  12.132  12.378  0.1325 -0.0598  0.1536
17553W        W35757  15.271   8.015  13.347  0.2856  0.0887 -0.1396
17554W        W35758   7.484  16.845  14.251  0.0597 -0.3151  0.3408
17555W        W35759  13.737  16.828  15.246  0.0136  0.3224  0.1745
17556W        W35760   5.845  10.408   4.554 -0.0891  0.0170 -0.1547
17557W        W35761  16.458   2.344  11.649 -0.3467  0.1520 -0.0128
17558W        W35762   0.292   0.886   5.290  0.0333  0.1248  0.1001
17559W        W35763   4.627   0.315  13.896 -0.0942  0.2049 -0.1585
17560W        W35764  15.351   5.522  14.226  0.3936  0.1291  0.1801
17561W        W35765   7.953   2.314  15.283 -0.3540 -0.0945 -0.0848
17562W        W35766   5.561   1.593  15.849  0.2255  0.0652  0.0455
17563W        W35767   8.532  11.094  11.748 -0.3230  0.2417  0.0166
17564W        W35768   6.616   7.291  12.153  0.2138 -0.0578 -0.0880
17565W        W35769   2.508  15.147  17.173  0.2136  0.0296 -0.0060
17566W        W35770   4.793   1.563   0.036  0.1881 -0.1316 -0.0286
17567W        W35771   1.242  17.039   4.161  0.0932  0.0061 -0.1183
17568W        W35772   0.740   8.379   3.528 -0.2224  0.1280  0.1627
17569W        W35773   6.715   5.697  16.847 -0.1244 -0.3286 -0.0158
17570W        W35774   0.537  14.351  15.004 -0.2091  0.0748  0.2955
17571W        W35775  15.366   4.411   2.074  0.1253 -0.0252 -0.0040
17572W        W35776   9.656   4.875  13.207 -0.1464  0.2954 -0.0386
17573W        W35777   6.306   7.750  14.385  0.1215 -0.1570 -0.0403
17574W        W35778  17.194   7.337   0.926  0.0325  0.0053  0.1518
17575W        W35779   6.666  16.258  12.508 -0.0532 -0.1562  0.0011
17576W        W35780   1.459   7.728   4.596 -0.1374  0.0709  0.2402
17577W        W35781   7.258  13.928  14.595  0.0490 -0.3582  0.0167
17578W        W35782   5.137   0.725   1.820 -0.0852  0.0273 -0.1598
17579W        W35783  13.143   9.642   2.919 -0.1023 -0.1122  0.2499
17580W        W35784   1.946  12.881   4.052  0.0326  0.1472 -0.1397
17581W        W35785   8.183   0.213   1.601  0.0199 -0.0642 -0.0327
17582W        W35786   3.105   6.256  16.289 -0.1693  0.2179 -0.0640
17583W        W35787   7.339  10.698   6.163  0.0993 -0.0354  0.0468
17584W        W35788   7.419  15.849  17.080  0.0243 -0.1833  0.0950
17585W        W35789   6.663  15.843   5.477  0.0133  0.0283 -0.5252
17586W        W35790  14.176  14.045  16.558 -0.0473  0.2033  0.1429
17587W        W35791   7.488  10.764  15.649  0.0766  0.1753  0.0624
17588W        W35792  13.593   4.155  15.519  0.0766  0.1965  0.3171
17589W        W35793  16.965  16.434  14.736  0.0791 -0.4061 -0.0066
17590W        W35794   7.524   2.958   2.901 -0.0134 -0.1550 -0.0077
17591W        W35795  14.200  15.385  14.945 -0.0661  0.0007  0.0821
17592W        W35796   9.240   0.649   4.753 -0.0478 -0.0235 -0.0574
17593W        W35797  15.498   3.155   4.856 -0.2140 -0.1274 -0.1180
17594W        W35798   2.792   3.502   5.397 -0.1551  0.1408 -0.2486
17595W        W35799   2.686  14.431  15.732  0.0799 -0.3128 -0.2774
17596W        W35800  15.733  13.368   4.620  0.1736  0.1099 -0.1532
17597W        W35801   8.650  16.601   3.549  0.0934 -0.4192 -0.0148
17598W        W35802  12.896  10.779   3.985 -0.3537  0.1737  0.1708
17599W        W35803  12.550  12.988   1.430  0.0334  0.1405  0.0284
17600W        W35804  14.864  10.264   3.970 -0.0746  0.0460  0.0211
17601W        W35805   2.904   8.472   1.288  0.0727  0.1002  0.0235
17602W        W35806   8.380   6.726  15.439  0.1797 -0.0301 -0.0158
17603W        W35807  14.472  11.182  17.441 -0.1032 -0.2544  0.0275
17604W        W35808  16.976   5.819   1.590 -0.0254  0.0898 -0.3627
17605W        W35809  14.803   5.934   3.065  0.1068  0.2033  0.0607
17606W        W35810  15.860   7.691   4.325  0.4415  0.0954 -0.1262
17607W        W35811  14.024  13.603  13.188  0.0924 -0.0392  0.1059
17608W        W35812  16.442  11.734   4.670 -0.0528  0.0714  0.1079
17609W        W35813  15.194   7.256   5.319 -0.2601  0.2821  0.0340
17610W        W35814   8.763  14.282   1.303 -0.0738  0.2039  0.0775
17611W        W35815  11.947   2.175  14.298 -0.0968 -0.1696 -0.1212
17612W        W35816   8.458   7.088   2.229  0.1814 -0.1956  0.1539
17613W        W35817  17.117   7.503   2.911  0.2694  0.0659 -0.0548
17614W        W35818   1.476   4.732  12.784  0.0889 -0.2465  0.2780
17615W        W35819   0.559  15.105  16.743 -0.2493 -0.1582 -0.0893
17616W        W35820  12.412  14.894   2.531 -0.0058  0.1877  0.0553
17617W        W35821   3.188  16.714   3.917  0.0988  0.1924 -0.0157
17618W        W35822   8.721   2.321   2.008  0.0759 -0.4549 -0.1736
17619W        W35823   2.052   5.811  14.970  0.1093  0.0246  0.0317
17620W        W35824   4.082   5.502   1.019  0.0412  0.0701  0.1879
17621W        W35825  15.142   4.530   4.968 -0.1359  0.2927 -0.1638
17622W        W35826   2.465  14.433  13.555 -0.1269 -0.2870 -0.0581
17623W        W35827   0.429   2.534   3.650  0.0758 -0.5468 -0.2404
17624W        W35828  16.088   1.606   4.746  0.0161  0.2296  0.0432
17625W        W35829   6.435   5.155   4.309 -0.2075 -0.1663 -0.2636
17626W        W35830  13.951  12.058  14.906 -0.1221  0.0618 -0.1137
17627W        W35831   3.105   8.330   4.686 -0.0559  0.0900 -0.1399
17628W        W35832  10.293  12.578  14.937 -0.2501 -0.2138  0.0685
17629W        W35833   4.611   9.551   5.028 -0.1279  0.2061 -0.1397
17630W        W35834   9.272   4.120  13.731 -0.0364  0.0870  0.1438
17631W        W35835  16.338  13.858  14.545 -0.2021 -0.1963  0.0108
17632W        W35836  15.853   0.816   1.760 -0.0505 -0.2549  0.0530
17633W        W35837   1.184  10.907   5.207 -0.0698 -0.1272  0.0534
17634W        W35838  16.908   8.301  11.919  0.1346 -0.3274  0.0482
17635W        W35839  14.040  16.314   5.467 -0.1690 -0.2319 -0.0053
17636W        W35840   6.423   8.534  12.854 -0.1209 -0.0241 -0.1495
17637W        W35841  14.822  13.831  15.149  0.0229  0.0095  0.2581
17638W        W35842   7.772  17.171  11.979 -0.1129 -0.1173  0.0370
17639W        W35843   3.498   9.052   0.762 -0.1095  0.1721 -0.0668
17640W        W35844  14.735   2.149   2.044 -0.1270 -0.2032  0.3379
17641W        W35845  11.561  11.111   4.583 -0.0046 -0.1932 -0.1525
17642W        W35846  12.542   1.777   1.692 -0.1814 -0.2049  0.3314
17643W        W35847   5.668   7.341   1.538 -0.0809 -0.2762 -0.1391
17644W        W35848   5.640   7.557   4.144 -0.0537  0.1462  0.0385
17645W        W35849   7.006   2.250   1.447 -0.0606 -0.3534  0.2443
17646W        W35850  12.728   1.642  15.970  0.0702  0.1058 -0.2680
17647W        W35851   2.747   5.746  17.487 -0.1097  0.0281  0.1082
17648W        W35852   6.558  16.080   4.155  0.0048  0.2052  0.0508
17649W        W35853   4.964  13.821   5.245 -0.1321  0.5442  0.0545
17650W        W35854   6.107  14.790  12.096 -0.1155 -0.2486  0.0156
17651W        W35855  10.353   4.088   2.474  0.0023 -0.1897  0.1672
17652W        W35856  11.023   5.246  12.670  0.0883  0.0085  0.1234
17653W        W35857  12.619  11.607   0.736 -0.0987  0.1540 -0.0271
17654W        W35858   0.785  12.149  15.985 -0.0559  0.0687 -0.1231
17655W        W35859   8.839   4.824   2.321  0.1751 -0.0338 -0.0127
17656W        W35860  12.205   8.579  13.570 -0.0845 -0.1782  0.0433
17657W        W35861   0.147   5.141   4.936  0.2314 -0.1252  0.1289
17658W        W35862  14.786  16.272   3.294  0.0251 -0.5419  0.0011
17659W        W35863  16.005  14.235   3.672  0.1492  0.0619  0.1938
17660W        W35864   3.253   3.172   3.455 -0.0112 -0.3222 -0.1926
17661W        W35865  15.246  12.281  12.551  0.0494  0.1261 -0.1869
17662W        W35866  12.647   0.827  16.767 -0.1210 -0.0220  0.0781
17663W        W35867  15.419  14.698  13.703 -0.0142  0.2126 -0.0794
17664W        W35868   2.992   2.604  14.049 -0.0304  0.0132  0.0748
17665W        W35869   3.601   7.428   2.932  0.0523  0.0558  0.0094
17666W        W35870   7.468  17.221   0.811 -0.1754 -0.0751 -0.1085
17667W        W35871   4.507   1.933   2.542  0.0936  0.1109  0.1310
17668W        W35872  12.054   7.790  13.960 -0.3928  0.1129  0.2902
17669W        W35873   4.434  12.528   1.397 -0.1497 -0.0872  0.0714
17670W        W35874   1.762   7.231  12.118 -0.0193 -0.2531 -0.1038
17671W        W35875   7.494   4.513  16.352  0.2955 -0.2943 -0.0989
17672W        W35876   1.264   0.298   1.748 -0.1555 -0.0657  0.3128
17673W        W35877   4.058   7.315  13.065 -0.0224  0.0037 -0.1186
17674W        W35878   2.198   6.960  14.089 -0.0429  0.3725  0.0427
17675W        W35879   7.432   6.289  13.996 -0.4655 -0.0902  0.2101
17676W        W35880   4.519   9.643   1.975 -0.1174  0.0354 -0.2096
17677W        W35881  13.381   0.789  16.129  0.1019  0.0557  0.5545
17678W        W35882   2.764  16.557  13.524 -0.2905  0.0966  0.2494
17679W        W35883  14.986   6.042  17.203 -0.0516  0.0163  0.0030
17680W        W35884  17.225  14.499  15.566  0.0230 -0.5067  0.0721
17681W        W35885  16.408  12.817  16.066 -0.0566 -0.1303  0.4178
17682W        W35886  16.716   3.819   3.203  0.2971  0.0973 -0.2360
17683W        W35887  12.906  13.826  14.658  0.1846 -0.0481 -0.0763
17684W        W35888   0.426  13.757  12.432 -0.2485 -0.0969 -0.1547
17685W        W35889   0.800  15.179   4.680  0.0948  0.1688 -0.1163
17686W        W35890  11.654  14.410  16.395  0.2143 -0.0834 -0.0194
17687W        W35891   7.905  16.659  15.636  0.0536  0.0453 -0.1248
17688W        W35892  12.691   1.178   3.576 -0.0893 -0.0021 -0.1871
17689W        W35893   0.134   9.361   2.871 -0.3129 -0.0235 -0.0134
17690W        W35894   9.666   2.927   4.662  0.0196  0.0130 -0.0521
17691W        W35895   1.620  16.022  13.531 -0.0736 -0.2512  0.3516
17692W        W35896  14.567  14.959   3.516 -0.0616  0.1028 -0.2289
17693W        W35897   9.015  16.896  14.067  0.3076  0.0064  0.3834
17694W        W35898  10.137   3.342   3.910  0.2093  0.1063  0.3419
17695W        W35899  17.110   7.820  15.465  0.1175 -0.0769 -0.1182
17696W        W35900  12.200   6.710   1.282 -0.0621 -0.2603 -0.0075
17697W        W35901  12.739   8.515  13.473  0.0265  0.3790  0.0566
17698W        W35902  10.712   3.727  11.779 -0.2623  0.0986 -0.0419
17699W        W35903  12.568  12.182  16.918  0.0623 -0.4844 -0.1203
17700W        W35904  13.886  16.399   1.382 -0.0157 -0.0609  0.1239
17701W        W35905  17.168  10.439   1.901 -0.0738 -0.1350  0.0954
17702W        W35906   8.675   0.136   2.238 -0.0662 -0.0731  0.1178
17703W        W35907  16.750  16.040   3.179  0.0428 -0.0499  0.1630
17704W        W35908   4.339   2.896   1.413 -0.3301 -0.2106  0.0382
17705W        W35909  14.985  13.489  12.915 -0.1461  0.0005  0.2300
17706W        W35910  11.004  11.170  14.533 -0.0734  0.1349 -0.2829
17707W        W35911  13.968  14.957  16.483 -0.0440  0.1091  0.1164
17708W        W35912  16.741   2.274  13.824  0.0590  0.0431 -0.0047
17709W        W35913   9.969  11.230  13.719  0.0281 -0.0257 -0.2585
17710W        W35914  16.253   0.131   3.144 -0.0641 -0.1495 -0.1947
17711W        W35915   0.373   0.090  15.342  0.1271  0.5106 -0.1613
17712W        W35916  11.539   2.292  16.014 -0.3739 -0.0791  0.0242
17713W        W35917   7.367  12.630  15.156  0.1913 -0.0017  0.1514
17714W        W35918   3.807   7.068  16.655 -0.3372  0.1413  0.0330
17715W        W35919  15.497   2.175  17.209  0.0392 -0.0031  0.1505
17716W        W35920   6.690  15.591   3.139 -0.0572 -0.2480  0.1826
17717W        W35921   0.373   6.490  17.254  0.1800 -0.1259 -0.2210
17718W        W35922  13.858  15.895   4.301 -0.1851  0.0302 -0.1622
17719W        W35923   0.435  14.078  16.695  0.0856 -0.1212 -0.0052
17720W        W35924   2.139   8.993  12.528 -0.1147 -0.2909 -0.0654
17721W        W35925  14.057   6.364   6.354 -0.2633  0.0093  0.1135
17722W        W35926  10.459  10.638   3.152  0.0461  0.1232 -0.1222
17723W        W35927   5.172   0.892  12.905  0.0012 -0.2356  0.0574
17724W        W35928   2.238  13.374   5.285  0.0788 -0.2947  0.0106
17725W        W35929   5.726   4.838   2.028  0.0478 -0.0802  0.4543
17726W        W35930   0.405   3.229  12.727  0.3699 -0.1029  0.2318
17727W        W35931   9.465  11.479   2.584 -0.1954  0.0436 -0.0387
17728W        W35932   1.680   6.668   1.363 -0.1324  0.4155 -0.0126
17729W        W35933   7.212   9.294  16.259 -0.1223  0.0179 -0.0032
17730W        W35934  11.294  11.087  17.005  0.2423  0.1759  0.2494
17731W        W35935   0.681   0.482  17.243 -0.2611 -0.1153  0.0790
17732W        W35936  17.130   1.833  17.190 -0.2072  0.0410 -0.5175
17733W        W35937   3.295   6.353  16.727  0.2352  0.2552  0.1165
17734W        W35938   0.219  14.581   2.361 -0.2639 -0.2443  0.1826
17735W        W35939   1.294   3.183   1.906  0.0319 -0.1475 -0.3190
17736W        W35940  15.321   4.136  12.510 -0.1242  0.1058 -0.2298
17737W        W35941  16.265   8.698   3.053  0.3598  0.2438  0.1578
17738W        W35942   3.670  10.760   4.868  0.1110 -0.2206  0.2190
17739W        W35943  15.985   0.955  16.874  0.0885 -0.2393 -0.0981
17740W        W35944  16.302  11.312   2.348 -0.0754  0.1496  0.6294
17741W        W35945   9.046   3.784  14.033 -0.0860 -0.1013 -0.1205
17742W        W35946   0.714   6.513  14.353 -0.1530  0.1413 -0.2331
17743W        W35947   7.485   0.435   2.172 -0.1199 -0.2607 -0.0843
17744W        W35948  12.677   4.153  16.270  0.3151 -0.0721 -0.0810
17745W        W35949   6.620  14.874  13.630 -0.0233  0.0735  0.1082
17746W        W35950  11.654   3.732   5.093  0.1912  0.0639 -0.2320
17747W        W35951   2.729  17.056   3.242  0.1395  0.1156  0.0521
17748W        W35952   1.636  10.439  17.353  0.4308 -0.3654 -0.0788
17749W        W35953  11.328   3.615  16.105  0.1530  0.0040  0.3676
17750W        W35954   7.102  13.711   0.395  0.1886  0.2340 -0.2418
17751W        W35955  10.093   8.843  15.057  0.1264  0.0733 -0.2194
17752W        W35956   5.281  10.870   0.903 -0.2177 -0.1985  0.1260
17753W        W35957  15.659  12.637   2.465 -0.1966  0.1035  0.0384
17754W        W35958  14.871   6.265   3.792  0.2134  0.0829 -0.0846
17755W        W35959   9.620   7.719  12.076  0.0060  0.0652 -0.0830
17756W        W35960   5.372  15.868   1.784 -0.0712  0.1036  0.0872
17757W        W35961   5.768  10.310   3.225 -0.3036 -0.1651  0.4988
17758W        W35962  15.800  11.323  16.919 -0.0179  0.4669 -0.0712
17759W        W35963  13.100   6.102  15.948  0.1943 -0.0305  0.2122
17760W        W35964   4.071   2.947   3.202  0.3445 -0.0020  0.0344
17761W        W35965  12.312  15.640  12.773  0.2302  0.1019  0.1127
17762W        W35966  12.692   3.004   0.500 -0.2224 -0.2140  0.0322
17763W        W35967  11.417   2.333   3.183 -0.0299 -0.1144  0.2800
17764W        W35968   3.437   7.618   3.393  0.0858 -0.0445 -0.2000
17765W        W35969   2.674  11.691  16.415  0.1171 -0.3772  0.1004
17766W        W35970  13.618   2.902   1.364 -0.1678 -0.0048 -0.1330
17767W        W35971   3.998  15.899  14.486 -0.0553  0.0875 -0.3153
17768W        W35972   9.980  14.998  15.963 -0.2308 -0.0569 -0.1752
17769W        W35973  10.231  15.284   1.721 -0.3456  0.0286  0.0348
17770W        W35974   8.408  16.561  17.226 -0.0364  0.1179 -0.0554
17771W        W35975   1.765  11.604   5.211  0.0798 -0.0624 -0.0714
17772W        W35976  10.493  11.255  17.497 -0.2666  0.0972 -0.2650
17773W        W35977   1.177   9.566  17.306 -0.1476 -0.0167  0.3243
17774W        W35978  11.098   1.669   0.567 -0.2059  0.0553  0.0131
17775W        W35979   4.961   8.496   0.745 -0.1301  0.1043  0.1348
17776W        W35980  10.120  11.821  12.379  0.0898 -0.0455 -0.3636
17777W        W35981  12.204  12.490   1.615 -0.0296  0.0433 -0.0425
17778W        W35982   7.058   4.235   1.045  0.1526  0.3132 -0.0158
17779W        W35983   1.022  12.663   4.195  0.0018  0.3110 -0.0010
17780W        W35984  16.629  12.069  17.499  0.2163  0.1599  0.1428
17781W        W35985  15.382   4.446  13.014  0.0963 -0.0967  0.3321
17782W        W35986  13.114  15.597   5.123  0.0459  0.2070 -0.0668
17783W        W35987   9.704   3.238  15.504  0.0614  0.1203 -0.1749
17784W        W35988   1.884   3.835   1.608  0.2081  0.2471 -0.0078
17785W        W35989  16.168   8.074   4.300 -0.0296 -0.2066  0.1613
17786W        W35990   5.305   2.543   3.802 -0.1838  0.0513  0.1965
17787W        W35991   0.175   9.185   4.516  0.4099 -0.1378 -0.0371
17788W        W35992  12.063   6.447   3.425 -0.1240 -0.1200 -0.2268
17789W        W35993   1.101   2.999   2.391 -0.2482  0.0604  0.2557
17790W        W35994   1.009   2.722   2.839 -0.2600 -0.1609 -0.1879
17791W        W35995  12.496  11.561  16.006  0.1053  0.2300 -0.3439
17792W        W35996   0.020  11.299   6.043 -0.2786 -0.0072 -0.0679
17793W        W35997  14.430   5.705  14.838  0.2338 -0.0699  0.0006
17794W        W35998   0.755   5.759  12.472 -0.1160  0.1636  0.1648
17795W        W35999   2.452   0.590   1.080 -0.0870 -0.0141  0.1010
17796W        W36000  16.739   4.061  13.405 -0.3786 -0.0612 -0.2252
17797W        W36001  16.536   7.289  12.477  0.1411 -0.1751 -0.0491
17798W        W36002   3.258  14.448   3.789  0.2636 -0.0925  0.0927
17799W        W36003   8.381  10.798   3.336  0.2199 -0.0057  0.4674
17800W        W36004   0.651   0.816   3.963  0.1726  0.0484 -0.1875
17801W        W36005   0.919   9.007   4.175  0.0170  0.0865 -0.0602
17802W        W36006   8.761  10.153   5.007 -0.0675  0.0931  0.2379
17803W        W36007  11.816  17.128  12.708  0.4300  0.1178 -0.1020
17804W        W36008   8.325   0.984   2.108 -0.2330  0.0672 -0.0572
17805W        W36009   3.192   0.523  14.118  0.1460 -0.2744  0.2414
17806W        W36010  15.491   3.692  12.753  0.2397 -0.0448 -0.1562
17807W        W36011  11.814  16.112   2.850  0.2791  0.0572  0.0199
17808W        W36012  14.132   4.114   4.799  0.2912  0.0498 -0.1114
17809W        W36013  15.244  12.419   5.528 -0.1310  0.2870 -0.0016
17810W        W36014   5.618   2.343   1.668  0.1128 -0.0181  0.2858
17811W        W36015   2.214  14.150  15.566  0.1364  0.1875 -0.0823
17812W        W36016   2.461   6.809   5.526 -0.4974  0.2290 -0.0455
17813W        W36017  10.505  15.810   1.394  0.0055  0.3409  0.0683
17814W        W36018   1.511   5.651  15.129 -0.1048  0.0005  0.1609
17815W        W36019   1.513  13.572  15.580 -0.2397 -0.0481 -0.0711
17816W        W36020   7.935  16.262  17.194  0.1812  0.1269  0.3993
17817W        W36021   8.175  12.366  15.192  0.3288 -0.3525 -0.3523
17818W        W36022   1.713   7.579  16.864  0.2181 -0.0387 -0.0025
17819W        W36023  15.005  14.692   2.629 -0.1595 -0.1479 -0.1579
17820W        W36024  16.131  16.183  17.485  0.0054  0.0487  0.1470
17821W        W36025  10.823  16.844   4.808  0.1913  0.0765  0.0960
17822W        W36026   4.625   9.735  15.744  0.0817  0.1178 -0.0882
17823W        W36027  12.667  16.003  12.759 -0.0834  0.2944 -0.2991
17824W        W36028  15.031   2.298   2.947  0.0536  0.2357  0.0359
17825W        W36029  12.195   2.519  15.201 -0.0015  0.0998 -0.1581
17826W        W36030   5.100   2.380  13.630 -0.0526 -0.0770  0.0256
17827W        W36031   8.622  15.873   0.310 -0.1749  0.0103 -0.1736
17828W        W36032  16.581   7.533   1.523 -0.0999 -0.1901 -0.2122
17829W        W36033   5.325   6.366   2.919 -0.1249 -0.2051  0.1936
17830W        W36034  13.703   8.576   4.543 -0.1453  0.0262  0.0223
17831W        W36035  16.452   8.336   0.410 -0.0326 -0.1072  0.0949
17832W        W36036  11.944  14.100  12.297  0.0463  0.0855  0.0069
17833W        W36037  12.124   0.364   1.361  0.0992 -0.3016  0.3597
17834W        W36038   4.649   8.554   4.785  0.0815 -0.0727 -0.2808
17835W        W36039   8.646   5.056  12.219 -0.4681 -0.0370  0.1950
17836W        W36040   5.409   6.166  16.963  0.3374  0.2263  0.3147
17837W        W36041   3.763   9.217  12.572  0.1375 -0.0005 -0.3359
17838W        W36042  13.776  15.700  17.200 -0.1067 -0.1796  0.0907
17839W        W36043  13.549  12.143  13.812  0.2676  0.4024  0.2112
17840W        W36044   7.771  12.419   3.744  0.0251 -0.1006 -0.1947
17841W        W36045   0.649   5.202  15.136 -0.0360 -0.2181  0.2052
17842W        W36046   2.819  13.665   3.680  0.3392  0.2048 -0.2831
17843W        W36047   1.396  11.582   1.098  0.0841  0.0523  0.2009
17844W        W36048  12.290  13.940  12.697 -0.0025 -0.0306 -0.0676
17845W        W36049  16.190  11.213   4.640  0.1554  0.0638 -0.1465
17846W        W36050   8.881   9.351  16.557  0.0146  0.1152  0.1306
17847W        W36051   4.640   4.302   3.671  0.0201  0.0070  0.3061
17848W        W36052   3.382   8.565  17.094  0.4335 -0.1787  0.0458
17849W        W36053  12.031   9.568  16.208 -0.0629  0.1026  0.0489
17850W        W36054   8.149  13.788   4.665  0.5343  0.1479  0.1126
17851W        W36055  12.341  11.978  16.342 -0.0391 -0.2092  0.1253
17852W        W36056   9.859  13.621   5.075  0.1103  0.0421 -0.1109
17853W        W36057   0.291  12.307   1.447  0.0283  0.0474  0.1121
17854W        W36058  11.423   1.746  14.858 -0.1349 -0.2409  0.0709
17855W        W36059  10.596   4.995   3.018 -0.0495 -0.2827 -0.0094
17856W        W36060   8.004  12.909  16.115  0.0327  0.4388  0.1201
17857W        W36061  15.933   9.055  14.670  0.2418  0.3631 -0.2849
17858W        W36062  11.288   6.125   3.727 -0.0036  0.1175  0.3026
17859W        W36063   9.540   7.241  11.952 -0.0794 -0.2473  0.2913
17860W        W36064  15.353  15.483  16.385  0.0122 -0.0744 -0.0685
17861W        W36065  14.209  12.261  14.527  0.1562  0.1274 -0.0805
17862W        W36066   9.286   8.078  13.023 -0.1606 -0.0587  0.0131
17863W        W36067   5.995   9.112   2.658  0.0448 -0.0346  0.2350
17864W        W36068   8.388   7.583   2.157  0.0223  0.0802  0.2579
17865W        W36069  10.388   6.240  12.190 -0.4389 -0.1775  0.0210
17866W        W36070   1.931  12.256  12.860 -0.0947 -0.1480 -0.0909
17867W        W36071  15.027  13.603  14.039  0.1159 -0.1271  0.3507
17868W        W36072   0.608   6.966  14.036  0.0767 -0.0381 -0.1577
17869W        W36073   9.847   7.045  16.577 -0.0938 -0.2101 -0.0354
17870W        W36074   1.297   9.126  17.181  0.2027 -0.1185  0.2527
17871W        W36075   4.834   0.428   2.649 -0.1459  0.0019  0.1290
17872W        W36076   0.979  12.035  12.967  0.0620 -0.0402 -0.1226
17873W        W36077   3.188   1.245   0.120 -0.0881  0.1848 -0.1546
17874W        W36078  14.711   9.656   1.133 -0.6161  0.0421 -0.2424
17875W        W36079   6.938   6.164  13.097  0.1093 -0.1174  0.1017
17876W        W36080  16.058  15.453   1.966 -0.0731  0.0306  0.0159
17877W        W36081   1.125   5.061  11.818 -0.0749  0.4382  0.0680
17878W        W36082   7.839  11.614   1.694 -0.2421  0.1716  0.0104
17879W        W36083  15.133  15.669   1.884 -0.1869 -0.2626 -0.2170
17880W        W36084   7.249   9.441   4.367  0.1193  0.0552  0.1329
17881W        W36085   7.648  13.313   3.470  0.1693  0.1496  0.1948
17882W        W36086   6.656  12.407   4.367  0.0234 -0.0030  0.0933
17883W        W36087  13.677   9.336  13.156  0.0904  0.1508 -0.2016
17884W        W36088   8.799  11.079  14.384  0.0073 -0.2369 -0.1957
17885W        W36089   3.478  14.646  16.094  0.1439 -0.1553  0.0212
17886W        W36090  10.565   3.652   0.872  0.1626 -0.1191 -0.3961
17887W        W36091   5.868   3.703   0.129 -0.1645 -0.4467 -0.1399
17888W        W36092   0.370   4.488   2.346  0.0098 -0.1465 -0.1284
17889W        W36093   1.318   1.177   1.376 -0.0641  0.1498 -0.1614
17890W        W36094  10.514  10.370  13.533  0.1875  0.1011  0.0571
17891W        W36095   1.968  10.806   1.373 -0.2945 -0.0867  0.1328
17892W        W36096   7.794   3.868  16.923  0.2761  0.2044  0.0623
17893W        W36097   1.513   1.689   4.488  0.1898  0.1958 -0.0664
17894W        W36098   1.825   3.697   2.670 -0.0503  0.1217 -0.1092
17895W        W36099   8.897  14.898  14.484  0.2510  0.0184  0.0074
17896W        W36100   2.380  10.592  16.327 -0.0588  0.0369  0.0398
17897W        W36101  15.811   2.091  13.686 -0.0848  0.0638 -0.0577
17898W        W36102  16.824   3.075  14.934  0.1235 -0.0496 -0.0287
17899W        W36103  10.576  10.328  17.069 -0.0778  0.0627  0.2636
17900W        W36104   4.473   2.935   4.755 -0.2205 -0.0126 -0.0569
17901W        W36105   1.666   2.329  14.210  0.6955 -0.1436  0.0202
17902W        W36106  10.546   0.056   3.078 -0.2252  0.0433 -0.0227
17903W        W36107   9.549   4.466   0.104 -0.2035 -0.0123 -0.0047
17904W        W36108   7.282   8.225  13.772  0.0161  0.0603  0.0769
17905W        W36109   7.870   3.388  12.567 -0.2167 -0.1967 -0.0738
17906W        W36110   5.483   7.543   0.395 -0.0602 -0.2667  0.0463
17907W        W36111  12.119  13.889  17.039  0.0420  0.1074  0.0744
17908W        W36112   5.036  15.769   0.156  0.0741 -0.2309 -0.0431
17909W        W36113  15.135  12.029  15.395  0.4535 -0.0704  0.0098
17910W        W36114  11.185  14.361   3.496  0.0436 -0.1910 -0.1067
17911W        W36115  17.245   5.428   2.909  0.2651  0.2956  0.2905
17912W        W36116   1.012  13.721  15.724  0.3788 -0.0204  0.2691
17913W        W36117   4.642  16.670  14.131  0.2853  0.1910  0.2851
17914W        W36118  14.390   6.252   1.430 -0.1437 -0.0837 -0.1637
17915W        W36119  12.966  11.402   0.406  0.0392  0.0655  0.3002
17916W        W36120  14.686   4.243   3.662 -0.0009 -0.1181  0.0534
17917W        W36121   9.004   1.921  13.278 -0.2995  0.0516  0.0932
17918W        W36122  17.069  15.294   0.888 -0.0172 -0.0173 -0.0200
17919W        W36123  13.391   1.778   3.280 -0.0659 -0.0883  0.0201
17920W        W36124   7.062  12.384   5.321  0.0932 -0.4933 -0.3882
17921W        W36125  11.869   8.658  15.602  0.2082  0.0273  0.2174
17922W        W36126   1.151   9.097  15.456 -0.1307  0.0319  0.1759
17923W        W36127  10.386   7.088   4.542 -0.0354  0.2102 -0.1990
17924W        W36128   2.039   4.075   3.632  0.0182 -0.2617  0.0070
17925W        W36129   5.552  14.728  15.639 -0.3375  0.1331 -0.1347
17926W        W36130   8.759   0.375  16.359  0.3138 -0.1399 -0.0128
17927W        W36131  14.784  10.514  14.048 -0.3694 -0.1767 -0.2065
17928W        W36132  15.271   2.874   5.218 -0.0725 -0.1452  0.0827
17929W        W36133   1.653   0.657   0.482 -0.2898 -0.2293 -0.0303
17930W        W36134   0.731   9.369  17.510  0.1032  0.1836  0.3120
17931W        W36135   5.937  14.960   3.790  0.0552  0.2350  0.3302
17932W        W36136   2.102   4.304  16.168  0.0766  0.0494 -0.0969
17933W        W36137   2.865   0.160  16.951 -0.2802  0.1610 -0.0462
17934W        W36138   5.940   3.087  13.965  0.1107 -0.0731  0.3666
17935W        W36139   9.727   3.881   1.843 -0.3189  0.0960  0.3178
17936W        W36140   9.204   7.352  17.284  0.0669  0.3791  0.1404
17937W        W36141  16.640   7.156   4.397  0.1604 -0.1269  0.0567
17938W        W36142  13.141   2.453   4.867 -0.0832  0.1218  0.3740
17939W        W36143   4.897  10.188   3.127  0.1264  0.0393  0.3189
17940W        W36144  15.379   6.643   2.090  0.1154  0.2854  0.0764
17941W        W36145   6.960   7.105   4.437 -0.2458 -0.2094  0.1502
17942W        W36146  10.212  14.516   0.570  0.3557 -0.0860 -0.0491
17943W        W36147  12.377   2.886  13.118  0.0701 -0.2552 -0.3724
17944W        W36148  12.842   5.497   2.250 -0.0481  0.2603 -0.0790
17945W        W36149   0.700  14.916   3.837  0.2061 -0.0957 -0.1378
17946W        W36150   5.336   4.238   2.608 -0.2179  0.0104 -0.3208
17947W        W36151   6.433  13.612  13.545  0.1332  0.3831  0.0367
17948W        W36152   8.561   9.610   0.617 -0.0762  0.0301  0.0724
17949W        W36153  13.234   0.503  15.115  0.0293 -0.0441 -0.1325
17950W        W36154   9.585   6.067  13.595  0.0991 -0.0810  0.0631
17951W        W36155  16.300  10.894  12.532 -0.3821  0.0060 -0.2687
17952W        W36156   9.158  11.006   4.800 -0.0408 -0.2006 -0.1087
17953W        W36157  13.044   0.819  14.815  0.3424 -0.2532 -0.2201
17954W        W36158   3.191   8.519  15.604 -0.1227 -0.1167  0.0903
17955W        W36159  10.998   7.734  17.113 -0.2130 -0.1395  0.4548
17956W        W36160  12.539   5.534  15.650  0.0447  0.3017 -0.4194
17957W        W36161   8.235   8.600   1.805 -0.3909  0.0478 -0.1842
17958W        W36162  10.461   6.489   2.834 -0.0986 -0.1507 -0.0877
17959W        W36163  11.181   9.360   0.174  0.0930  0.1392 -0.0080
17960W        W36164   5.552  12.194  16.084  0.0690  0.0066 -0.0455
17961W        W36165   7.674   3.283  16.225 -0.3895 -0.3463 -0.1274
17962W        W36166  14.645  14.882   6.046  0.0551 -0.1388  0.1819
17963W        W36167  16.435   5.374  12.582 -0.0465 -0.0053  0.2072
17964W        W36168  15.761   7.922   0.454 -0.0302 -0.4131 -0.1826
17965W        W36169   3.726  15.311   3.684 -0.0629 -0.2676 -0.0021
17966W        W36170   9.326  14.984  14.144  0.2005  0.1077 -0.1843
17967W        W36171  16.388  16.499   2.543 -0.0079  0.1190 -0.0049
17968W        W36172  13.823   0.144   1.037 -0.1864 -0.0555  0.1620
17969W        W36173  14.728  14.142   2.230  0.2089  0.0934 -0.0905
17970W        W36174  12.733  10.179   4.571  0.3395  0.1602  0.2009
17971W        W36175   6.528   4.387   0.508 -0.2504  0.0133  0.0480
17972W        W36176   2.692  10.125   4.952  0.1509 -0.0625 -0.0488
17973W        W36177  11.406  16.773  12.805  0.0664  0.0545  0.0410
17974W        W36178  13.999   7.348   3.627  0.2011  0.0350  0.2139
17975W        W36179   2.824  11.957  16.018  0.1406 -0.1500  0.1663
17976W        W36180   4.637  16.745   4.619  0.4278 -0.0954 -0.0997
17977W        W36181   0.637  11.876  15.156 -0.0449 -0.2266 -0.3584
17978W        W36182  10.584   3.305   3.372  0.1848 -0.1148 -0.0307
17979W        W36183  10.382  11.688  13.418  0.0496  0.2252  0.0714
17980W        W36184  16.798   8.174  15.342 -0.3398 -0.0403  0.3578
17981W        W36185  14.416  10.612   0.081 -0.1877 -0.0076  0.1349
17982W        W36186  15.636  12.250   2.072  0.4784  0.1781 -0.1511
17983W        W36187  14.559   5.456   4.059 -0.0137  0.2105 -0.0604
17984W        W36188   5.007   2.569  14.110  0.1217  0.0251  0.1259
17985W        W36189   8.359   2.228  13.791  0.1222 -0.0145  0.2910
17986W        W36190   7.696  12.061   0.994 -0.1965  0.3366 -0.1549
17987W        W36191  10.815  16.623  16.158 -0.0134 -0.2356  0.1838
17988W        W36192  12.079   4.635  16.371 -0.0660 -0.1628  0.1750
17989W        W36193   8.294   9.274   0.344  0.2184  0.1548  0.2319
17990W        W36194   3.039   8.080   5.163  0.1910 -0.1037  0.3980
17991W        W36195   7.937   1.110  14.046  0.1254  0.0653  0.2392
17992W        W36196  15.890   3.936  14.940  0.4626 -0.0171  0.1483
17993W        W36197  10.411   5.135  14.950 -0.2664 -0.0683 -0.1226
17994W        W36198  10.498   0.356   5.195 -0.0798  0.2130 -0.0824
17995W        W36199   9.226   7.269  12.474  0.0223 -0.0519 -0.1308
17996W        W36200   9.526  13.077  12.454 -0.1178 -0.1702 -0.2641
17997W        W36201  13.259  12.901   4.137  0.0161 -0.3672 -0.2713
17998W        W36202   3.217  14.027   5.350  0.1071 -0.2147 -0.0189
17999W        W36203   0.927   6.526  16.560 -0.1798 -0.0342  0.0410
18000W        W36204  15.231   3.419  15.760  0.0589 -0.3376  0.0699
18001W        W36205   4.992  10.502  14.446 -0.2328  0.0289  0.2286
18002W        W36206   0.896  17.174   4.508 -0.1605  0.1515 -0.0502
18003W        W36207  11.763   0.660  13.165  0.0418 -0.2013  0.0632
18004W        W36208   9.282   4.339   5.046 -0.3120 -0.3718 -0.1111
18005W        W36209   8.267   9.429  11.316  0.2095  0.0071  0.0233
18006W        W36210   8.836   8.073  12.281 -0.1925  0.2511 -0.2324
18007W        W36211   4.842   1.779   3.854 -0.0104  0.2863  0.4067
18008W        W36212   2.681  15.789  13.588  0.1151 -0.1352  0.2691
18009W        W36213   3.358   2.238  15.870  0.3118 -0.0548 -0.1261
18010W        W36214  16.235   8.586   4.141  0.2993 -0.3080  0.0549
18011W        W36215   7.219  11.968  14.199 -0.0576 -0.2859  0.2093
18012W        W36216  11.043   5.665  14.974  0.0627 -0.1621 -0.1877
18013W        W36217   2.858  16.474   1.466  0.0484 -0.0233 -0.2022
18014W        W36218  10.510  15.173  15.369  0.0512  0.1087 -0.3974
18015W        W36219  15.882  11.127   1.746  0.0997  0.0413  0.0555
18016W        W36220  15.056  10.499  12.625 -0.0174  0.1912 -0.0603
18017W        W36221   5.623   9.209  16.929 -0.3998 -0.0111  0.0181
18018W        W36222   4.048   1.092   6.184  0.1224  0.2069  0.1711
18019W        W36223  15.726   6.740   4.632  0.1024  0.0784 -0.4233
18020W        W36224   2.640   1.149  15.199 -0.0495  0.1867 -0.1234
18021W        W36225   2.507  15.421   4.838 -0.0487 -0.2205 -0.1420
18022W        W36226   1.291   6.161  16.462 -0.0808  0.1826 -0.0135
18023W        W36227   3.861   3.224   3.587 -0.1879 -0.0890  0.1105
18024W        W36228  12.463  14.312  15.303  0.0742 -0.0130 -0.3327
18025W        W36229  16.845   8.913   4.138  0.0483  0.0040  0.0001
18026W        W36230  13.966  12.758  16.986 -0.1241  0.0063  0.0700
18027W        W36231  11.910  15.715   3.162 -0.3634 -0.0796 -0.0586
18028W        W36232  12.763   5.682  12.695 -0.0050  0.0709  0.2099
18029W        W36233  11.743  13.534   1.349 -0.0989 -0.2081 -0.0599
18030W        W36234  11.603   1.090   2.842  0.0600 -0.1343 -0.0779
18031W        W36235  15.625   3.117   6.214  0.3953  0.1323 -0.0063
18032W        W36236  16.571  11.379  13.884 -0.0667  0.1874  0.3383
18033W        W36237   5.414   5.227  12.132  0.1879  0.2160 -0.0338
18034W        W36238   7.780   8.680  12.954 -0.0320  0.3008  0.0414
18035W        W36239   3.439  13.723   4.735 -0.0795 -0.1232 -0.0446
18036W        W36240   9.169  17.069   2.722 -0.3153  0.3231  0.0729
18037W        W36241   6.900   6.403  11.875  0.1690 -0.1205  0.0667
18038W        W36242   2.370   0.050  13.816  0.1745  0.1873  0.0077
18039W        W36243  10.472   2.354  14.682 -0.0792 -0.2411 -0.0940
18040W        W36244  15.430   8.249  15.830  0.0480  0.4509  0.3472
18041W        W36245  11.474  14.401  17.411 -0.0254  0.1551 -0.0676
18042W        W36246   0.318  17.102   2.012  0.1704  0.1848  0.0073
18043W        W36247   7.947  14.807  15.704 -0.1575 -0.1829 -0.0081
18044W        W36248  15.653  14.864   3.542  0.0027 -0.1590  0.1336
18045W        W36249  11.320   0.893  16.163  0.1274 -0.0891 -0.0869
18046W        W36250  12.005  13.697   0.073  0.1827  0.2041 -0.1093
18047W        W36251  13.107   8.242   3.852  0.0931  0.5578 -0.1873
18048W        W36252   8.939  17.181  16.081  0.1881 -0.0292 -0.0169
18049W        W36253   8.688   9.580   4.379 -0.0687 -0.2357 -0.2473
18050W        W36254  16.350   0.111   0.489 -0.1226  0.2651 -0.5842
18051W        W36255  10.909   3.723   2.140 -0.2485 -0.0959  0.3070
18052W        W36256  15.682   7.876   3.919  0.1067  0.1362  0.1556
18053W        W36257  15.555   7.678   0.055 -0.0436  0.0154 -0.2606
18054W        W36258  16.811  11.692   3.325 -0.2483  0.0199 -0.0109
18055W        W36259  17.252  15.324   1.662  0.0514 -0.0579 -0.0301
18056W        W36260  16.001  13.819   2.222  0.1192  0.0021  0.4477
18057W        W36261  13.807   1.968   1.231  0.2933  0.2573  0.0408
18058W        W36262   5.281  11.724  13.724 -0.1404 -0.2776  0.0226
18059W        W36263   1.574   7.925  15.919 -0.0840 -0.0289  0.1746
18060W        W36264   0.646  10.377   3.911  0.2154 -0.1015  0.0574
18061W        W36265   5.094  12.423   3.095 -0.0564  0.2918 -0.1105
18062W        W36266   4.861   4.134  13.853 -0.0267  0.0115  0.4242
18063W        W36267   8.809   0.628  17.400 -0.0397 -0.0197 -0.0151
18064W        W36268  12.549  15.135   0.194  0.0520  0.2566  0.0448
18065W        W36269   2.580  10.903   1.880  0.0719  0.0001  0.1525
18066W        W36270  15.167  12.916   2.256  0.0298 -0.0192  0.3230
18067W        W36271   8.723   7.603  17.109 -0.1830 -0.0518 -0.0502
18068W        W36272   3.893   2.001  13.664 -0.0523 -0.1781  0.3274
18069W        W36273   2.626   1.977   1.897  0.0331 -0.0319  0.1614
18070W        W36274   1.547  10.729  16.429 -0.1489 -0.1122 -0.2601
18071W        W36275   7.018  17.159  12.371 -0.1450  0.0368 -0.0011
18072W        W36276  14.393  12.881  12.531 -0.2155 -0.1422 -0.1910
18073W        W36277   4.452   0.778  13.082  0.0236 -0.0117  0.1419
18074W        W36278   0.224   5.302   1.124  0.0723 -0.0773  0.0938
18075W        W36279   6.004   2.829  15.979 -0.1392 -0.0057 -0.0296
18076W        W36280  16.084  16.077   4.261 -0.0314 -0.2036  0.2816
18077W        W36281  12.250  16.055   5.138  0.1358  0.0990  0.1059
18078W        W36282  10.076  15.162  13.511  0.2928  0.0591 -0.0529
18079W        W36283  16.139  17.068   4.419 -0.0036  0.3016  0.1344
18080W        W36284   6.354   2.625  15.683  0.1550  0.1630  0.0115
18081W        W36285  15.102  14.146  16.420 -0.0174  0.5608 -0.1089
18082W        W36286  13.984   3.132   3.877 -0.0839  0.0543  0.1635
18083W        W36287  14.752  15.256   0.329  0.1219  0.1345 -0.2980
18084W        W36288  11.101   1.111  13.609 -0.1426  0.3843  0.2849
18085W        W36289   1.033  11.052   3.280 -0.0836 -0.1170 -0.2457
18086W        W36290   9.032   6.005  15.583 -0.0537  0.0696  0.1057
18087W        W36291   9.761   2.632  13.712 -0.1565  0.1431 -0.1303
18088W        W36292   2.705  13.520   4.899  0.3451  0.0792 -0.1343
18089W        W36293  12.069  14.202   0.961  0.2044  0.3902  0.0492
18090W        W36294   5.242   9.299   4.372 -0.1761  0.0003  0.0645
18091W        W36295   3.815   0.146   4.871 -0.1310  0.1569  0.0475
18092W        W36296  14.313  10.490   0.897 -0.0282  0.0260  0.1819
18093W        W36297  11.342   3.008   0.956  0.2454  0.1335  0.2276
18094W        W36298  11.929  17.196   5.616 -0.0401 -0.2696  0.0169
18095W        W36299   3.424   5.465  15.318 -0.0061  0.0529  0.0828
18096W        W36300   1.365  12.364   4.022 -0.0498 -0.0681  0.4514
18097W        W36301   2.729   6.177   2.246  0.0447 -0.0407  0.0214
18098W        W36302   7.352   2.650   4.552 -0.0389 -0.2394  0.0605
18099W        W36303  10.341   6.555   3.767  0.0665 -0.1666 -0.0013
18100W        W36304   7.882   8.651   3.252  0.2935 -0.2631 -0.2090
18101W        W36305   6.249  16.292  12.180  0.0092 -0.0514  0.3813
18102W        W36306  16.602   5.920  14.748  0.1969  0.0094  0.1648
18103W        W36307   4.969   4.127  13.334 -0.0018  0.2820 -0.1062
18104W        W36308   6.978   7.563   2.292 -0.0524 -0.2989  0.0645
18105W        W36309   5.947  14.557   0.083  0.0927  0.1433 -0.3092
18106W        W36310  11.505  12.214   2.106 -0.2722 -0.1813  0.0679
18107W        W36311   9.237   3.362  14.187  0.2139  0.1611  0.2085
18108W        W36312  10.716  12.948  15.977  0.2521 -0.0152  0.1824
18109W        W36313  12.300  17.154   3.387 -0.3512  0.1307 -0.1894
18110W        W36314  17.232  16.048  15.276  0.0512 -0.1008  0.0645
18111W        W36315   0.736   9.755  17.069 -0.0627  0.0163 -0.1210
18112W        W36316   5.637   2.470   2.820 -0.1056  0.1533  0.1880
18113W        W36317   7.166  16.409   5.262  0.1941 -0.0040 -0.1841
18114W        W36318   7.572   0.203   2.745 -0.0280 -0.1087  0.0247
18115W        W36319  16.468  13.686   4.395 -0.2475 -0.0235 -0.0320
18116W        W36320   1.218  15.971  14.299  0.4605 -0.2245  0.0237
18117W        W36321  10.417  16.334  13.367 -0.4443 -0.3404 -0.1400
18118W        W36322   8.694   6.316  16.779  0.3293  0.1526 -0.3114
18119W        W36323   1.833  16.767   3.474 -0.1223 -0.0087 -0.1711
18120W        W36324   6.354  11.693   0.768 -0.2032  0.0073 -0.1472
18121W        W36325   5.405  11.584  16.046 -0.0901 -0.0563 -0.1355
18122W        W36326   2.355  13.869   0.100 -0.0020 -0.1209 -0.1412
18123W        W36327  11.450   5.868   0.593  0.1703 -0.1343 -0.0549
18124W        W36328  14.573  14.711   4.724 -0.0945  0.3257  0.0308
18125W        W36329  11.584  14.014   0.212  0.3361 -0.1020 -0.0203
18126W        W36330  14.317   8.858   2.132 -0.0362 -0.3246  0.1478
18127W        W36331  13.093   2.188   3.132 -0.0164  0.3158  0.0136
18128W        W36332  10.588  15.000  13.698  0.0057  0.0279  0.1646
18129W        W36333  10.228   7.016  12.426 -0.2051 -0.1076  0.3299
18130W        W36334   6.977   5.489   3.381  0.0179  0.0018 -0.0185
18131W        W36335   5.005   8.498   1.775 -0.1148  0.2425 -0.1758
18132W        W36336  11.334  13.852  14.750 -0.0739  0.0169  0.3532
18133W        W36337  14.281   4.757   0.084 -0.1282  0.1657 -0.3613
18134W        W36338  11.956   2.521  17.050  0.1779  0.0571  0.1530
18135W        W36339   3.374   7.638  14.726 -0.1223 -0.0316  0.1897
18136W        W36340   1.926   8.194  15.576 -0.1009 -0.2545 -0.1536
18137W        W36341   0.072   1.581  15.089  0.0877  0.0193 -0.3435
18138W        W36342  11.332   3.524   3.671 -0.1444  0.0072 -0.0183
18139W        W36343   3.249  11.610  17.333  0.0421 -0.0766  0.2544
18140W        W36344  11.541  11.926   3.555 -0.0060 -0.1394  0.1871
18141W        W36345   8.025   0.286  13.163 -0.1243  0.0390  0.1001
18142W        W36346  12.344   9.012   1.304 -0.1410 -0.0334  0.0814
18143W        W36347   4.844   1.558  15.580 -0.0159  0.2069 -0.2119
18144W        W36348   1.319   3.195   5.026  0.0225  0.1068 -0.2339
18145W        W36349   0.509  16.711   1.721 -0.1554  0.0666  0.0347
18146W        W36350  13.435   0.714   4.676  0.0852 -0.3249  0.2590
18147W        W36351   7.727  16.152   1.494 -0.0258  0.0348  0.1898
18148W        W36352  11.213   4.135  15.262 -0.1499  0.2098  0.1047
18149W        W36353   6.518   7.302   3.899  0.3013 -0.0565  0.2125
18150W        W36354  14.419  16.635   0.114 -0.1568 -0.2417 -0.1172
18151W        W36355  10.680   8.081  17.495 -0.0720  0.0071  0.2718
18152W        W36356  12.048  12.197   5.068  0.1759 -0.0411 -0.0213
18153W        W36357   5.933  10.627   1.163  0.2417 -0.0367 -0.2231
18154W        W36358   1.657   8.862   5.319 -0.0957  0.3169 -0.0101
18155W        W36359   4.784  17.145   0.433  0.0300  0.1476 -0.1530
18156W        W36360  10.875  16.978   2.193 -0.2961 -0.2738  0.0108
18157W        W36361  16.003  10.091   3.157 -0.0995 -0.0612  0.0090
18158W        W36362   4.994  14.711   2.376 -0.1160  0.0676 -0.0368
18159W        W36363   2.083   7.652  15.914 -0.0991  0.1541 -0.1627
18160W        W36364   1.784  14.760  12.921 -0.1418 -0.0715  0.0654
18161W        W36365   0.207   8.447   3.626 -0.1523  0.2572  0.2379
18162W        W36366   8.088   1.665  13.128  0.0323 -0.2386  0.2061
18163W        W36367   2.582   9.238   0.033  0.0181  0.0744 -0.0680
18164W        W36368  14.148   4.308  14.048  0.2574  0.2968  0.0602
18165W        W36369  15.251   7.809  16.762  0.1185  0.0804 -0.0535
18166W        W36370   5.935   9.911  13.670 -0.0948 -0.3462  0.0660
18167W        W36371   9.023   2.497  12.087  0.0124 -0.0925 -0.0082
18168W        W36372  12.845   8.389  13.027 -0.1831  0.2020  0.0422
18169W        W36373  10.879  10.801  14.838 -0.2284 -0.1325 -0.2510
18170W        W36374   2.290   8.363  17.011 -0.1892  0.0669  0.2199
18171W        W36375   0.401  14.770  15.337  0.0688  0.4974 -0.1123
18172W        W36376   7.040  15.882  14.434  0.0631  0.2847  0.0315
18173W        W36377   8.636  11.840  15.785 -0.4104  0.0152  0.1145
18174W        W36378   0.492   7.532   2.527  0.3227 -0.1286  0.0476
18175W        W36379  11.481  11.258  16.516 -0.3184  0.0843 -0.1013
18176W        W36380   5.032  12.514  15.381  0.0071 -0.2691 -0.1826
18177W        W36381   8.854  17.187  14.785 -0.2199 -0.2025 -0.0114
18178W        W36382  11.986  10.371   0.873 -0.1749  0.0397  0.2458
18179W        W36383  10.414  16.042   4.609  0.1159  0.0257  0.0752
18180W        W36384   0.134   6.849  16.902  0.1870 -0.3106 -0.0632
18181W        W36385  10.591  16.341   3.379  0.0245  0.2016 -0.0266
18182W        W36386   6.325  14.718   3.489  0.2057  0.2425  0.2083
18183W        W36387   1.822   0.879   1.413 -0.4302 -0.2063 -0.0705
18184W        W36388  14.094   7.093   1.432 -0.0647 -0.1253 -0.0719
18185W        W36389   3.505   4.290  16.657  0.2038  0.1534 -0.0483
18186W        W36390   5.227   6.065   4.750 -0.2278 -0.0509 -0.2980
18187W        W36391   7.782   8.630  17.376 -0.0655  0.1964 -0.1139
18188W        W36392  14.183  10.261  14.356  0.0298  0.1051 -0.0227
18189W        W36393  14.150  16.964   2.841 -0.0008  0.0490 -0.2134
18190W        W36394  17.221  16.067  14.373 -0.0770 -0.3162  0.1055
18191W        W36395  13.836  15.097   3.276 -0.0305 -0.0591  0.1284
18192W        W36396   4.660  14.167   4.983  0.0750  0.0304 -0.1195
18193W        W36397   8.510  12.353  15.607 -0.0308 -0.1505 -0.2035
18194W        W36398   6.701   6.230  16.684 -0.2751  0.3164 -0.2570
18195W        W36399  14.048  15.460   6.478  0.0578  0.1973  0.2697
18196W        W36400  16.575   4.046   0.988 -0.1260  0.0846 -0.2766
18197W        W36401   8.306   9.342  15.812  0.2066  0.0209 -0.1772
18198W        W36402   5.418   9.049  15.338 -0.0278 -0.1666 -0.1507
18199W        W36403   9.198   1.057   2.011 -0.1015 -0.0167 -0.0153
18200W        W36404  17.255   6.309  15.939  0.0563 -0.0934  0.0307
18201W        W36405  11.329  14.471   1.725 -0.1455 -0.1022 -0.0146
18202W        W36406   6.001   8.926   0.485  0.1709 -0.0086 -0.1428
18203W        W36407   0.814   8.675   1.293  0.0750  0.1136  0.0911
18204W        W36408   0.673  12.079   3.543 -0.0943 -0.0975  0.2219
18205W        W36409  11.086   9.443  11.987  0.0584 -0.2719 -0.2129
18206W        W36410   8.192  11.837  12.445  0.2909 -0.2989  0.1347
18207W        W36411  12.626  12.456   3.013  0.0166  0.2351  0.2885
18208W        W36412  16.413   6.662   5.405  0.1272 -0.0745  0.1213
18209W        W36413   5.979   3.736   2.637 -0.0821 -0.3043 -0.1376
18210W        W36414   4.113   7.888   1.757 -0.0846  0.3832  0.0873
18211W        W36415   2.666   1.017   0.137 -0.3222  0.1444  0.1356
18212W        W36416  15.139   5.734  16.430 -0.1655 -0.2296 -0.0539
18213W        W36417   3.908  11.044   1.700 -0.1959  0.2563 -0.0495
18214W        W36418   9.955   2.753   1.237  0.3564  0.2603 -0.3344
18215W        W36419  16.434   7.036   1.430  0.2739  0.1399  0.0557
18216W        W36420   6.704  10.522   1.732  0.3360  0.0441 -0.0401
18217W        W36421   5.652  13.859   4.428 -0.0410 -0.1156 -0.0612
18218W        W36422   1.179   7.527   0.256 -0.0968 -0.1356  0.1321
18219W        W36423   6.446  17.052  14.992  0.4083  0.2103 -0.0253
18220W        W36424   1.403  16.813   2.156 -0.0967  0.1025  0.0028
18221W        W36425   0.621   1.022   4.448  0.2579 -0.1497  0.1586
18222W        W36426   5.498   1.164   4.425  0.0837 -0.0583  0.2836
18223W        W36427   5.865   6.789   4.240  0.0605  0.2966 -0.1191
18224W        W36428  12.332  10.762   2.953  0.0094  0.1283 -0.0689
18225W        W36429   5.316   7.346  13.397 -0.0331  0.0381 -0.0647
18226W        W36430   2.496   9.119   1.113  0.2393  0.1142 -0.1954
18227W        W36431   8.015  14.693  16.214 -0.4411  0.0647  0.0623
18228W        W36432   6.224  14.770   4.193 -0.1617 -0.2860 -0.2204
18229W        W36433   4.842  12.927  13.054 -0.3666  0.1212 -0.1256
18230W        W36434   1.621  10.375   5.739 -0.4155 -0.2704 -0.1460
18231W        W36435   6.724   7.406  14.149  0.2040  0.1274  0.1421
18232W        W36436  11.067   9.907   0.402 -0.0190  0.2108  0.3526
18233W        W36437   4.503   6.727   2.967 -0.1296 -0.0474  0.1665
18234W        W36438   0.569   3.311  16.756 -0.0471  0.0705 -0.2040
18235W        W36439  14.209  13.498   0.699  0.0253  0.0475  0.1651
18236W        W36440   8.664   8.315   2.966 -0.2103 -0.0712 -0.0797
18237W        W36441  15.709  13.563  13.080 -0.0709 -0.0466 -0.2375
18238W        W36442   6.470   6.257  13.161  0.0903 -0.0724  0.0753
18239W        W36443  14.395  13.075  16.068  0.1941 -0.1032 -0.0169
18240W        W36444   6.995  14.566  13.859 -0.1571  0.2057  0.2781
18241W        W36445   3.632  14.351  16.520  0.0843 -0.0430  0.4713
18242W        W36446  12.567  14.150  14.646 -0.1022 -0.1716 -0.4719
18243W        W36447   9.924   5.785   0.502 -0.1645  0.2922  0.2229
18244W        W36448  11.137   8.464  16.181  0.0262  0.1749 -0.1996
18245W        W36449  16.075   7.759  13.993 -0.2332 -0.1216 -0.1617
18246W        W36450   9.337  16.268  12.761  0.2426  0.0246  0.0303
18247W        W36451   2.104  11.143  14.152 -0.0330  0.3348  0.0736
18248W        W36452   1.001  16.243   3.271  0.3245  0.2581 -0.1122
18249W        W36453  14.766   2.691   2.769 -0.0528  0.1964 -0.0040
18250W        W36454  10.112   5.917  12.427  0.0824  0.0355 -0.3321
18251W        W36455  13.162   8.639   0.765  0.0656 -0.2066 -0.2185
18252W        W36456  13.320  12.638   1.007  0.2403  0.0909 -0.2401
18253W        W36457   3.388  10.945  14.365  0.0059  0.2112  0.0951
18254W        W36458  10.624   1.912   1.582  0.1087 -0.3202  0.0155
18255W        W36459  15.380  13.252   0.289 -0.1229  0.0213 -0.2053
18256W        W36460   4.814   7.952   4.242 -0.0423  0.1318 -0.0754
18257W        W36461  12.257   6.377  12.178  0.0162  0.2909  0.0143
18258W        W36462   3.554  16.008   2.046 -0.0722 -0.0286  0.0214
18259W        W36463   6.864  16.469   4.831 -0.1117  0.3884  0.3405
18260W        W36464   0.217  11.245   1.955  0.0228 -0.3516  0.1042
18261W        W36465   3.140  13.346   4.659 -0.1173 -0.1163  0.0561
18262W        W36466   2.249   9.537  15.174 -0.2545  0.2452  0.1238
18263W        W36467  17.059  12.709   3.237  0.0829  0.2365 -0.5176
18264W        W36468  15.327  15.351   4.240  0.0295 -0.2271 -0.0686
18265W        W36469   3.643   8.704   1.645 -0.2366 -0.1390 -0.0601
18266W        W36470  12.033   5.835   5.106  0.1271  0.0518 -0.0113
18267W        W36471   9.595   7.222   2.619 -0.0669 -0.0246 -0.0837
18268W        W36472  11.779   5.388  12.898 -0.0148  0.1691 -0.2247
18269W        W36473   7.552  15.880  12.668  0.2795  0.1873  0.1360
18270W        W36474   9.054   0.115  12.908 -0.1551 -0.1127  0.1225
18271W        W36475   2.817  11.924  13.878  0.0503 -0.0520  0.0953
18272W        W36476   2.677   7.608  14.837  0.3277  0.1347  0.1563
18273W        W36477  10.632   1.117  13.886 -0.1274  0.1788 -0.1510
18274W        W36478   6.049  16.422   3.011 -0.1059 -0.1179  0.1426
18275W        W36479   3.748  12.437   3.689  0.2919  0.1896 -0.0759
18276W        W36480  12.578   1.150  15.982  0.1024 -0.2439  0.0094
18277W        W36481  12.626   9.060   3.687 -0.0711 -0.2343  0.0814
18278W        W36482  14.482  11.012  14.706  0.4073 -0.1993  0.2731
18279W        W36483  11.962   4.425   3.955 -0.1312  0.2143 -0.3215
18280W        W36484  13.384   2.376  13.225  0.0463  0.0152 -0.1182
18281W        W36485  10.172  12.344   3.823 -0.2596  0.0551 -0.0896
18282W        W36486  11.389   2.885  16.604  0.1456 -0.0400 -0.1391
18283W        W36487   2.655   5.963  12.409  0.0976  0.0051  0.0534
18284W        W36488  11.953   1.995   5.024 -0.1444 -0.0254 -0.0911
18285W        W36489  12.692  12.952   6.387  0.1648  0.1971 -0.1804
18286W        W36490  15.422   8.353   4.833 -0.0137  0.2121 -0.1412
18287W        W36491   6.642   8.480  13.726  0.1369 -0.1678 -0.0212
18288W        W36492   9.787   7.441   0.514  0.0851  0.2287  0.0417
18289W        W36493   4.490  14.126   3.091  0.0763 -0.2056 -0.0800
18290W        W36494  16.491   9.577   0.873 -0.1587  0.3134  0.1828
18291W        W36495  11.216  16.697  13.682 -0.1028  0.0080 -0.0184
18292W        W36496   2.220   5.363  14.519 -0.2006  0.0989  0.0151
18293W        W36497  14.788   7.883   0.043 -0.2592 -0.0428  0.0825
18294W        W36498   7.522   0.692  15.799  0.1587 -0.2417 -0.0253
18295W        W36499  16.205   9.770   0.103 -0.0033 -0.1175  0.2806
18296W        W36500  15.331   0.123   2.239 -0.0657 -0.0567 -0.3322
18297W        W36501  10.851   5.758  17.297  0.2267 -0.0269 -0.0029
18298W        W36502  16.233   7.786   3.891 -0.0545  0.0475  0.1910
18299W        W36503   1.126  15.169  15.065  0.0032 -0.0317 -0.2712
18300W        W36504   8.926   2.050  16.363 -0.1617  0.2171 -0.0434
18301W        W36505  15.222   4.474   4.468 -0.1237  0.4497 -0.2854
18302W        W36506   8.554  11.599  12.677  0.0166  0.3041 -0.0661
18303W        W36507   1.627   7.328   1.993 -0.1638 -0.2027 -0.0205
18304W        W36508   4.512   3.755   1.020  0.4333  0.1365  0.0071
18305W        W36509  12.362  12.963   4.232  0.1281 -0.2871  0.1809
18306W        W36510   6.079  13.702   1.304 -0.3186 -0.0560 -0.0054
18307W        W36511  12.270   2.785   4.446 -0.0027 -0.2761 -0.1570
18308W        W36512  12.024  17.183   1.466  0.3797  0.1826 -0.0265
18309W        W36513   7.809  10.368  15.678 -0.1292  0.2071  0.0409
18310W        W36514   4.200   5.215   4.381  0.2872  0.0196 -0.1565
18311W        W36515   9.282  12.477   3.608 -0.3277  0.2183 -0.0009
18312W        W36516   7.612   6.580   4.049 -0.0594  0.2208  0.1396
18313W        W36517  16.766  13.125  13.961 -0.1053 -0.1833 -0.2515
18314W        W36518   8.703   8.886  11.981  0.1075 -0.1430 -0.1318
18315W        W36519   2.808   6.693  13.080  0.4454  0.1543  0.0316
18316W        W36520  10.403   3.042   0.012 -0.2260  0.4124 -0.1649
18317W        W36521   2.124  15.557   2.908 -0.0135 -0.0205  0.1936
18318W        W36522   0.142   0.368  16.663  0.2905 -0.0289  0.1245
18319W        W36523   4.211   6.943  17.318  0.0027  0.0634 -0.1129
18320W        W36524  13.039  14.283  14.679 -0.3187 -0.0796 -0.3500
18321W        W36525  14.039   7.471   0.884  0.2698 -0.0652 -0.0902
18322W        W36526   7.615   7.018  12.139  0.4548  0.0168  0.3363
18323W        W36527   4.731   2.421  13.358  0.2340 -0.1859  0.0509
18324W        W36528  14.758  14.910  14.451 -0.2167 -0.0024 -0.3181
18325W        W36529  15.605  10.380   2.895 -0.0005 -0.2628  0.1450
18326W        W36530  11.313   6.178  13.437 -0.4118 -0.0052 -0.1368
18327W        W36531   3.527  13.074  12.705  0.2206  0.0870 -0.1687
18328W        W36532   1.466  13.399  12.727  0.1747 -0.3430 -0.3003
18329W        W36533  11.417  16.247  16.194  0.0487 -0.0749  0.2004
18330W        W36534   3.977  15.986   0.538 -0.0349 -0.0227 -0.1862
18331W        W36535  16.858  15.790  16.102  0.0077  0.1700  0.0103
18332W        W36536   3.398   2.900  13.091  0.0492 -0.2761  0.1078
18333W        W36537   9.464  16.289   1.056 -0.0141 -0.1926 -0.0496
18334W        W36538  12.161   1.702   1.130 -0.0899  0.1504 -0.0413
18335W        W36539   6.233  17.059   2.613  0.0369 -0.4131  0.0231
18336W        W36540   6.267  13.301  13.915  0.2363 -0.0214  0.2502
18337W        W36541   8.740   3.848  12.860 -0.0728  0.1391 -0.0500
18338W        W36542  14.748   7.495   4.134 -0.0012 -0.0819  0.0954
18339W        W36543   4.194   5.562  17.512  0.0964  0.1597  0.0394
18340W        W36544   4.825   4.931  13.489  0.0132  0.3148 -0.2531
18341W        W36545  12.963   6.335   5.483  0.2158 -0.0760 -0.0432
18342W        W36546   5.015  15.015  16.965  0.1627  0.0312  0.0817
18343W        W36547  10.310  15.637  15.403 -0.0884 -0.0794  0.0535
18344W        W36548  17.075   5.588  15.654  0.0317 -0.1567  0.0004
18345W        W36549   5.244   5.753  12.640 -0.1608 -0.0938  0.0079
18346W        W36550   3.803   7.479  14.229 -0.1842  0.1145 -0.0386
18347W        W36551  12.341  15.432   1.373  0.0864  0.1448 -0.2051
18348W        W36552  16.931  10.708  15.518 -0.2124  0.0319  0.0402
18349W        W36553  14.525  17.195  16.722 -0.1559  0.3305 -0.2201
18350W        W36554  15.133   2.038   3.350  0.1346 -0.2213  0.0134
18351W        W36555  13.089  13.243   5.507 -0.2599  0.1571 -0.1968
18352W        W36556   2.795   4.866  11.086  0.3364 -0.1742 -0.1447
18353W        W36557  10.395   1.194   1.563 -0.2699 -0.3307  0.0990
18354W        W36558   4.832  11.090  15.193  0.1736 -0.0025 -0.1940
18355W        W36559   1.527  12.630   4.422  0.0225  0.2740 -0.0277
18356W        W36560   0.844   0.594  16.319  0.0123  0.3473 -0.3728
18357W        W36561   0.722  10.374   1.987 -0.0075 -0.2280 -0.0819
18358W        W36562   7.184  14.865  15.433  0.3391 -0.0085 -0.1530
18359W        W36563   4.957  12.833  14.031 -0.3176 -0.0137  0.0942
18360W        W36564   2.177  17.300   3.762  0.2503 -0.0174  0.0695
18361W        W36565   7.743   9.931   1.906  0.1063 -0.1261 -0.0069
18362W        W36566   6.657  15.364   1.612  0.1452 -0.1606 -0.0676
18363W        W36567  14.895   4.265   5.439 -0.0855  0.0151  0.1484
18364W        W36568  16.892   1.043  16.408  0.0436 -0.0550  0.1320
18365W        W36569  13.771   7.334  12.894  0.0618  0.0085 -0.1723
18366W        W36570   9.333  13.749   3.324  0.1213 -0.0461 -0.2706
18367W        W36571   7.697  13.368   4.460 -0.1567  0.1478  0.3041
18368W        W36572  16.238   1.201  15.658  0.1021 -0.3306  0.3541
18369W        W36573  12.504   0.221   0.453 -0.0575  0.1721 -0.2293
18370W        W36574   2.517  11.518   5.300  0.0564 -0.0500  0.2118
18371W        W36575   3.664  11.654   5.453  0.3483 -0.0915 -0.1869
18372W        W36576  17.012   4.257   4.430 -0.0311 -0.0941 -0.1090
18373W        W36577   8.988  13.834  14.161 -0.2016  0.2849  0.1399
18374W        W36578   4.055  17.142   2.907 -0.1549 -0.2189 -0.1475
18375W        W36579   5.776  12.714  14.747 -0.1229 -0.1760 -0.0302
18376W        W36580   5.836  10.047   3.725 -0.1049  0.0614 -0.0339
18377W        W36581   5.331   2.629   4.448 -0.0024 -0.1300  0.1254
18378W        W36582  11.230  12.713  13.564 -0.0527 -0.2426  0.0959
18379W        W36583  10.145  17.288  14.459 -0.0530 -0.0297 -0.2235
18380W        W36584  12.967  14.840  17.170 -0.3323  0.1395  0.2137
18381W        W36585   3.344  15.211  16.606 -0.0850  0.3330 -0.3795
18382W        W36586  15.685  12.248  14.240  0.2151 -0.1528  0.4418
18383W        W36587  12.921   9.360   3.392 -0.0302  0.1960 -0.1470
18384W        W36588  11.574   3.743   3.213 -0.0840 -0.2542  0.0388
18385W        W36589  13.142  14.886  16.516  0.1007  0.2080  0.0697
18386W        W36590  14.715   4.402  14.914  0.0267 -0.0780 -0.3050
18387W        W36591   2.343   8.245  15.358 -0.0039  0.0425 -0.3009
18388W        W36592  17.093   8.686   5.115  0.1596  0.1345 -0.3065
18389W        W36593   5.993   5.733   0.479  0.0926  0.0973  0.0139
18390W        W36594   7.360   3.045  14.812 -0.1548  0.0497  0.0036
18391W        W36595   8.712   5.443   2.363 -0.0937 -0.1227  0.2937
18392W        W36596   2.351  10.535   2.209  0.0991  0.2356  0.4375
18393W        W36597   0.082  14.050  14.941  0.1537 -0.2091 -0.1883
18394W        W36598  10.320   4.704  15.198 -0.2905 -0.0677  0.3382
18395W        W36599   6.266   6.772  14.751 -0.1176 -0.1160 -0.1309
18396W        W36600  11.219  10.289   2.648  0.1414 -0.3534  0.2244
18397W        W36601   4.586  15.951   2.688 -0.2821  0.0150 -0.0415
18398W        W36602   1.568  15.958  16.578  0.1074  0.0850 -0.2409
18399W        W36603  14.895  10.405   2.316  0.2035  0.1258 -0.0619
18400W        W36604  12.899  15.952  14.581 -0.2321 -0.1886  0.1756
18401W        W36605  11.644  16.265   2.042 -0.2277 -0.1361  0.1853
18402W        W36606  14.764  15.918  15.029  0.3156  0.1427  0.0021
18403W        W36607  12.656   4.793  16.236 -0.4691 -0.0799  0.0537
18404W        W36608   0.506  13.533   1.706  0.3224  0.1962 -0.0793
18405W        W36609   9.558  16.598   3.550 -0.1255  0.0740 -0.0973
18406W        W36610  14.944  16.089  13.210 -0.0075 -0.0557  0.0990
18407W        W36611  12.307   2.220   0.460 -0.3004 -0.1213  0.4126
18408W        W36612  13.675   6.881  14.252  0.0287 -0.0695  0.1070
18409W        W36613  14.149  14.574   1.196 -0.0084  0.1969  0.2079
18410W        W36614   4.550  17.147   3.773  0.0866  0.3862 -0.0581
18411W        W36615   1.053   8.315  11.922  0.1032 -0.2437  0.0731
18412W        W36616   3.020   9.217  14.533  0.0408 -0.0049  0.0080
18413W        W36617  12.964   0.079   1.077  0.1781  0.1357 -0.0511
18414W        W36618   5.995  10.806   4.283  0.0314 -0.0165  0.1448
18415W        W36619   0.996  13.446   4.289  0.2535  0.2129  0.1418
18416W        W36620   1.854  11.538   1.357  0.2300  0.1987 -0.1373
18417W        W36621   8.953   0.295   1.185 -0.2894 -0.2240  0.2160
18418W        W36622   9.425   1.903   1.038  0.0055 -0.0810 -0.0123
18419W        W36623  12.111   6.107  16.940  0.1823  0.0678 -0.1095
18420W        W36624   1.320   7.054  15.321  0.2980  0.0482  0.0917
18421W        W36625  16.191   9.529   3.837 -0.0467 -0.1434 -0.2356
18422W        W36626   0.550   4.282  12.538  0.0302  0.0585 -0.2375
18423W        W36627  11.970  13.058   5.175  0.0332 -0.3336 -0.1355
18424W        W36628  14.206  15.694  16.921  0.0913  0.1401 -0.3565
18425W        W36629   7.178   6.223   1.771 -0.1047  0.1705 -0.1707
18426W        W36630   7.296   9.066  13.192  0.1368  0.0909 -0.0659
18427W        W36631  14.121  11.019   4.130 -0.1289 -0.2015 -0.2273
18428W        W36632  17.059   9.038   6.603 -0.1800 -0.1230 -0.3934
18429W        W36633  13.813  14.663   2.172  0.1308  0.0351  0.0878
18430W        W36634   1.510   4.370   4.458  0.2052 -0.0305  0.2399
18431W        W36635   2.649  16.054   3.662  0.0165 -0.1255 -0.1328
18432W        W36636   7.474  13.210  13.388 -0.0534  0.1066  0.0587
18433W        W36637  16.709   5.970  13.029  0.2274 -0.1374  0.3137
18434W        W36638   1.416   4.999  13.556  0.1381 -0.3064 -0.1311
18435W        W36639   6.985  12.758   1.863  0.0798  0.3226  0.1485
18436W        W36640  11.070   7.442  12.658  0.1759  0.3585 -0.1386
18437W        W36641   6.703   4.825   5.179 -0.1842  0.1810  0.1162
18438W        W36642   3.913   1.013   3.891 -0.3114  0.0061 -0.2187
18439W        W36643   9.626  16.991   0.719 -0.0992 -0.0686  0.1026
18440W        W36644   0.588  12.544   3.837  0.0174 -0.0254  0.0108
18441W        W36645   9.193  15.801   4.677  0.0471 -0.0144  0.1011
18442W        W36646  16.426  12.142   0.616 -0.0062 -0.1153 -0.2270
18443W        W36647   6.975   1.012   2.213 -0.4329  0.1159  0.0158
18444W        W36648   9.976  13.659   1.724 -0.3052  0.0857  0.2376
18445W        W36649  15.280  12.044  17.368 -0.0505 -0.2417 -0.2311
18446W        W36650  16.542  12.743   2.513  0.1877  0.2560 -0.0549
18447W        W36651   3.147   5.892  16.659 -0.0637 -0.3763  0.0201
18448W        W36652   1.807   8.360   4.050  0.1476 -0.2837  0.0310
18449W        W36653   1.657   9.869  15.357  0.2366  0.1196 -0.1658
18450W        W36654   2.410   0.926   1.454 -0.0052 -0.5029  0.0494
18451W        W36655   8.976  15.697  13.877  0.1201 -0.1813  0.2168
18452W        W36656   9.731   6.600  14.093  0.2543  0.0385 -0.0474
18453W        W36657  13.864  14.870  17.164  0.3901  0.0764  0.0979
18454W        W36658  10.514   6.910   1.183 -0.1970  0.0756 -0.0663
18455W        W36659   7.398   1.750   0.011 -0.1410  0.0555 -0.2805
18456W        W36660   0.006  11.083   5.562 -0.0393 -0.0066 -0.1189
18457W        W36661  15.282   8.848   3.765  0.0889  0.1634 -0.0695
18458W        W36662  13.260   5.645  17.146  0.1180 -0.2651  0.1903
18459W        W36663   7.117  15.150   0.723 -0.2003  0.3830  0.2513
18460W        W36664   8.767  12.088   3.942  0.1478  0.3561  0.1128
18461W        W36665   1.120  16.863   1.760  0.1347  0.0186  0.1074
18462W        W36666   0.654   7.509   1.102 -0.2880 -0.1537 -0.0813
18463W        W36667  13.326  11.077   3.955  0.1290  0.0623 -0.1722
18464W        W36668  11.311   6.332  17.279 -0.0689 -0.0693  0.1202
18465W        W36669   6.323   8.689  14.203  0.1788 -0.0498  0.1787
18466W        W36670  12.858   3.554   3.405  0.3001 -0.1552  0.0219
18467W        W36671  15.850  10.666   1.430 -0.2585 -0.1228 -0.0797
18468W        W36672   0.007   8.821  12.387 -0.0779  0.0654  0.0296
18469W        W36673  11.713   1.812   2.524 -0.0933  0.1788  0.1412
18470W        W36674  14.359   2.446  12.455  0.0732  0.2388  0.0874
18471W        W36675   1.069   7.764   0.921  0.1730 -0.0905  0.0282
18472W        W36676  16.142  11.428   5.074  0.1074  0.0495  0.0741
18473W        W36677   9.730   7.257  16.115 -0.1766 -0.2890  0.3008
18474W        W36678  16.807  12.593   4.075 -0.0251 -0.2497 -0.1008
18475W        W36679   6.260  10.098  16.612 -0.0329 -0.0590 -0.1905
18476W        W36680  11.055   2.603  16.812  0.2625 -0.2401 -0.0454
18477W        W36681   4.120   4.965  14.257  0.3348  0.1896  0.0627
18478W        W36682   9.968  15.449   4.322 -0.1234  0.0499  0.2024
18479W        W36683  15.887  11.821  16.716  0.1653  0.0753 -0.0117
18480W        W36684   9.849   7.713   0.070 -0.2392  0.2031 -0.3614
18481W        W36685  11.352   8.583  15.669  0.0020  0.2974  0.0222
18482W        W36686   4.458   5.957  14.277  0.0061 -0.2979 -0.1889
18483W        W36687   7.376   8.817  14.923  0.3712  0.5105  0.1244
18484W        W36688  14.120   3.801   3.043  0.1513 -0.0577  0.0895
18485W        W36689   6.323   6.522  14.316  0.2967 -0.0524 -0.1526
18486W        W36690  12.282  11.821  13.959  0.2519 -0.0302 -0.0446
18487W        W36691  13.376   5.927   4.731 -0.1293  0.1119  0.0139
18488W        W36692  10.578  13.664  14.165 -0.0253 -0.0340  0.2482
18489W        W36693   4.299   5.267  15.128  0.0464 -0.1300 -0.1654
18490W        W36694  14.990  16.604  13.007 -0.2136 -0.2807  0.0575
18491W        W36695  13.676  13.075  13.710  0.2590  0.0551  0.0307
18492W        W36696  13.673   3.794   4.797  0.1572  0.0227 -0.0331
18493W        W36697   9.223   3.813   4.659  0.3363 -0.2128 -0.3059
18494W        W36698  14.409   4.948  17.114 -0.0744 -0.0338  0.0514
18495W        W36699   0.139   6.172  14.120  0.0324 -0.1253  0.1957
18496W        W36700  10.901   6.054  16.176  0.0756  0.2377  0.5146
18497W        W36701   6.019   5.338   3.105 -0.2382  0.0660  0.3204
18498W        W36702  16.301   1.330  13.336  0.0765 -0.3020  0.2417
18499W        W36703  12.057  10.147  16.298  0.2050 -0.1251  0.0671
18500W        W36704   4.805  16.396  14.556 -0.1549 -0.0012  0.3583
18501W        W36705   3.728   7.520   0.054 -0.1314  0.0571 -0.1852
18502W        W36706  15.658  16.376  12.597 -0.2404 -0.2821 -0.2049
18503W        W36707   9.195  14.850   0.825 -0.0426 -0.0331 -0.1630
18504W        W36708   9.692   0.202  14.404  0.3766  0.0436  0.0717
18505W        W36709   4.219   1.900   1.521 -0.0080 -0.2864 -0.2065
18506W        W36710  16.554   0.409   0.868 -0.0904 -0.1435 -0.0277
18507W        W36711   7.804  13.967   1.120 -0.1506  0.1661 -0.1473
18508W        W36712   1.340   5.336   4.900  0.2100 -0.2830  0.3045
18509W        W36713   3.770   1.570  13.503 -0.0693  0.0237  0.0820
18510W        W36714  10.610  11.725   0.617 -0.1105 -0.0737  0.1159
18511W        W36715   8.995  10.129   4.541  0.1743  0.0579  0.0171
18512W        W36716  14.727  11.344   0.869 -0.1521  0.0334 -0.0655
18513W        W36717   0.596   1.139   1.710  0.2294 -0.0481  0.1711
18514W        W36718  15.889  16.954  14.878 -0.1976 -0.0971  0.0127
18515W        W36719   7.044   1.535   0.917 -0.1593 -0.1687 -0.3239
18516W        W36720   3.013  13.241   2.536 -0.2976 -0.1770 -0.2919
18517W        W36721   5.909  13.071  15.054 -0.1550 -0.1534  0.0409
18518W        W36722  14.251   0.844   0.939 -0.0486  0.2067 -0.2141
18519W        W36723   2.871  10.541  13.743  0.2938 -0.2339  0.0589
18520W        W36724   8.797   9.886   4.007  0.2045 -0.1317  0.3419
18521W        W36725   4.510   7.027   4.071 -0.0945 -0.0008  0.1462
18522W        W36726   8.126   8.866  16.083  0.0180  0.0201 -0.0721
18523W        W36727  14.768   0.954   1.752  0.2286 -0.2784 -0.1638
18524W        W36728  12.816   9.520  16.544  0.1429 -0.1000  0.1663
18525W        W36729   6.834  10.822  11.772 -0.2383 -0.4285  0.0215
18526W        W36730  15.112   7.092  15.047  0.0267  0.0538  0.1569
18527W        W36731   6.423  14.958  16.999 -0.4448  0.0053 -0.1731
18528W        W36732  10.858   7.028   2.550  0.2296 -0.1565  0.3056
18529W        W36733  12.834  10.152   0.719  0.0815 -0.0739  0.3425
18530W        W36734   8.351  12.797   5.440 -0.1079  0.1732 -0.1418
18531W        W36735   8.641   5.379  12.608 -0.1512  0.2136 -0.3071
18532W        W36736  15.865   1.807   2.642 -0.0783 -0.1827  0.1115
18533W        W36737   0.748   0.170  14.996  0.2348  0.0051  0.1954
18534W        W36738  14.581   7.575   1.735  0.0705 -0.0033  0.0630
18535W        W36739   7.598  13.188  17.216  0.0615 -0.3263  0.0456
18536W        W36740   9.090  13.618   3.772 -0.1133 -0.2160  0.1704
18537W        W36741  14.172   2.021   2.176 -0.0217 -0.3446  0.1312
18538W        W36742   6.960  13.522   1.621 -0.2889  0.2336 -0.0384
18539W        W36743   1.129   1.160   1.823  0.3445 -0.2739  0.0637
18540W        W36744  12.686  16.722  15.866  0.0994 -0.0858  0.0942
18541W        W36745   3.507   6.737  16.939 -0.1375  0.0203 -0.0424
18542W        W36746  16.404   1.619  15.237  0.2542  0.0632  0.0786
18543W        W36747   2.734   0.954  16.646  0.2868  0.1840 -0.3595
18544W        W36748   9.746   5.284  17.155 -0.0671  0.3059  0.0665
18545W        W36749   7.446  11.582  13.980 -0.0653  0.0775 -0.2992
18546W        W36750   3.033  16.122  14.758  0.0392  0.0675 -0.2033
18547W        W36751   9.271   0.035   4.629  0.3725 -0.1374 -0.0406
18548W        W36752  12.657  11.599  15.290  0.0583  0.3608 -0.0962
18549W        W36753   5.904  15.159   4.564 -0.2336 -0.0160 -0.0657
18550W        W36754  16.490   6.693   2.757 -0.1272  0.0025 -0.1990
18551W        W36755  10.339   7.088  15.339  0.1471 -0.0835  0.1023
18552W        W36756   0.039   0.247   4.265 -0.3296 -0.0960  0.0275
18553W        W36757   4.713  11.075  14.675  0.3032  0.1133 -0.3403
18554W        W36758   0.341   9.922   5.194 -0.1902 -0.2764 -0.1668
18555W        W36759   4.617   3.543  16.479 -0.1604  0.1535  0.1923
18556W        W36760   8.616   6.228  16.301 -0.1730 -0.1238  0.0387
18557W        W36761  14.953  11.920   4.447  0.0177  0.0196 -0.1890
18558W        W36762  10.528  12.448  15.984 -0.0854 -0.1426  0.1130
18559W        W36763   0.582   3.514   1.418 -0.0782 -0.2519  0.1288
18560W        W36764   9.998   6.648  16.300 -0.0986  0.2266 -0.0506
18561W        W36765  15.190   6.960   4.897 -0.0044  0.0605  0.1173
18562W        W36766   1.650   2.808  12.735 -0.0549 -0.4800  0.1920
18563W        W36767   7.187   1.577  15.680 -0.0494  0.2322 -0.0554
18564W        W36768  12.759   3.204   4.709 -0.2230 -0.1779  0.1571
18565W        W36769  15.762   1.091  15.906 -0.0457 -0.2291  0.0849
18566W        W36770   9.775   5.154  11.455  0.2896 -0.0646 -0.1785
18567W        W36771  14.737   2.434   1.247 -0.1114 -0.2601  0.2304
18568W        W36772   3.272   9.590   1.091 -0.0222 -0.0424  0.0916
18569W        W36773  10.242  10.971   3.495 -0.0257  0.0179 -0.3082
18570W        W36774   4.084   7.071   1.416 -0.2598 -0.3680 -0.0990
18571W        W36775   9.040  10.643  13.696  0.0948  0.0779 -0.2564
18572W        W36776  16.741   2.940   0.599 -0.1775  0.3841 -0.0689
18573W        W36777   5.024   4.284   4.310 -0.1189 -0.2419  0.3100
18574W        W36778   8.352  11.711  14.475  0.0409  0.2739  0.0862
18575W        W36779  16.951  13.882   0.092  0.1685  0.0901 -0.2322
18576W        W36780   5.356   5.843   2.745 -0.0747  0.1113  0.1510
18577W        W36781  10.659   5.546  16.365 -0.0262 -0.0302  0.0407
18578W        W36782   2.826   8.169   2.956 -0.3033  0.1309  0.1441
18579W        W36783   9.827  10.407   0.828 -0.2838 -0.1276  0.5389
18580W        W36784   9.831   2.254  15.973 -0.2654 -0.3033  0.0747
18581W        W36785  15.695   8.084  16.667 -0.1327 -0.2689  0.2304
18582W        W36786   2.790  14.366   3.931  0.2510 -0.1003 -0.1622
18583W        W36787   7.307  11.570  16.789 -0.0187  0.0397  0.0964
18584W        W36788  10.907  16.623   0.881  0.0462 -0.0373  0.0482
18585W        W36789   6.925  14.648   4.699 -0.1607 -0.1744  0.0440
18586W        W36790   0.582   9.668  16.554 -0.0142  0.1562  0.0778
18587W        W36791  10.486   8.944   3.239 -0.2718  0.2528  0.1435
18588W        W36792   1.137   4.027   4.238 -0.4139 -0.0615 -0.0003
18589W        W36793   4.150   9.292  14.746  0.2169 -0.1353  0.0741
18590W        W36794   0.023   2.155   1.527  0.1575  0.0106  0.0243
18591W        W36795   8.072   1.757   1.055  0.0317 -0.5694 -0.1157
18592W        W36796   3.289   6.486  17.415 -0.0666  0.0798  0.0666
18593W        W36797  10.445   1.811   2.981 -0.3456  0.0141  0.1257
18594W        W36798   8.809   0.886   5.122 -0.0427 -0.1925 -0.1640
18595W        W36799  12.272  16.675   2.257 -0.1711  0.1028 -0.0905
18596W        W36800  13.410   6.547  13.715  0.0972  0.4063 -0.1218
18597W        W36801  16.013   1.002  14.790  0.0395 -0.2290 -0.1678
18598W        W36802   1.752   4.976  17.187  0.1840 -0.1183  0.2349
18599W        W36803   6.700   8.105   0.637  0.2593  0.1026  0.1110
18600W        W36804   8.506   4.146  14.696 -0.0689 -0.1292  0.2879
18601W        W36805  16.831   8.533  13.096  0.1199 -0.1696  0.0094
18602W        W36806   9.003   5.179   3.731 -0.2921 -0.0429  0.1323
18603W        W36807  11.725  15.634   3.848 -0.2962 -0.1656  0.0202
18604W        W36808   7.155  14.281  16.637  0.1829 -0.2794  0.0451
18605W        W36809   8.009   7.542  16.960  0.2005  0.1610 -0.2044
18606W        W36810  14.502   0.076   2.076  0.1735 -0.0441 -0.1121
18607W        W36811   5.809  12.677   5.278  0.1602  0.1646  0.0474
18608W        W36812  17.011  16.890   1.240 -0.2202  0.0301  0.2669
18609W        W36813  14.158  13.042   2.477 -0.0248  0.0365  0.2534
18610W        W36814  13.933   6.439   5.867 -0.0829 -0.1385 -0.2159
18611W        W36815   3.551  15.578   4.438 -0.1081  0.0278  0.0811
18612W        W36816   1.833   4.044  13.781 -0.0530 -0.2874  0.2509
18613W        W36817  10.803   6.435   4.964  0.1116  0.0417  0.1831
18614W        W36818   3.919  17.144   5.628 -0.0855  0.1221  0.0230
18615W        W36819   3.464  14.413  13.065  0.1315  0.0177  0.2035
18616W        W36820   8.155  15.901  14.960 -0.1028 -0.0953 -0.0384
18617W        W36821   5.668   6.098   0.643 -0.0218 -0.2364 -0.1392
18618W        W36822   5.685  13.091  14.438  0.2625 -0.1904 -0.1677
18619W        W36823  14.055   0.287   1.885  0.1984  0.4463  0.2360
18620W        W36824   1.424  12.895   3.962  0.1120 -0.0944  0.2535
18621W        W36825   3.706   9.665   1.990 -0.0797  0.0671  0.0210
18622W        W36826   1.072   4.458   0.625  0.1989  0.0488  0.0342
18623W        W36827   8.050  10.707   1.004 -0.2686 -0.3234 -0.2109
18624W        W36828   5.674  16.032  15.861  0.2199 -0.2603  0.1384
18625W        W36829  15.171  14.124   2.536  0.2752  0.0994  0.1990
18626W        W36830   8.080   0.708   2.970 -0.1096  0.0163  0.0383
18627W        W36831   5.959   8.337   0.364  0.1952  0.3524  0.0485
18628W        W36832   5.076   7.972  12.688 -0.1743 -0.1039  0.1670
18629W        W36833  15.592   2.011   2.194 -0.1373  0.0319 -0.0767
18630W        W36834  15.980  13.542  14.330  0.3038 -0.0444  0.0220
18631W        W36835  12.997  11.928  15.279  0.1617 -0.2317  0.1026
18632W        W36836   6.140   3.489   4.257 -0.1264 -0.0140 -0.0225
18633W        W36837   0.647   5.646   6.207  0.0093  0.0755 -0.1702
18634W        W36838  12.259   2.614   1.987  0.0602  0.3102  0.4408
18635W        W36839  10.677   8.711   5.132  0.0864  0.0918 -0.2615
18636W        W36840   8.193  11.749   3.159 -0.1920 -0.1139 -0.1727
18637W        W36841   8.037  14.861  15.129 -0.1651 -0.2070  0.0633
18638W        W36842   3.552   6.897   4.414  0.2903  0.0136 -0.4549
18639W        W36843   1.044   7.792  14.025  0.1752 -0.0330  0.1891
18640W        W36844   0.107  14.063  15.846  0.4043 -0.0009 -0.0343
18641W        W36845  11.235   1.863  13.902  0.1405  0.1173  0.1587
18642W        W36846   1.868   2.439   2.435  0.1081 -0.0801 -0.0002
18643W        W36847  13.553   3.439  12.426  0.2011 -0.0909 -0.3248
18644W        W36848   0.150  17.130   4.488  0.0199  0.0663  0.1019
18645W        W36849  11.319   8.313   0.715  0.0161  0.0068  0.1262
18646W        W36850   4.105  15.277   0.680 -0.0953 -0.4406 -0.1494
18647W        W36851   1.115   5.022  15.381  0.0418 -0.1658 -0.1080
18648W        W36852   7.699  16.419   5.189 -0.0158 -0.1086  0.0508
18649W        W36853  16.214   8.163   5.093  0.0984  0.1220 -0.1421
18650W        W36854  15.199  15.968  14.764  0.4588  0.0256  0.0170
18651W        W36855   1.980  17.271   1.654 -0.1956  0.1544 -0.0933
18652W        W36856  13.443  16.008  16.961  0.0930 -0.0161  0.1753
18653W        W36857   0.868  16.422  16.517  0.0510  0.2163  0.1331
18654W        W36858  13.880   4.382  14.533  0.0709 -0.2211  0.0268
18655W        W36859   2.153   6.821   2.178  0.0709  0.0314 -0.2207
18656W        W36860  15.010  13.664   3.655 -0.0628  0.0969 -0.2245
18657W        W36861   0.702   2.686   1.072 -0.1964  0.2704 -0.2822
18658W        W36862   4.080   3.853  14.957  0.3034 -0.1717  0.0023
18659W        W36863   6.256  16.062   1.832 -0.0120  0.2356  0.0251
18660W        W36864   0.524  15.219   5.208 -0.1101 -0.1878 -0.5519
18661W        W36865  11.662   8.377  16.427  0.1027  0.2444  0.0340
18662W        W36866   6.912   6.843   3.970 -0.0161 -0.1476  0.1570
18663W        W36867  12.528  12.090   0.528 -0.0211 -0.0042  0.1149
18664W        W36868   8.808  10.580   4.688  0.1894  0.0771 -0.2021
18665W        W36869   2.367   6.830  12.576  0.1415  0.2148  0.0845
18666W        W36870   7.991   5.183   4.636  0.0753 -0.1042 -0.2515
18667W        W36871   0.237  11.384   2.943 -0.0170  0.1075  0.0855
18668W        W36872  13.830   4.771  13.770  0.3486 -0.0585 -0.0963
18669W        W36873  11.039  10.780  15.279  0.0998  0.0525 -0.0621
18670W        W36874  10.999  12.859   5.735  0.1212 -0.0572  0.2169
18671W        W36875   1.205   2.918   0.957 -0.2017  0.2209 -0.2491
18672W        W36876   2.402  11.612   5.776 -0.2497  0.1319  0.1346
18673W        W36877   3.532   6.131  17.142  0.1469 -0.1125 -0.1061
18674W        W36878   0.744   1.122  13.240 -0.1470  0.0594  0.1066
18675W        W36879  13.464  14.998  15.106  0.2494  0.0316  0.3064
18676W        W36880   1.594   8.075   3.224 -0.0213  0.2394  0.0139
18677W        W36881   9.161   8.620  12.143  0.1311 -0.1343 -0.0756
18678W        W36882  11.467   2.377  11.117  0.0776 -0.0302  0.1118
18679W        W36883   6.976   7.632   5.098 -0.1176 -0.2338  0.2660
18680W        W36884   8.290   4.076  13.875 -0.1521  0.3090 -0.1766
18681W        W36885   6.545   3.788  15.824 -0.0396 -0.2875 -0.0469
18682W        W36886   7.725   5.589  11.987 -0.3048 -0.2834 -0.0432
18683W        W36887   7.993   1.309  16.894 -0.2112 -0.1909  0.1440
18684W        W36888   7.379   6.810  13.665  0.3364  0.0585  0.0524
18685W        W36889  10.521  12.718   3.922  0.1780 -0.2166 -0.0701
18686W        W36890   1.826   7.933   4.306 -0.1485  0.1436 -0.1375
18687W        W36891   3.249   3.370   3.964 -0.1168  0.0407 -0.0256
18688W        W36892   6.329   1.601  15.631 -0.0991 -0.1021  0.0359
18689W        W36893  15.322  10.435  14.101 -0.4589  0.2213 -0.0671
18690W        W36894  16.057   3.244   1.720 -0.0093 -0.0364 -0.3752
18691W        W36895   3.660   7.626   5.070  0.3084 -0.1558 -0.1649
18692W        W36896   9.149  16.714   4.052 -0.4177 -0.2632  0.4979
18693W        W36897   2.799   8.774  11.254 -0.2928 -0.1111  0.3716
18694W        W36898   7.975  14.068  16.438 -0.0679  0.1116 -0.1761
18695W        W36899  15.843  10.385  13.287 -0.0006  0.3217  0.1277
18696W        W36900  11.405   0.346   5.097  0.0871  0.1311 -0.0305
18697W        W36901   0.685  13.926  15.215 -0.0055 -0.1837 -0.0201
18698W        W36902  10.511   1.422   0.140  0.0427  0.0838 -0.1940
18699W        W36903  13.413   0.701  17.089  0.0121 -0.0655  0.3515
18700W        W36904  15.294  15.835  16.014  0.0041 -0.1258 -0.2043
18701W        W36905   0.001  13.825   4.096  0.2932  0.2939 -0.0978
18702W        W36906  12.469  15.410  16.061  0.0613 -0.1766  0.4095
18703W        W36907  13.221  15.068  15.897  0.1217  0.0999  0.3144
18704W        W36908  13.403   1.320   3.572 -0.0506 -0.1502  0.2551
18705W        W36909   4.501  17.140  14.188 -0.0448 -0.3339 -0.4070
18706W        W36910  13.996   6.886   3.905 -0.1371  0.0490  0.1047
18707W        W36911   2.820   3.347   3.558 -0.0968 -0.0198  0.4077
18708W        W36912  11.306   7.647  14.383  0.2388  0.0174 -0.0723
18709W        W36913   1.941  14.327   2.591 -0.1363  0.0135 -0.2591
18710W        W36914   0.377  15.754  14.487 -0.3957 -0.1772  0.2186
18711W        W36915   0.222  16.818   2.633  0.1695  0.0178 -0.1265
18712W        W36916  10.164   8.780   2.175 -0.0749 -0.1261 -0.2625
18713W        W36917   8.650  13.558  15.814  0.0323 -0.0402  0.0904
18714W        W36918   2.371   1.186   3.393 -0.0032 -0.1000 -0.0294
18715W        W36919   7.323   0.541   4.089  0.0858 -0.1889  0.3084
18716W        W36920  11.214  10.118   4.710  0.1104 -0.1280  0.0074
18717W        W36921  13.808   5.912   5.038 -0.1486  0.2127 -0.0698
18718W        W36922   4.537   1.511   3.223 -0.2689  0.0537 -0.2063
18719W        W36923  15.301  11.670   4.727 -0.0393  0.0564 -0.0956
18720W        W36924  14.247   3.489  13.570  0.0270  0.0532  0.1118
18721W        W36925   3.168   5.339   2.404 -0.1120 -0.3404  0.3024
18722W        W36926  15.351  14.866   5.038 -0.0998  0.2812 -0.2248
18723W        W36927   0.633   3.332  14.138 -0.2251  0.0170  0.2552
18724W        W36928   3.742   9.494   0.895 -0.1655 -0.0097  0.4488
18725W        W36929   4.635   9.514  12.236 -0.1814 -0.1656 -0.3053
18726W        W36930   7.556   7.438   1.224 -0.0812  0.2489  0.0876
18727W        W36931  16.786  15.506  16.527  0.0724  0.1572 -0.0470
18728W        W36932  14.258  12.766  11.317  0.2795  0.2219  0.1350
18729W        W36933  10.337  14.858  13.248 -0.0596 -0.0232 -0.1738
18730W        W36934   3.037   1.580  17.331 -0.1208  0.0574 -0.0220
18731W        W36935  14.050   5.271   5.097 -0.2007  0.1333 -0.2100
18732W        W36936  14.576   7.899   2.091 -0.1351 -0.0755  0.1493
18733W        W36937   6.278   1.261  16.546 -0.2034 -0.0137 -0.1331
18734W        W36938  15.194   6.208  14.659  0.1101 -0.0864  0.1096
18735W        W36939   1.857   8.015   1.448  0.1772  0.0254 -0.0575
18736W        W36940   5.026  16.256  17.027 -0.1126  0.0525 -0.0553
18737W        W36941  15.548   6.843   3.107  0.0325  0.1110  0.0421
18738W        W36942   6.284  15.886   5.055 -0.1999 -0.1646  0.3753
18739W        W36943   0.163   7.355   4.947 -0.0951 -0.1722 -0.0003
18740W        W36944   4.742   2.610  15.658  0.0739  0.1653 -0.0106
18741W        W36945   7.352  13.424  12.321  0.1586  0.0038  0.0178
18742W        W36946   8.308   7.739  12.340  0.5190  0.2249  0.1489
18743W        W36947   3.510   1.333  16.402  0.0971  0.0727  0.2139
18744W        W36948  13.874   7.064   2.017  0.0828  0.3274  0.0934
18745W        W36949   1.223  15.142   0.107  0.0498  0.0672 -0.3346
18746W        W36950  12.119   9.031  15.836 -0.0608  0.0999  0.2234
18747W        W36951   7.763  14.982  13.828 -0.1254 -0.1086 -0.3724
18748W        W36952  13.740  10.922  12.132  0.3117 -0.1324 -0.0708
18749W        W36953  13.540  14.033   0.456  0.0234  0.0221  0.0844
18750W        W36954   8.313  11.931  13.026 -0.0677  0.1634  0.5786
18751W        W36955   1.104  10.395   0.665 -0.3179  0.1751 -0.0025
18752W        W36956   3.281   3.914   4.883  0.2787  0.0037  0.2629
18753W        W36957   1.399   2.067  13.838  0.1425  0.1615  0.0463
18754W        W36958   7.742  16.396   6.121 -0.0594 -0.3528  0.2287
18755W        W36959  13.253   6.580  12.922  0.0761  0.1265 -0.1886
18756W        W36960  10.007  15.879   3.454  0.1022  0.0993 -0.1767
18757W        W36961  16.233  16.959   2.379  0.1160 -0.2346 -0.1170
18758W        W36962   2.474   3.197   1.353 -0.0520  0.1370  0.0063
18759W        W36963   0.228  10.520   1.090 -0.1363 -0.0967  0.0239
18760W        W36964  11.686   7.014   2.844  0.0297 -0.2035  0.0686
18761W        W36965  14.541   5.844   1.854 -0.2830  0.0960 -0.2080
18762W        W36966   8.518   7.280   4.932  0.1130 -0.1160  0.0324
18763W        W36967   4.408   0.514   1.372  0.0426  0.1899 -0.0077
18764W        W36968  16.422  11.027   3.809  0.1686  0.0308 -0.2984
18765W        W36969  10.397  11.417  15.675 -0.1786  0.0507 -0.3276
18766W        W36970  16.919   6.706  13.563 -0.1526 -0.0663  0.1222
18767W        W36971   5.803  10.493  17.309  0.1097  0.1131 -0.2312
18768W        W36972  17.220  17.134   2.397 -0.1423 -0.1776  0.0298
18769W        W36973  13.598   4.021  17.352  0.1254 -0.0049 -0.1287
18770W        W36974   8.375  13.579   3.050  0.0629 -0.2549 -0.2125
18771W        W36975  12.847  13.788   4.005  0.0274  0.2919  0.0215
18772W        W36976   8.186  15.190  14.231  0.0629  0.0515 -0.1980
18773W        W36977  13.011   6.286  13.266  0.0558  0.2541 -0.0315
18774W        W36978  12.325   8.087   2.283 -0.2179  0.3855 -0.0710
18775W        W36979  15.914   4.837  13.862 -0.1659  0.0301  0.2130
18776W        W36980  12.001   7.938   2.742  0.0432  0.1633  0.1109
18777W        W36981   3.252   3.502   5.243 -0.3541  0.0636  0.3373
18778W        W36982   2.593   1.525  16.728  0.0715 -0.1503  0.2464
18779W        W36983  11.955  10.424  17.296  0.0762 -0.1273 -0.1679
18780W        W36984   9.007   5.950   4.334 -0.2772  0.2583 -0.0403
18781W        W36985   7.798  11.843  16.063 -0.0707 -0.0104 -0.0120
18782W        W36986  17.206  13.596  13.203  0.1685  0.2103 -0.0988
18783W        W36987   4.032  14.659   4.650 -0.1560 -0.2289  0.1014
18784W        W36988  16.781   7.800   3.826  0.2751 -0.0153  0.0874
18785W        W36989   6.105  11.356   5.213  0.2248 -0.0655  0.0947
18786W        W36990  15.345   4.641   2.576 -0.5309  0.2554  0.1056
18787W        W36991   4.696   4.120   3.202 -0.1775  0.3161  0.0577
18788W        W36992  11.947   0.180  15.857  0.1031 -0.0121 -0.1606
18789W        W36993   6.869   0.888   5.407 -0.0155  0.0233 -0.2040
18790W        W36994  13.541  13.506  17.195 -0.0222  0.3019 -0.0671
18791W        W36995   9.292  11.311  15.335 -0.0738  0.0466  0.4085
18792W        W36996   1.114  16.978   2.629 -0.0692  0.2445 -0.3010
18793W        W36997  12.770  11.773  13.788 -0.0895 -0.1233 -0.3337
18794W        W36998  16.299  13.747   2.615 -0.4014  0.0077 -0.3609
18795W        W36999  15.104  17.162   3.363  0.2045 -0.2239  0.0548
18796W        W37000   5.082  14.726  12.870 -0.0546  0.2819 -0.2767
18797W        W37001  12.141   1.082  16.304 -0.1591 -0.0030 -0.1913
18798W        W37002   9.107   8.435  16.481 -0.2046  0.1048  0.0238
18799W        W37003   3.679   5.487  15.793 -0.2215 -0.1891  0.1188
18800W        W37004   8.294   4.017   4.511  0.0174 -0.2360 -0.1136
18801W        W37005   9.115   2.360   4.413  0.0190 -0.2962  0.1398
18802W        W37006   7.599  10.271   5.145  0.1962 -0.2797  0.0167
18803W        W37007   2.900   2.204   3.292  0.0758  0.3181 -0.4914
18804W        W37008   3.547   9.257   5.736 -0.4249  0.1737 -0.2124
18805W        W37009   4.164  15.727   2.532  0.0797 -0.0821 -0.2855
18806W        W37010   2.550  11.115   5.847 -0.0028 -0.0237 -0.4211
18807W        W37011   5.144  14.802   3.324  0.3870 -0.0145 -0.1646
18808W        W37012  10.207   0.803   2.544  0.0244 -0.1336  0.0291
18809W        W37013  11.753   7.186   0.392 -0.1349  0.1187 -0.3015
18810W        W37014  13.627  11.037  14.688 -0.2799 -0.0045 -0.1966
18811W        W37015  11.921  15.989  12.405  0.2019  0.0942 -0.1284
18812W        W37016   3.242  12.650   3.664 -0.3619  0.0771 -0.3515
18813W        W37017  10.213   9.361   4.496  0.0333  0.1299  0.0513
18814W        W37018   6.353  12.890  15.802  0.0401  0.1550 -0.1321
18815W        W37019  10.784   0.796  17.441 -0.1370  0.1120  0.0109
18816W        W37020   7.448   9.602  14.962 -0.1473 -0.0239 -0.0364
18817W        W37021  16.436  14.476   4.190 -0.2366 -0.3553  0.1948
18818W        W37022  11.314   1.453  12.415  0.0112 -0.0259  0.3544
18819W        W37023   9.338   7.846   5.063 -0.1275 -0.0753 -0.2635
18820W        W37024  13.771   1.884   2.582 -0.0091  0.1535  0.0893
18821W        W37025   0.683   3.020   4.137 -0.2754 -0.0009  0.2697
18822W        W37026  11.210   9.491  14.716  0.2397 -0.1889 -0.0704
18823W        W37027   8.295   5.005  13.492  0.1257  0.0710  0.0146
18824W        W37028   5.941   9.587  14.700 -0.1039 -0.1357  0.0454
18825W        W37029   9.329   5.881  14.636 -0.1674  0.0121  0.1591
18826W        W37030  17.248  15.002  15.488  0.0736 -0.0278 -0.4498
18827W        W37031  15.911   9.889  16.184  0.1222 -0.0758  0.1169
18828W        W37032  16.944  12.113   0.760 -0.2613  0.1128 -0.0943
18829W        W37033  13.208  15.834  13.809  0.0132  0.0317  0.3108
18830W        W37034  12.230   4.716   2.165  0.0109 -0.3979 -0.1220
18831W        W37035  11.497   3.696  12.420 -0.0951  0.1828 -0.0337
18832W        W37036   4.995  14.105   1.701 -0.1825 -0.0268 -0.3988
18833W        W37037  12.459   4.820  16.817 -0.0395  0.2846 -0.0412
18834W        W37038  13.664   6.015   6.118 -0.0631 -0.0326  0.2259
18835W        W37039  13.480   3.834   2.776  0.0447  0.0178  0.2229
18836W        W37040   5.497   7.404  15.871  0.0718 -0.1408 -0.3922
18837W        W37041   7.137  10.053  13.592  0.0407  0.0228 -0.0340
18838W        W37042   7.002  13.598  12.610  0.1036 -0.4141 -0.0063
18839W        W37043  11.499   0.037  15.632  0.1189  0.1725  0.0387
18840W        W37044  14.872   5.580  14.004  0.0984  0.1634  0.1575
18841W        W37045  16.814   7.708  16.416  0.0929  0.2497  0.0562
18842W        W37046   2.461   1.722   4.363  0.0360 -0.1219 -0.2241
18843W        W37047  12.510   6.866  16.787 -0.1980 -0.3046  0.1413
18844W        W37048  11.776   0.439   2.868  0.3518 -0.1785  0.3060
18845W        W37049  14.154  14.105  13.199  0.0481  0.4015 -0.2111
18846W        W37050  10.511   5.189   4.453 -0.2209  0.0209  0.2365
18847W        W37051   5.419   8.418   1.017  0.0755 -0.0683 -0.0126
18848W        W37052   2.120  16.159   0.035 -0.0680  0.2124 -0.1688
18849W        W37053  11.265   6.348  13.893  0.0371  0.0732  0.1657
18850W        W37054   7.212   8.361   3.985 -0.1554  0.1359  0.4430
18851W        W37055   8.021   4.834  16.361  0.2017 -0.2086  0.0780
18852W        W37056   0.591  10.243   4.473  0.1158  0.0317  0.2566
18853W        W37057   4.998   6.837   2.778 -0.0190  0.1175  0.0360
18854W        W37058  16.624   8.512  15.734  0.0118 -0.0323 -0.0585
18855W        W37059   2.058   2.480  12.592  0.0003 -0.1703 -0.0154
18856W        W37060  12.428   2.607  17.233  0.0306 -0.1834 -0.1674
18857W        W37061   5.652  17.197  14.802 -0.0196  0.3079  0.2918
18858W        W37062   9.789  10.696   4.906 -0.2710  0.4063 -0.2116
18859W        W37063  10.225   4.272  12.728 -0.0817  0.3467  0.3811
18860W        W37064   8.866   7.826   0.077 -0.1484  0.0465  0.0510
18861W        W37065   3.724   5.766  17.510 -0.0193 -0.0153 -0.1186
18862W        W37066   6.000   5.134   1.323 -0.0963 -0.4724 -0.0183
18863W        W37067  16.727  10.716   6.577 -0.1397 -0.1095  0.0575
18864W        W37068   9.622   4.714  14.704 -0.4617  0.0231  0.0392
18865W        W37069   2.085   7.033   5.274  0.1561  0.0180 -0.2680
18866W        W37070   8.408  14.285   2.509  0.1827  0.1083 -0.0829
18867W        W37071   8.228  11.982  13.512 -0.1028 -0.2032 -0.1147
18868W        W37072   2.776  15.477  15.799  0.1735  0.2494 -0.1171
18869W        W37073   1.865  14.749   1.104 -0.0783  0.1667 -0.0669
18870W        W37074  14.874   5.564   1.634  0.1279  0.1210 -0.2077
18871W        W37075   0.229   8.668   5.376 -0.2121  0.0000  0.0625
18872W        W37076  12.506   6.162   1.554  0.0496  0.1312 -0.0544
18873W        W37077  10.547  15.788   3.292 -0.0035 -0.1734 -0.0861
18874W        W37078   2.294  10.985  15.150 -0.0576 -0.0819  0.1428
18875W        W37079  16.221   3.994  13.452 -0.0697  0.2841  0.3286
18876W        W37080  11.652   4.235  16.106 -0.1341 -0.1400 -0.0696
18877W        W37081   1.354  10.251  13.612 -0.2352  0.1502  0.0341
18878W        W37082   4.386   6.848   6.039 -0.1644 -0.2986 -0.0722
18879W        W37083   1.208   3.076   1.431  0.0490  0.0693 -0.1500
18880W        W37084   3.353   2.060  14.980 -0.0477 -0.2096  0.2183
18881W        W37085   7.922  12.476   0.336 -0.0286 -0.3752 -0.1777
18882W        W37086  11.158   4.707  15.268  0.0152  0.2064 -0.2798
18883W        W37087  13.039  16.810   0.752 -0.3312 -0.0143  0.0346
18884W        W37088  13.390   0.203  16.795 -0.1275  0.2009  0.4121
18885W        W37089  10.232   6.175  14.772  0.4464 -0.1538  0.0480
18886W        W37090  11.136  13.031  13.230  0.1514  0.1447 -0.1032
18887W        W37091   8.628   7.646  16.587 -0.0481  0.2873  0.2187
18888W        W37092   4.476   8.307   0.857 -0.2897 -0.0505 -0.2826
18889W        W37093   0.927   7.091  12.968  0.0958 -0.0941 -0.0089
18890W        W37094   3.658   8.155  13.975  0.2683  0.0671  0.1813
18891W        W37095   4.242  14.802  13.014 -0.1149  0.2604  0.0973
18892W        W37096   6.588  14.049  17.279 -0.0550 -0.3138  0.1365
18893W        W37097   7.633  16.851   3.750 -0.0842 -0.3248 -0.0337
18894W        W37098   1.535   7.798  13.278 -0.2930 -0.0304 -0.0380
18895W        W37099   3.675  16.466  14.254  0.4644  0.0617 -0.2133
18896W        W37100   1.419   4.803   0.537  0.1225 -0.0206 -0.0248
18897W        W37101   9.059   0.680  12.904 -0.4298  0.1554  0.2989
18898W        W37102   8.608  10.420  16.956 -0.2224 -0.1919  0.0127
18899W        W37103   6.508   2.225   4.414  0.0696 -0.0603 -0.2279
18900W        W37104   0.141  15.912   2.168 -0.0826  0.0061  0.0914
18901W        W37105   5.735   7.329  12.166  0.0279  0.0849  0.3830
18902W        W37106  10.479  13.703  14.616  0.0981  0.1285 -0.3065
18903W        W37107  14.050   4.564   4.952 -0.2450  0.2622 -0.1184
18904W        W37108   3.067  10.447  13.320 -0.0644  0.1303 -0.0462
18905W        W37109  16.147  10.534   1.042  0.0583  0.0553  0.1624
18906W        W37110   8.414  11.294   5.272  0.4323 -0.3697  0.2668
18907W        W37111   3.427   6.192  15.100 -0.0903  0.0901  0.3851
18908W        W37112   0.553   4.766  14.913  0.1554  0.2526  0.1603
18909W        W37113   4.003   4.107  13.581 -0.2971 -0.0367  0.0806
18910W        W37114   0.106   7.175  14.855  0.0069  0.0050  0.3406
18911W        W37115  14.634   9.651   5.004 -0.0322 -0.1040 -0.0805
18912W        W37116   7.068   8.194   2.402  0.3161  0.2269 -0.2146
18913W        W37117  15.682  16.998  13.972  0.3431 -0.0929 -0.0457
18914W        W37118  16.816  16.634   2.970  0.1203  0.0563  0.1821
18915W        W37119   4.594   4.152  15.443  0.2754  0.1476 -0.1154
18916W        W37120  15.553   7.236   2.272  0.3469 -0.2917  0.3511
18917W        W37121  16.547   3.343  13.976  0.0995 -0.0003  0.0371
18918W        W37122   0.680  13.631   1.200  0.2298 -0.0164 -0.0118
18919W        W37123   5.440   1.966  13.671  0.2321  0.2267  0.1132
18920W        W37124   6.109  15.888   4.229  0.1627  0.0952  0.1767
18921W        W37125   2.887  14.787   3.667 -0.1186 -0.0112  0.1566
18922W        W37126   9.837   7.117   3.119 -0.1427 -0.0501  0.2468
18923W        W37127   9.869   5.702  15.836 -0.2058 -0.0857 -0.1098
18924W        W37128   5.205  10.636   0.508  0.1289  0.3111 -0.0426
18925W        W37129   8.897   0.593   2.704 -0.4316 -0.0711 -0.0908
18926W        W37130   5.649  15.731   0.486  0.0327 -0.1017  0.4382
18927W        W37131   2.636  16.643   4.518 -0.2759 -0.0214  0.2950
18928W        W37132  15.755   2.128  14.268  0.2264 -0.0516  0.4982
18929W        W37133   5.564  12.180  13.754 -0.0689  0.0448 -0.2972
18930W        W37134   8.930  10.451   1.053  0.0620 -0.0178  0.0112
18931W        W37135   5.848  16.761   3.950 -0.0728 -0.0016 -0.1016
18932W        W37136   5.214   3.203   2.382 -0.0472  0.0119 -0.0648
18933W        W37137   8.870  14.208  13.856 -0.0004  0.1548  0.2196
18934W        W37138   3.019  10.821  14.687  0.3959 -0.0538 -0.0193
18935W        W37139   0.303   8.145  16.242 -0.2481 -0.0376  0.0968
18936W        W37140  12.114   2.506   2.772  0.2515  0.0615 -0.0701
18937W        W37141   5.659   7.967   2.104  0.1210  0.3490 -0.0263
18938W        W37142   4.604   5.024  15.463  0.0029 -0.2339 -0.1792
18939W        W37143  10.581  12.167  12.160  0.2042  0.2217  0.0213
18940W        W37144   1.487  15.706   4.594 -0.0351  0.2366 -0.1811
18941W        W37145   1.764  10.494   0.400  0.0489 -0.0157 -0.1265
18942W        W37146  11.146   6.198  14.740  0.1805  0.0701 -0.0177
18943W        W37147   3.664   6.456   1.770 -0.1472 -0.2364  0.1067
18944W        W37148  10.849  14.050   2.240  0.1706  0.1705 -0.1467
18945W        W37149   3.830  16.684  17.384 -0.2713 -0.1407 -0.0644
18946W        W37150  15.727   9.038  15.657 -0.0623  0.1995 -0.0022
18947W        W37151  13.160   5.122  12.041 -0.0993 -0.3191 -0.0315
18948W        W37152   3.232   7.343   1.718 -0.1115  0.2607 -0.2448
18949W        W37153   7.011  15.931  12.634  0.0495 -0.2379  0.0621
18950W        W37154   7.698  16.352   3.528 -0.0983 -0.2906 -0.1579
18951W        W37155   8.074   8.377  16.836  0.1891  0.0750  0.0849
18952W        W37156  10.760   7.720   2.822 -0.0681 -0.2017 -0.0903
18953W        W37157  10.655  13.573   1.178 -0.0361 -0.1717  0.0735
18954W        W37158   6.780   9.281  13.124 -0.2367 -0.2491  0.0030
18955W        W37159   2.734   1.445   5.149  0.1268 -0.1558  0.0927
18956W        W37160  17.277  14.913  13.800 -0.0245 -0.0384 -0.2913
18957W        W37161   9.949   4.155   1.463 -0.2040 -0.0698  0.0025
18958W        W37162  12.380   8.322   0.005 -0.0731 -0.1087 -0.2172
18959W        W37163   5.602   9.328  12.449 -0.2095  0.0149 -0.0905
18960W        W37164   2.611   5.781   3.147  0.3004  0.3237  0.2542
18961W        W37165  11.364   5.119   3.564  0.1749 -0.0074 -0.3322
18962W        W37166  11.553  12.274  13.520  0.0473 -0.0140  0.0481
18963W        W37167   5.067  11.491   4.900  0.4104  0.1220  0.1681
18964W        W37168   6.515   4.590  17.025  0.0160 -0.1840  0.0351
18965W        W37169   4.488   2.625   6.247  0.0662  0.4395  0.1802
18966W        W37170   2.570   0.833  14.799 -0.1653 -0.1295 -0.1682
18967W        W37171   1.841  10.816   0.863 -0.0548 -0.1299 -0.2326
18968W        W37172   4.265  14.074   1.396 -0.1993 -0.1407 -0.2304
18969W        W37173  15.307  13.247  15.955 -0.0427 -0.1820 -0.0359
18970W        W37174  16.416   6.351   3.860  0.0751  0.0995 -0.1146
18971W        W37175   9.956   4.931  14.257  0.4126 -0.1503 -0.0419
18972W        W37176  16.100   6.060   3.095  0.3209  0.2105 -0.2894
18973W        W37177   5.888  16.226   3.872  0.0004  0.0850 -0.0668
18974W        W37178  11.090   8.590  15.233  0.5694 -0.3188 -0.0012
18975W        W37179  16.950   0.405  13.905 -0.2569  0.1848 -0.1327
18976W        W37180   5.039   0.679  15.313  0.0966 -0.4044 -0.0181
18977W        W37181   5.603  13.336  16.152 -0.0865  0.1425 -0.0667
18978W        W37182   1.414  16.803   5.167  0.0591  0.0757 -0.0613
18979W        W37183   7.711   8.214   0.680 -0.0064  0.1557 -0.1444
18980W        W37184   2.262  10.478   0.432  0.0700 -0.2946  0.0487
18981W        W37185  16.600   2.115  15.282 -0.1028 -0.0605  0.1195
18982W        W37186  15.352   2.246   0.752  0.1548  0.0802  0.0871
18983W        W37187   8.994   6.487   1.768 -0.1056 -0.0227  0.1982
18984W        W37188  15.476  14.735  17.027 -0.1275  0.1481 -0.0267
18985W        W37189  12.700   3.920   2.204 -0.0917 -0.0106  0.2714
18986W        W37190  12.431  15.028   4.104  0.2177 -0.3825 -0.0718
18987W        W37191   0.426   6.177  15.753  0.0117 -0.0797 -0.0297
18988W        W37192   3.972  15.122  16.920 -0.1216  0.1112 -0.2239
18989W        W37193   5.681  15.369   2.764  0.3279 -0.0120 -0.0365
18990W        W37194  11.112  15.780  17.258  0.1635 -0.0341 -0.0286
18991W        W37195  17.215   3.330  14.706  0.1441  0.3310 -0.0817
18992W        W37196   2.120  11.937  15.226  0.2613  0.0064 -0.0452
18993W        W37197  14.863   4.702  14.569 -0.0402 -0.0094  0.0337
18994W        W37198  15.255   6.222   4.227  0.2168  0.0708 -0.0382
18995W        W37199   5.401  15.110   2.425  0.0851  0.1476 -0.1225
18996W        W37200  12.485  11.222  13.319 -0.0376  0.0458 -0.0450
18997W        W37201  14.796  11.417  16.822  0.0679 -0.0735 -0.0447
18998W        W37202  16.304  11.667   0.109  0.0629 -0.0344 -0.0979
18999W        W37203   2.192  12.661  12.814  0.0484  0.0337  0.0599
19000W        W37204   0.813  13.902   2.920 -0.0887 -0.1321 -0.2633
19001W        W37205   7.638  16.370  14.564 -0.0624 -0.2983  0.0376
19002W        W37206   7.769  12.131  15.067 -0.0690  0.1716  0.0959
19003W        W37207  10.511   3.282  13.450 -0.0166 -0.1705 -0.0165
19004W        W37208   4.745   3.846  16.961  0.0088  0.2428  0.0469
19005W        W37209   4.208   1.542  13.211 -0.1258  0.1185 -0.0908
19006W        W37210   6.197  10.332   3.444  0.1040  0.1948  0.1841
19007W        W37211  12.995  17.130  12.020 -0.1659 -0.0161 -0.1841
19008W        W37212  10.308   3.789  14.877 -0.1726 -0.1034  0.2387
19009W        W37213  17.007  14.584   1.112  0.4297  0.2123  0.0399
19010W        W37214  10.752   6.429   0.784  0.0159 -0.4203 -0.0441
19011W        W37215  13.708  12.592  13.593  0.0031 -0.4268  0.0924
19012W        W37216  10.874  10.271  15.189 -0.1215  0.0367 -0.1121
19013W        W37217  15.392   6.224   0.023 -0.0592  0.1521  0.0855
19014W        W37218   1.209   0.311   0.571  0.1977  0.2061 -0.2044
19015W        W37219   6.917   1.898   5.113 -0.0130  0.4905  0.2680
19016W        W37220   0.885   5.216   2.892  0.1484 -0.1995  0.3453
19017W        W37221  14.451   7.254   0.727  0.0711 -0.1051 -0.3226
19018W        W37222  11.935  11.424   2.335 -0.2909 -0.0386  0.1311
19019W        W37223  10.176   8.226   5.251  0.1433 -0.2775 -0.2413
19020W        W37224  13.337   8.470   2.543  0.0268 -0.2329  0.2425
19021W        W37225  13.114   2.186  14.173 -0.0955  0.1121  0.1278
19022W        W37226   4.606   3.737  14.113 -0.2254 -0.0302 -0.0428
19023W        W37227  14.134   7.750   1.311  0.1257 -0.1703  0.0860
19024W        W37228   7.773  10.553   4.730 -0.2260 -0.0912 -0.0722
19025W        W37229  10.327   2.535  12.074  0.0560 -0.0723  0.1684
19026W        W37230  11.938  17.211   5.036 -0.3005 -0.0343  0.0409
19027W        W37231   1.810  10.672  11.311  0.1986 -0.1583  0.1651
19028W        W37232   5.604   3.873  16.503  0.1613 -0.1147 -0.2213
19029W        W37233   9.721   0.384  15.766 -0.0454  0.4649  0.0522
19030W        W37234  15.160   9.781   0.823 -0.0950  0.1256 -0.0025
19031W        W37235  14.061   3.873   1.525 -0.2193 -0.0146  0.0961
19032W        W37236  13.481  11.232   3.484  0.1592  0.1581 -0.4889
19033W        W37237  12.208   0.257  15.403  0.3870 -0.0379 -0.2407
19034W        W37238  13.323  15.303   2.420  0.0377 -0.1887 -0.0794
19035W        W37239   4.754   4.917  17.261 -0.4637 -0.0015  0.0191
19036W        W37240   4.260   7.809  11.943 -0.2133 -0.0160 -0.0846
19037W        W37241  11.372   6.663   0.147  0.0114 -0.0535 -0.0922
19038W        W37242   0.641   4.826  15.500 -0.2052  0.0875 -0.0637
19039W        W37243  15.248  16.677  16.941  0.1042 -0.0628  0.2170
19040W        W37244  14.069   1.741  13.995 -0.0251 -0.0152  0.1864
19041W        W37245  12.220  11.951  15.863 -0.0075  0.2467 -0.1706
19042W        W37246   6.852   9.981  17.162  0.0487 -0.1414  0.1244
19043W        W37247  12.947   1.882   1.930  0.5623  0.0738 -0.1287
19044W        W37248   5.502  11.496   0.825  0.0254  0.1655 -0.1063
19045W        W37249   6.459   4.028   2.542 -0.1327  0.0640 -0.0208
19046W        W37250  15.021   8.324   3.463  0.1515 -0.0595  0.0302
19047W        W37251  15.743   0.248  13.720  0.0767  0.4941 -0.0125
19048W        W37252   6.427   0.162   4.207 -0.1238  0.0571 -0.1417
19049W        W37253   8.568  13.035  13.741  0.1602  0.3572 -0.1926
19050W        W37254   9.593   3.844  16.031  0.3310 -0.0344 -0.0478
19051W        W37255   0.896  13.606  13.200  0.2062 -0.1604 -0.0826
19052W        W37256  14.460   5.186  12.477 -0.2848 -0.2958  0.0720
19053W        W37257  12.470   6.838  15.823  0.3102  0.0395 -0.1655
19054W        W37258  14.197  13.752   3.823  0.2474  0.1041 -0.3587
19055W        W37259   8.959   0.656   3.237 -0.3041 -0.0904 -0.1566
19056W        W37260   1.901  12.365  16.796  0.1984  0.0803 -0.3252
19057W        W37261  14.003   4.756   1.670  0.3065  0.2375  0.2711
19058W        W37262  10.098  17.158   3.141 -0.0626  0.2634  0.1680
19059W        W37263   1.322   2.570   0.611  0.0611  0.0580 -0.2475
19060W        W37264   1.595  13.148  13.350 -0.0225  0.0597 -0.0449
19061W        W37265   8.696  10.307  14.631  0.0575 -0.0107 -0.3504
19062W        W37266  12.092  14.660  12.750  0.0904 -0.0587  0.0747
19063W        W37267  16.794  14.865   0.778 -0.0218 -0.4615 -0.3628
19064W        W37268  12.237   2.736  15.697 -0.1819  0.1581 -0.1429
19065W        W37269  11.505   6.872  13.994 -0.0235  0.1081 -0.0273
19066W        W37270  14.639   0.927   3.500  0.1626  0.1978  0.1370
19067W        W37271   7.419   6.197   4.221  0.3621  0.3507 -0.1543
19068W        W37272  10.838   1.212   5.716 -0.0244 -0.0739 -0.1854
19069W        W37273   3.589   5.405   2.595  0.1250 -0.1001 -0.1221
19070W        W37274   4.495   0.115  16.148 -0.2555  0.0847  0.0916
19071W        W37275  14.735   4.409   1.283  0.0528 -0.1627 -0.1158
19072W        W37276   8.178  14.906  13.416  0.2507 -0.0515 -0.0548
19073W        W37277   4.762   7.976  17.157 -0.2941  0.0267 -0.0544
19074W        W37278  14.088  16.131   1.875 -0.2064 -0.1138 -0.3736
19075W        W37279   1.874   0.216  17.278  0.1601 -0.2262 -0.1367
19076W        W37280  13.017   6.610  15.978 -0.4702  0.1864 -0.1728
19077W        W37281  13.807   2.967   1.834  0.3235  0.1327 -0.0866
19078W        W37282  11.719   4.258   0.117  0.1451 -0.3215 -0.1454
19079W        W37283  12.798   0.199  15.562  0.0768 -0.0071  0.1201
19080W        W37284  17.202  14.330  16.770 -0.0694  0.2107  0.1927
19081W        W37285  13.503   5.194  15.517 -0.0852 -0.1582  0.0587
19082W        W37286  15.853   6.582  13.647 -0.0615 -0.0967 -0.2360
19083W        W37287  10.573   3.173   3.856 -0.4587  0.0093 -0.0316
19084W        W37288   7.443   6.001   0.480 -0.1259 -0.1355  0.0122
19085W        W37289  15.894   3.938  15.741 -0.0178 -0.2190 -0.2364
19086W        W37290  10.001   8.195   6.124  0.3387 -0.2873 -0.3203
19087W        W37291  15.276   5.065  12.706 -0.1451 -0.2414 -0.1639
19088W        W37292   8.643   3.691   1.966  0.1994 -0.1253 -0.0689
19089W        W37293   3.184  10.413  16.763  0.0612  0.1410 -0.0255
19090W        W37294  15.654  16.245  14.831  0.1383  0.0087  0.2225
19091W        W37295   6.549  13.188   2.657 -0.0102  0.3803 -0.0210
19092W        W37296   9.101  14.987  13.321  0.1060 -0.3152 -0.0090
19093W        W37297   0.090   8.983  12.849 -0.1672  0.0181 -0.1426
19094W        W37298   1.927   8.678   2.518  0.0521  0.3988 -0.0433
19095W        W37299   2.543   3.478  13.515  0.3373  0.1703  0.2181
19096W        W37300   1.647   8.266   2.196  0.1056  0.1513 -0.1972
19097W        W37301   8.984   6.962   4.358  0.3223  0.3731 -0.2543
19098W        W37302   3.296   1.344   3.782  0.0619 -0.1290 -0.0055
19099W        W37303   9.684   1.217  11.661 -0.0612 -0.0011  0.2917
19100W        W37304   3.446  13.998  12.829  0.0942  0.0566  0.0334
19101W        W37305   7.244   0.091  16.510 -0.1064 -0.0081 -0.0818
19102W        W37306   3.542  15.239   1.646 -0.0031  0.0839  0.0925
19103W        W37307  14.908   4.229  15.365 -0.1029  0.3648  0.0738
19104W        W37308   6.697   3.355  11.507  0.0864  0.0087 -0.1372
19105W        W37309   3.199   8.503   3.043  0.1744  0.1517 -0.0969
19106W        W37310   6.498   1.003   4.383 -0.0570 -0.0011  0.4189
19107W        W37311   7.817   7.601  13.718  0.0442 -0.2170  0.2378
19108W        W37312  12.874  12.932   3.002  0.1225  0.1036  0.0132
19109W        W37313  15.083  16.952   1.560 -0.1349 -0.1745  0.0055
19110W        W37314   1.333   6.209   2.079 -0.0615 -0.0124  0.1855
19111W        W37315  10.406  14.443  12.279 -0.0414 -0.2075 -0.0897
19112W        W37316   5.169  15.155   1.256  0.1998 -0.2719 -0.0963
19113W        W37317  10.018  11.174  14.594 -0.1495  0.0179  0.0467
19114W        W37318   3.258  13.497  15.094 -0.1408  0.2497 -0.0937
19115W        W37319  11.890   5.463   2.463 -0.1371 -0.0381  0.2095
19116W        W37320   7.894  15.460   1.910  0.0881  0.1526  0.1216
19117W        W37321  16.189  16.301   1.000  0.0781  0.0692 -0.0405
19118W        W37322  16.467   5.596  15.729 -0.0726 -0.0652  0.0242
19119W        W37323   6.599   4.971  16.540 -0.1821 -0.0201  0.0524
19120W        W37324   4.350  15.077   4.743  0.1816 -0.1169  0.0314
19121W        W37325  11.420   5.018  12.971  0.1558  0.1219  0.1175
19122W        W37326  11.362   5.964   4.233 -0.0230  0.1767  0.2285
19123W        W37327   6.229   4.849   3.982 -0.2787 -0.1656 -0.0655
19124W        W37328  15.979   5.915  15.316 -0.0225  0.2188  0.1548
19125W        W37329   4.671  17.190   2.920 -0.2418 -0.3283  0.3103
19126W        W37330   5.928  12.456   2.984 -0.0645  0.0436  0.0325
19127W        W37331  16.603   2.474  13.316  0.1768  0.2261  0.2030
19128W        W37332   1.116  11.032  14.377 -0.0754 -0.0191 -0.0966
19129W        W37333   3.762  12.066   1.781  0.0037 -0.2605 -0.2625
19130W        W37334   0.220   3.265   1.676  0.0153 -0.4248 -0.2651
19131W        W37335  11.233   1.235   1.492 -0.1542 -0.0651 -0.2154
19132W        W37336   6.125  12.196  16.849 -0.1190 -0.0493 -0.1946
19133W        W37337  17.152   7.744  13.616  0.1136 -0.0416  0.5880
19134W        W37338   9.050   8.466  17.005  0.0004 -0.2765 -0.0446
19135W        W37339  11.361   8.309  13.746  0.4801 -0.0343 -0.0331
19136W        W37340   0.253   4.071  15.750 -0.1092  0.0788 -0.0347
19137W        W37341   5.798   9.209   0.832  0.0737 -0.0142 -0.1620
19138W        W37342   4.785  15.934  15.896 -0.2939 -0.0607 -0.1664
19139W        W37343  10.125   2.258  16.798 -0.1478 -0.1934  0.0310
19140W        W37344   6.569   8.042  17.212 -0.0608 -0.3120  0.2578
19141W        W37345   0.277  10.946  16.253 -0.0633 -0.1724 -0.0719
19142W        W37346   8.369   1.007  15.920  0.0193 -0.0301  0.1219
19143W        W37347   6.223  13.752  16.549 -0.0544 -0.2639  0.0283
19144W        W37348  12.551  16.742   1.723 -0.0588 -0.3439 -0.1579
19145W        W37349   5.861   6.164  16.521  0.1565 -0.1623 -0.3383
19146W        W37350  10.511   1.587   5.659  0.0609 -0.2036 -0.0383
19147W        W37351  10.972   2.384   0.317  0.1253 -0.1384  0.1709
19148W        W37352   8.296  10.269   1.429  0.0836  0.2088 -0.5246
19149W        W37353   6.219   7.964  13.395  0.3150 -0.0928 -0.0096
19150W        W37354   2.745   0.808   2.587  0.0270  0.0980 -0.2143
19151W        W37355  13.194  16.218   0.100 -0.1098 -0.0034 -0.1289
19152W        W37356   7.180   9.198  15.195 -0.2415 -0.0239 -0.1733
19153W        W37357   3.479  12.607   1.918 -0.2156  0.0241 -0.2366
19154W        W37358  11.850   4.458  12.520 -0.2011 -0.0127 -0.0457
19155W        W37359   4.402   2.805   0.787 -0.1596  0.0460  0.1699
19156W        W37360   4.288   6.233  14.715 -0.1603 -0.5657  0.1514
19157W        W37361   2.811   7.556   6.001  0.2394  0.0011 -0.1626
19158W        W37362  16.446  13.730   2.028 -0.1192 -0.1278 -0.0096
19159W        W37363   5.709   3.568   4.090 -0.0708 -0.0440  0.1772
19160W        W37364  16.730   2.091  15.832  0.1345 -0.1785  0.2934
19161W        W37365   4.191   2.772  16.911 -0.2453  0.0982 -0.1395
19162W        W37366  10.729  16.755  11.974 -0.0139 -0.3503  0.1459
19163W        W37367  10.397   7.051  14.344 -0.0069 -0.0855 -0.0504
19164W        W37368  14.124  14.055   0.009 -0.0024 -0.0544  0.0158
19165W        W37369   1.405   1.268   4.308 -0.0610  0.1941  0.1523
19166W        W37370  15.573   4.903  16.388  0.0108 -0.0154 -0.0907
19167W        W37371  11.482   7.124  12.634  0.1028  0.4028 -0.1147
19168W        W37372   6.792  10.656   2.566  0.0445  0.1183 -0.0721
19169W        W37373   9.405  11.548  12.288 -0.0825 -0.4491  0.1363
19170W        W37374  10.873   7.947  12.470 -0.0659 -0.0727 -0.1498
19171W        W37375  10.653   6.997   0.093  0.0483  0.2249 -0.1315
19172W        W37376   8.777   1.662  15.025  0.2753  0.0469 -0.3376
19173W        W37377  12.988  16.631   4.680 -0.0844  0.0418 -0.0381
19174W        W37378   4.404   1.230   2.249  0.0479  0.1375  0.0935
19175W        W37379   8.776   7.459   4.553 -0.1207  0.1866 -0.1234
19176W        W37380   2.946   4.956  15.573 -0.2958 -0.1585 -0.1162
19177W        W37381   9.186  14.540   2.021 -0.2046  0.0409  0.1077
19178W        W37382   7.222  13.539   4.494  0.1309 -0.2842 -0.1065
19179W        W37383   9.112   1.323   4.277  0.0205 -0.0682  0.1223
19180W        W37384   6.278   1.065  13.428  0.2589  0.0901 -0.0630
19181W        W37385   2.421   4.708   0.063 -0.3386 -0.2690 -0.2609
19182W        W37386  16.366   7.680   5.291  0.0488 -0.1097  0.0474
19183W        W37387  10.656  10.236  12.162 -0.2148  0.4093  0.0398
19184W        W37388  16.190  12.055  12.473  0.1819 -0.1528  0.0784
19185W        W37389   0.089  13.822   0.381 -0.1898  0.1699 -0.1446
19186W        W37390   3.708   2.616  15.811  0.4080 -0.1933  0.2453
19187W        W37391   4.160   9.929  14.257 -0.2327  0.1150 -0.4292
19188W        W37392  17.047  15.537   2.061 -0.2662  0.0012 -0.0345
19189W        W37393  12.029  12.168   4.586 -0.2165 -0.0842  0.1345
19190W        W37394   2.228  12.896  16.537 -0.0106 -0.0092  0.3201
19191W        W37395  14.896   5.844   2.219 -0.1125  0.2174 -0.0054
19192W        W37396   0.912   3.000  15.643 -0.4085 -0.1756  0.0641
19193W        W37397  16.081  15.516  15.767 -0.0754  0.1339 -0.0498
19194W        W37398   5.476  12.794  16.730  0.3657 -0.0295  0.0126
19195W        W37399   7.467   7.746   3.372 -0.1472  0.1602 -0.2056
19196W        W37400  16.818   0.988   3.614  0.1174  0.3196  0.0904
19197W        W37401   9.036  15.233  13.780  0.0424 -0.2226 -0.3039
19198W        W37402   8.168  15.423  15.069  0.1327  0.1341 -0.0183
19199W        W37403  13.901  16.887   2.414  0.2139 -0.2872  0.0662
19200W        W37404  17.257  11.090  15.420 -0.0174 -0.0788  0.1384
19201W        W37405   3.841  14.077  13.111 -0.1483 -0.5027 -0.0884
19202W        W37406  11.876  16.877  13.595  0.3005  0.1963  0.1656
19203W        W37407   4.831  15.969   2.006 -0.0277  0.0015 -0.1217
19204W        W37408   5.095  11.998   5.112  0.1329 -0.0849  0.0535
19205W        W37409  16.715   6.806   3.710 -0.4923 -0.1437  0.0383
19206W        W37410  16.735   2.913   2.445  0.0935 -0.0957 -0.1725
19207W        W37411   4.975  14.154  16.489 -0.2258 -0.2345 -0.3578
19208W        W37412   2.247  12.377  13.308 -0.4037  0.0984 -0.0482
19209W        W37413  12.213  13.029  16.207  0.0380 -0.1592 -0.1308
19210W        W37414   5.941  16.874  13.652 -0.2862 -0.2748  0.0838
19211W        W37415  14.029   9.893  12.841  0.3469 -0.1189  0.0256
19212W        W37416   3.482  13.867   3.081 -0.1304  0.0252  0.0340
19213W        W37417  12.691  14.029  13.482  0.0995  0.1174  0.0396
19214W        W37418  13.190   8.100   5.447 -0.1182 -0.3281 -0.2878
19215W        W37419   0.780  17.207   2.941 -0.1586  0.1757  0.0680
19216W        W37420  12.714   7.760   2.382 -0.0659  0.2675  0.3056
19217W        W37421   3.015   9.085  17.134  0.1248  0.1610 -0.1670
19218W        W37422  13.448   6.539  14.905  0.0064  0.0658  0.0605
19219W        W37423  15.493  15.937   5.500  0.2495 -0.1461  0.0643
19220W        W37424  13.525   3.386  17.460  0.0946 -0.0927 -0.0282
19221W        W37425   6.864  16.748   5.306  0.1491 -0.2260  0.0240
19222W        W37426  10.471   0.013  15.691  0.0852 -0.2984 -0.0918
19223W        W37427   3.032  15.243  17.221  0.3866  0.0197  0.0304
19224W        W37428   7.130  14.138  13.621  0.0531 -0.0408  0.1495
19225W        W37429  10.347  16.706   1.052  0.4448 -0.0061 -0.0488
19226W        W37430  11.938   0.271  17.325 -0.3418  0.1345  0.2056
19227W        W37431  10.841  11.077   4.094  0.3497 -0.0980  0.4374
19228W        W37432   3.053   8.085  13.798 -0.2010 -0.1475 -0.3596
19229W        W37433  14.923   8.438  15.965 -0.1357  0.2545 -0.0569
19230W        W37434  10.465  14.268  16.430  0.0704 -0.0441  0.2747
19231W        W37435  11.679   5.954  17.099 -0.1092  0.2349 -0.1500
19232W        W37436   0.472   2.034  15.762  0.2002  0.5822  0.1440
19233W        W37437   2.080  11.798  15.713  0.0322 -0.0249  0.3002
19234W        W37438  11.676   6.870  14.962 -0.2346  0.0008 -0.0144
19235W        W37439  14.623   3.768   0.668 -0.1173 -0.2550 -0.0233
19236W        W37440   9.844   2.863  14.906 -0.0321 -0.0232  0.0143
19237W        W37441  14.392   0.102   3.757  0.0690  0.1140  0.0950
19238W        W37442  10.553  13.244  14.904 -0.3643 -0.0634 -0.0424
19239W        W37443  11.999  14.569   5.307 -0.1627 -0.1308  0.0173
19240W        W37444   9.290  12.417   0.324 -0.1421  0.0736  0.0692
19241W        W37445   8.055   9.970   2.994  0.2225  0.0843  0.1026
19242W        W37446  14.477   1.138  14.649  0.1121  0.2749 -0.2432
19243W        W37447  11.403   5.724   1.083 -0.0014 -0.0245 -0.2319
19244W        W37448  10.288   9.680  17.461 -0.0393  0.0095  0.0453
19245W        W37449  11.282  16.608   3.931 -0.0138 -0.2003 -0.2375
19246W        W37450   8.251   6.680  12.760 -0.0333  0.1144  0.0823
19247W        W37451   4.504  15.126   3.119  0.0926  0.0158 -0.0929
19248W        W37452   7.957  11.436   2.647  0.0926  0.2781 -0.2575
19249W        W37453  13.401   9.368   2.186  0.0547  0.0924  0.0470
19250W        W37454   9.269  15.048   5.012 -0.1843  0.1100 -0.0920
19251W        W37455   1.424   6.723  14.300 -0.1416 -0.1012  0.0516
19252W        W37456  10.195   8.690  13.890 -0.0813  0.1477  0.1647
19253W        W37457   6.981  10.301  13.174 -0.0336 -0.1255  0.1234
19254W        W37458  10.349  12.508  13.705 -0.1050 -0.1250  0.0791
19255W        W37459  15.181   7.881  13.778  0.0676  0.1807 -0.3604
19256W        W37460  12.451   8.827  16.121  0.0005  0.0675 -0.1272
19257W        W37461   9.450   7.029   4.518  0.0118 -0.0875  0.1513
19258W        W37462   1.010  11.233  16.930  0.0737 -0.0806 -0.0135
19259W        W37463   4.452   7.259  17.019 -0.0656 -0.0104  0.1075
19260W        W37464  15.967  14.211  14.483  0.2682  0.0109  0.0721
19261W        W37465   9.008  10.393  15.285  0.0178  0.0019 -0.0209
19262W        W37466  11.632  13.548   4.612 -0.0767  0.3559  0.2486
19263W        W37467   6.438  16.989   0.782 -0.2932  0.2174 -0.0390
19264W        W37468   8.594  15.398  16.586  0.2920 -0.0469  0.0176
19265W        W37469  11.258   7.221   2.666 -0.1136 -0.1522 -0.1936
19266W        W37470  14.273   0.885  15.004  0.1722  0.1684 -0.1651
19267W        W37471   2.814  15.874  16.127  0.2796 -0.2083  0.0792
19268W        W37472   8.616   5.836  16.600  0.0965 -0.2219  0.1348
19269W        W37473  17.098   8.847   4.627  0.1742  0.4031  0.0960
19270W        W37474  13.268  13.923   4.388 -0.2644 -0.0219 -0.2225
19271W        W37475   8.651   7.518  14.205  0.0107 -0.1925 -0.3982
19272W        W37476   6.880  11.581   2.207  0.1478  0.1050  0.0667
19273W        W37477   1.719   7.338  17.442  0.1097  0.0235 -0.0875
19274W        W37478  16.240  15.898   3.249  0.0307 -0.1070  0.1656
19275W        W37479  13.785   9.876   4.855 -0.1911 -0.0933 -0.3018
19276W        W37480   3.376   4.393   3.877 -0.1542  0.0207 -0.1999
19277W        W37481   0.758   7.652   0.529  0.3347 -0.0579 -0.0181
19278W        W37482   1.547   7.919   1.823  0.1324  0.1557 -0.1380
19279W        W37483   7.216  15.899  13.135  0.4936  0.2054  0.0202
19280W        W37484   8.016   7.935   5.022 -0.0620 -0.2000 -0.1381
19281W        W37485   9.405   4.129  16.452 -0.0313 -0.0684  0.0627
19282W        W37486   4.083  14.012   3.739 -0.1688 -0.0223  0.0238
19283W        W37487   9.537   3.755  14.035  0.1476 -0.2357  0.0966
19284W        W37488  11.165  17.162   0.826  0.2217 -0.1771  0.0962
19285W        W37489   2.757   4.289  16.579 -0.0655  0.1658 -0.0275
19286W        W37490   5.659   3.526  13.867  0.0408  0.0969  0.2827
19287W        W37491   1.107   6.819  15.707  0.0943  0.2628  0.1417
19288W        W37492  10.109  12.647   5.178  0.0443 -0.3671  0.0646
19289W        W37493  15.617  17.248   3.259  0.0325 -0.0467  0.0016
19290W        W37494  11.109   9.891  12.210 -0.1693  0.0218 -0.1517
19291W        W37495   3.045   7.173  12.062  0.0019  0.0821 -0.2438
19292W        W37496   4.002   7.934   0.068 -0.2184  0.2296  0.0961
19293W        W37497   1.003   0.610  16.842  0.3547 -0.2060 -0.0560
19294W        W37498   8.430   1.162  14.876 -0.2209 -0.2896  0.3896
19295W        W37499   2.880   2.802  12.865  0.0780 -0.1443  0.3205
19296W        W37500   6.222   6.067  12.415  0.1053  0.0381 -0.0970
19297W        W37501  14.442   6.903   4.161  0.3350 -0.1287 -0.3250
19298W        W37502  15.540  15.728  15.053 -0.2656 -0.1183 -0.1028
19299W        W37503   2.129   0.996   0.968 -0.1727  0.0972 -0.2207
19300W        W37504  11.594  10.033   2.195  0.1731  0.1180  0.0579
19301W        W37505  13.149  12.047  13.384  0.0252 -0.0136  0.0792
19302W        W37506  15.997   1.576  15.497  0.2217 -0.0391 -0.1513
19303W        W37507  12.194  14.616  14.872 -0.1257  0.2963 -0.3356
19304W        W37508   3.687  14.987   5.573  0.3979  0.0244 -0.0273
19305W        W37509  10.766  13.087   4.175 -0.1007 -0.1253  0.1781
19306W        W37510   9.014   8.020  15.773 -0.0512 -0.0530  0.0742
19307W        W37511  15.389   7.338  15.405  0.2692 -0.0735  0.0208
19308W        W37512  17.125  10.622   5.335 -0.0497  0.1967  0.0221
19309W        W37513  16.322  15.263  16.744  0.3647  0.1769  0.0727
19310W        W37514  13.081  17.034   2.862 -0.0635 -0.0649  0.0457
19311W        W37515   1.881   5.314   5.134  0.0200  0.3467  0.2323
19312W        W37516  12.797  15.782   2.769 -0.1625 -0.1250 -0.0628
19313W        W37517   1.786   2.918   0.801 -0.0184 -0.1230 -0.1764
19314W        W37518   9.599  11.312  17.401 -0.3319  0.1796  0.0064
19315W        W37519   4.989   9.038   2.649 -0.5627  0.0242  0.4759
19316W        W37520   6.116  15.413  12.430  0.0047  0.2120 -0.1646
19317W        W37521   1.364   3.765   1.976  0.0506  0.1289 -0.2073
19318W        W37522   0.467  16.963  12.691 -0.0013  0.0915  0.0452
19319W        W37523  15.779   9.222  13.113 -0.1777  0.0874  0.1809
19320W        W37524   3.006   1.675   4.182 -0.0683  0.1026 -0.0960
19321W        W37525  16.635   1.513  16.994 -0.0490 -0.1484  0.2493
19322W        W37526  13.652  12.080   3.319 -0.1214 -0.0813 -0.1298
19323W        W37527  13.689  11.060  16.811 -0.2832  0.0399  0.0683
19324W        W37528  11.745   8.708   3.316  0.1943 -0.0587 -0.3572
19325W        W37529   6.618  16.797   3.608 -0.2394 -0.0170  0.0662
19326W        W37530  14.783   9.502   3.510  0.2803 -0.0086 -0.2251
19327W        W37531  15.712   5.960  12.538 -0.1259  0.0698  0.0180
19328W        W37532   9.187   4.654  17.288 -0.2285 -0.1645 -0.3021
19329W        W37533   7.304  11.895   3.132 -0.2369 -0.1175 -0.1601
19330W        W37534   6.675   7.340   4.819 -0.2997  0.1081 -0.1492
19331W        W37535  12.836   2.472   5.299  0.2907  0.3867 -0.1724
19332W        W37536   3.499   6.172   2.467  0.0711  0.3298  0.1494
19333W        W37537   1.362   5.919   2.651 -0.3115 -0.2670 -0.2640
19334W        W37538   5.910   1.181  14.964 -0.0985  0.0237  0.0303
19335W        W37539  12.587  14.706   2.106  0.0862  0.1185  0.2081
19336W        W37540   8.564  13.863   1.093  0.1574 -0.1574  0.4636
19337W        W37541   2.572   6.398   1.290 -0.0599  0.0811 -0.3558
19338W        W37542   3.882   6.776   0.688  0.2884  0.0663  0.0906
19339W        W37543   5.882  14.420  12.377 -0.1207  0.2343 -0.0545
19340W        W37544   3.113  11.061   4.669  0.0870 -0.1116 -0.1166
19341W        W37545  16.133   5.372   0.547  0.2065 -0.0640  0.0127
19342W        W37546   4.568   4.168   2.318  0.2821  0.0139 -0.0377
19343W        W37547  14.651   9.675   2.178 -0.1191 -0.1055  0.3171
19344W        W37548  13.902   4.409  13.375 -0.1710  0.0743 -0.0528
19345W        W37549  10.989   1.421   2.275  0.2534  0.1101  0.2127
19346W        W37550  11.731  12.318  12.493  0.0756 -0.2480  0.2030
19347W        W37551  15.488   4.170   4.828  0.0296 -0.1098 -0.0999
19348W        W37552   2.041   0.852   1.954  0.3338 -0.1462 -0.2771
19349W        W37553   7.851  14.734   0.040  0.1317  0.1453  0.0603
19350W        W37554   2.621  11.160  14.331 -0.1393  0.4580 -0.0523
19351W        W37555  16.819  15.285   2.514 -0.0568  0.0139 -0.0571
19352W        W37556   5.722   5.016   6.087 -0.1526 -0.1895 -0.4389
19353W        W37557   4.617   6.099   3.708 -0.3074  0.1474 -0.1581
19354W        W37558   4.093  15.665   1.498 -0.0082 -0.2144 -0.1524
19355W        W37559   4.350  15.645   3.089 -0.0908  0.3381 -0.1048
19356W        W37560  12.510  14.539   3.257 -0.0167 -0.0254  0.3421
19357W        W37561   0.327   8.226   4.169 -0.1151  0.0975  0.0824
19358W        W37562  15.564  13.006   3.503  0.0283  0.0471 -0.0536
19359W        W37563   9.435  10.090   0.784  0.0124 -0.1791 -0.1870
19360W        W37564   1.751  12.127   5.145  0.0102  0.1497  0.4513
19361W        W37565   4.503  15.721   0.502  0.0038 -0.1210  0.0934
19362W        W37566  16.087  16.693  14.195 -0.1888 -0.0177 -0.3406
19363W        W37567   0.677  15.900   0.482  0.1881 -0.0524 -0.2273
19364W        W37568   6.969   9.063   3.320  0.3585 -0.0091  0.1789
19365W        W37569   3.325   2.834   0.760 -0.2739 -0.1815  0.1535
19366W        W37570   3.214  16.929  16.757 -0.0103  0.0267  0.0661
19367W        W37571  16.019   9.271   1.779 -0.1103 -0.0041  0.0472
19368W        W37572   1.435   7.086   1.575 -0.1759  0.0538  0.1460
19369W        W37573   6.975  12.922   3.575 -0.0517  0.2090 -0.1588
19370W        W37574  11.054   4.396   2.917  0.1161  0.1319  0.0208
19371W        W37575   9.825  15.052   3.313  0.1231 -0.3902  0.0274
19372W        W37576  16.292  16.191  12.909  0.0049  0.2260 -0.0502
19373W        W37577   0.724  16.951   0.802  0.0386 -0.0594  0.0210
19374W        W37578   7.198   6.853  15.940  0.1935  0.0286  0.1463
19375W        W37579   3.313  17.174   4.168 -0.3151 -0.0208  0.0936
19376W        W37580   9.968   8.798   1.713  0.2703 -0.1010  0.0218
19377W        W37581   4.628  10.916  13.016 -0.0578 -0.1388  0.1354
19378W        W37582   2.141   4.249  14.617 -0.1608 -0.3054 -0.0069
19379W        W37583   9.155   8.945  14.510 -0.3436  0.0997  0.1021
19380W        W37584   8.881  11.245   2.127  0.0567 -0.1425  0.3486
19381W        W37585  15.703   0.328   3.816  0.3642 -0.0297 -0.2027
19382W        W37586  11.947  11.585  13.652  0.3160  0.0766 -0.0614
19383W        W37587   1.094   1.711  14.746 -0.1767  0.0254  0.2720
19384W        W37588   7.552  17.301   5.425  0.0321 -0.1502 -0.5365
19385W        W37589   1.754   9.509  13.999 -0.0167  0.2347  0.1755
19386W        W37590   2.742  13.884  15.664 -0.1469  0.0718 -0.0023
19387W        W37591  17.091   7.217  16.314 -0.2563 -0.0272 -0.3169
19388W        W37592   9.521  12.991   2.836 -0.0730  0.1865  0.4513
19389W        W37593   9.275   2.164  11.777 -0.3821  0.0020 -0.0521
19390W        W37594   9.185  15.970   0.167  0.2076 -0.0144  0.0866
19391W        W37595   9.885   0.779  12.468  0.2208  0.1976 -0.2193
19392W        W37596   1.925  10.375   4.915 -0.2505 -0.1423  0.1622
19393W        W37597   1.875   3.893   3.087 -0.0998  0.0851  0.1054
19394W        W37598  13.011  10.697  11.525  0.3588  0.1415 -0.1796
19395W        W37599   2.261  12.754  15.497  0.1154 -0.0672 -0.2481
19396W        W37600  13.837   9.464   0.743  0.3053 -0.1101  0.0066
19397W        W37601   1.994  15.146  16.953  0.2004  0.1654 -0.0614
19398W        W37602  15.405  11.666  13.067  0.1013  0.2158  0.2827
19399W        W37603  10.559   4.186  15.811  0.2173  0.3317 -0.0969
19400W        W37604  11.526   3.401  16.894 -0.0710  0.0921  0.2035
19401W        W37605   1.109   6.771  16.998 -0.0912 -0.0694  0.2306
19402W        W37606  13.169  13.315   3.809 -0.0095 -0.0962  0.2502
19403W        W37607   2.227  10.368  15.870 -0.0572  0.1408 -0.2546
19404W        W37608  13.076   9.839  13.802 -0.0868 -0.3414  0.0643
19405W        W37609  17.141  12.100   4.138 -0.1480  0.1306 -0.3239
19406W        W37610   1.686  11.557   0.006  0.0353  0.0283  0.0066
19407W        W37611   3.210  11.703   0.783  0.1229  0.2180 -0.0671
19408W        W37612  12.153  10.801   1.758  0.0240 -0.1078 -0.0440
19409W        W37613  15.489   1.398  15.574  0.0992 -0.2102 -0.0305
19410W        W37614  11.779  13.788  14.955 -0.1641 -0.1529  0.0343
19411W        W37615   6.378   9.421   2.278  0.0839 -0.0865  0.0299
19412W        W37616  16.249  16.927   3.935  0.2385 -0.2620 -0.1451
19413W        W37617   0.675  10.839  17.211 -0.2650 -0.2842 -0.1165
19414W        W37618  10.352   6.527  13.194 -0.0601  0.0152  0.0164
19415W        W37619   6.820   4.331  14.848 -0.1405  0.1871 -0.1257
19416W        W37620  10.710   6.140  16.731  0.3362  0.0203 -0.2230
19417W        W37621   3.996  13.162  12.749 -0.1243  0.0227  0.0598
19418W        W37622   0.109   4.667  14.641 -0.1518 -0.0872  0.2414
19419W        W37623   3.494   3.898  17.141  0.4005  0.1585 -0.2234
19420W        W37624  13.029   8.993  13.699 -0.1207  0.3988 -0.1787
19421W        W37625  14.683   9.953  16.614  0.1331 -0.4253  0.0146
19422W        W37626   8.715   2.726  14.695 -0.3089  0.0805  0.0709
19423W        W37627  16.224   4.777   2.273 -0.4004 -0.2635  0.0136
19424W        W37628   5.120   3.511   2.785 -0.0956  0.0396  0.2610
19425W        W37629   1.524   6.132   0.435 -0.2739  0.1958  0.0925
19426W        W37630   7.669   5.129  13.461  0.1244 -0.1500 -0.2426
19427W        W37631  15.323  12.079   5.088 -0.0066  0.1630 -0.1954
19428W        W37632  15.546  11.075   2.132  0.2296  0.0902 -0.3459
19429W        W37633  12.249  15.583   4.856  0.2412 -0.1402 -0.0048
19430W        W37634   5.505  15.116  12.780 -0.2361  0.0737  0.1231
19431W        W37635   4.391   4.180  17.336 -0.1390  0.0279 -0.0378
19432W        W37636  12.664  14.270   0.376 -0.1684 -0.0128 -0.1224
19433W        W37637   2.355  17.002  16.148 -0.0883  0.0258  0.1850
19434W        W37638   5.485   8.088  14.956  0.0269 -0.0378  0.0582
19435W        W37639   5.478  11.489  12.819 -0.0376 -0.1117 -0.3526
19436W        W37640  10.278  10.622   0.967 -0.0804 -0.0564 -0.0047
19437W        W37641   2.992   2.051  13.510  0.1561 -0.1297 -0.1717
19438W        W37642  17.045   8.266   4.783  0.0315 -0.2082  0.0001
19439W        W37643   7.837   3.448   3.226  0.1887  0.0919 -0.0608
19440W        W37644   8.649   5.581   4.497  0.1985 -0.0969  0.1353
19441W        W37645   6.912   0.894   3.892 -0.0002  0.2032 -0.2180
19442W        W37646  16.683  10.733  12.790  0.0377 -0.1709  0.0173
19443W        W37647   9.660   5.569   0.849 -0.2418 -0.0225  0.1428
19444W        W37648   7.328  16.788  12.525  0.0540  0.2836  0.1068
19445W        W37649   8.003   1.787  17.106 -0.1042 -0.0347 -0.0927
19446W        W37650   1.392  15.452   0.481 -0.0749  0.4874  0.2568
19447W        W37651   3.807   6.399  15.439  0.1863 -0.1546  0.0413
19448W        W37652   2.439   8.708  12.755 -0.1837  0.2748  0.1376
19449W        W37653   1.484  16.150  12.844  0.2835 -0.0078 -0.0306
19450W        W37654   2.636   3.750  16.909  0.1650  0.1283  0.0577
19451W        W37655  14.666   1.977   1.379 -0.0517  0.0707 -0.2418
19452W        W37656   4.622   6.607  14.886 -0.3150 -0.2138  0.0273
19453W        W37657   7.900   3.241  15.754 -0.2102 -0.0734  0.0101
19454W        W37658   0.868  14.080   3.690 -0.1407  0.1121  0.1266
19455W        W37659  12.018  10.746  13.009 -0.2917 -0.0931 -0.0033
19456W        W37660   9.604  15.473   4.784 -0.2093 -0.1973  0.1188
19457W        W37661   4.923  10.076  15.172 -0.3939 -0.1097  0.1059
19458W        W37662   3.780  15.423   2.398 -0.1451  0.1520 -0.1688
19459W        W37663  11.977   6.785  17.039 -0.2914 -0.1654 -0.0730
19460W        W37664  16.010   8.868   2.592  0.0616  0.0557 -0.0567
19461W        W37665   1.583   4.274   0.792 -0.0364 -0.1256 -0.2057
19462W        W37666   5.605   7.660   2.504 -0.0697 -0.0548 -0.0825
19463W        W37667  10.721  10.064  15.614  0.0364  0.0198 -0.0001
19464W        W37668  11.493   0.726   5.948 -0.2427  0.2498  0.1422
19465W        W37669   0.083  10.985   3.610 -0.0014 -0.0071  0.1993
19466W        W37670  15.749   7.378  16.149 -0.0135 -0.0127  0.0475
19467W        W37671  16.146   4.413  13.647 -0.1538  0.0721  0.0020
19468W        W37672   5.169  10.288   3.919  0.0848 -0.2343  0.0936
19469W        W37673  15.171   7.957   3.849 -0.2351  0.0514  0.1282
19470W        W37674  12.135   1.275  15.770 -0.1599  0.1492 -0.2741
19471W        W37675  10.454   1.074   3.978 -0.0375  0.2186 -0.0532
19472W        W37676  13.443   8.912  16.123  0.3796  0.1040 -0.2598
19473W        W37677   8.440   0.256  14.853 -0.0490  0.0593 -0.1135
19474W        W37678   5.472  17.134   4.100  0.1236  0.0616 -0.2164
19475W        W37679  14.223   8.186  13.462  0.1931  0.1736  0.0508
19476W        W37680  12.660   8.449   3.655 -0.0172 -0.3614  0.0240
19477W        W37681  14.221  13.313   3.449  0.1500  0.0966  0.1116
19478W        W37682   6.511   1.571   4.352 -0.0586  0.5027 -0.0321
19479W        W37683   1.331   7.022  12.244  0.2786  0.2509  0.2205
19480W        W37684  11.387   0.643   4.076 -0.0072  0.2921  0.1505
19481W        W37685  17.101  16.820   4.220 -0.1651  0.1091 -0.2108
19482W        W37686  15.976   3.892   4.835 -0.0081 -0.2306  0.0402
19483W        W37687   8.258   6.567   3.725 -0.1775  0.0199 -0.1314
19484W        W37688  15.539   7.404  16.686 -0.2220  0.2846 -0.1194
19485W        W37689   3.011   4.723  16.802 -0.2137 -0.0398  0.0374
19486W        W37690  15.180   4.184  17.494 -0.1756  0.0446  0.0765
19487W        W37691  12.724   7.120   0.506  0.1208 -0.2451 -0.2439
19488W        W37692   9.395   5.958   0.739 -0.0057 -0.4135  0.0199
19489W        W37693   5.129   2.921  15.357  0.1547  0.0345  0.2753
19490W        W37694   1.290   6.892   2.575 -0.1218 -0.2611  0.0782
19491W        W37695   6.521  13.891   1.459  0.1081 -0.2275 -0.1349
19492W        W37696   2.678   4.044   2.552 -0.2493  0.2144 -0.2736
19493W        W37697   8.313   3.522  13.926  0.1671  0.0361  0.2504
19494W        W37698  14.656  15.503   1.639 -0.0518 -0.1049  0.2276
19495W        W37699  12.745  16.312   2.936  0.1414  0.2229  0.0994
19496W        W37700   4.425   2.774   5.310  0.1871  0.0328 -0.3587
19497W        W37701   1.040  12.750   2.127 -0.5427 -0.0466  0.2489
19498W        W37702   0.044   3.953  13.998  0.1925  0.3455 -0.3365
19499W        W37703  10.172   4.845  16.909  0.2239 -0.1056 -0.0912
19500W        W37704  12.280   3.101   0.753 -0.5874  0.0566 -0.0751
19501W        W37705   3.497   8.194   1.812 -0.0127  0.1066  0.0591
19502W        W37706  10.371  10.304   5.131 -0.0055 -0.0870 -0.1348
19503W        W37707   9.598  10.595   2.997  0.2612  0.0537  0.0883
19504W        W37708  14.339  15.663   1.982  0.0350 -0.0612 -0.0280
19505W        W37709   0.080  16.252  14.853  0.1778  0.0008  0.0856
19506W        W37710   6.595   5.797  12.996  0.1346  0.0086  0.0641
19507W        W37711  14.200   2.009  12.693  0.0544 -0.0713 -0.2178
19508W        W37712  10.738  12.161   0.408 -0.1722 -0.3150 -0.2660
19509W        W37713   4.815   4.537   0.481 -0.3229 -0.2355  0.3270
19510W        W37714   3.142  11.476  15.137  0.1742  0.2224 -0.1883
19511W        W37715   2.917  15.167   4.006  0.1344  0.0423  0.1415
19512W        W37716   5.733   3.005   4.979  0.3027 -0.1460  0.2026
19513W        W37717   6.434  10.055  14.167  0.1091  0.1144  0.2354
19514W        W37718   6.271   5.023   2.102 -0.0625  0.0793 -0.0276
19515W        W37719  16.900   5.106  17.113 -0.0264 -0.1649 -0.1259
19516W        W37720   1.706   9.205   4.646 -0.0093 -0.3088 -0.1970
19517W        W37721   2.457   7.329  16.188 -0.0439 -0.2242  0.2226
19518W        W37722  12.566  10.064  12.704 -0.0057 -0.0008 -0.0049
19519W        W37723   8.957   7.894  13.403 -0.1087  0.1541 -0.2776
19520W        W37724   6.025   2.725  12.422 -0.5650  0.3620  0.3314
19521W        W37725   2.831  10.640   4.874 -0.1462 -0.2081 -0.1523
19522W        W37726  13.457   6.950   4.852  0.1974  0.1602 -0.0479
19523W        W37727   5.775   7.152   0.556  0.0565 -0.1557  0.1485
19524W        W37728  15.290  10.770   4.643 -0.0972 -0.0511 -0.0464
19525W        W37729  15.990  13.619  15.988 -0.0182 -0.0050 -0.2368
19526W        W37730   5.553  10.386  14.457 -0.0867 -0.1703 -0.2061
19527W        W37731  10.337  14.912   2.031 -0.0567  0.0739  0.0300
19528W        W37732   6.322   5.667   2.902  0.1359  0.3169  0.2213
19529W        W37733   4.077   8.081   5.076  0.0435  0.1200 -0.0437
19530W        W37734  14.953  10.290  13.054 -0.0973 -0.2216 -0.3088
19531W        W37735   4.619  12.731   4.682  0.0207  0.0095  0.3804
19532W        W37736  14.214   8.357  14.004  0.2282 -0.1352 -0.0143
19533W        W37737   6.062   2.281  17.477  0.0506 -0.1761  0.1517
19534W        W37738   5.180  10.887  15.662  0.0187  0.2411  0.0796
19535W        W37739   3.672  13.692  15.315  0.0401 -0.2647 -0.0687
19536W        W37740  10.113   1.531  14.463  0.0607  0.0871  0.2643
19537W        W37741   2.185   9.479   1.947 -0.1333 -0.4014 -0.1033
19538W        W37742  14.985   5.082   0.131  0.3733  0.0150 -0.3257
19539W        W37743   1.007   7.477   3.390 -0.0258 -0.1772 -0.2210
19540W        W37744  15.267  14.882  12.733  0.1784  0.2699  0.2185
19541W        W37745  12.777  10.184   0.216  0.3563  0.0390 -0.0846
19542W        W37746   6.698  12.715  14.653  0.0948  0.0858  0.0157
19543W        W37747   1.851   1.118  17.176 -0.3636  0.0209 -0.0848
19544W        W37748   3.850   5.848   2.503  0.1070  0.1111 -0.1486
19545W        W37749   6.782  16.113  16.181 -0.0907  0.0646  0.1325
19546W        W37750  10.702   4.167   1.979  0.2656 -0.2843  0.3183
19547W        W37751   9.261   2.912  13.021  0.2968  0.0628 -0.1048
19548W        W37752   3.358   6.154  13.043 -0.1593 -0.3936 -0.0606
19549W        W37753   1.054   9.497  16.734  0.0675  0.0118 -0.2106
19550W        W37754   9.834   1.909  17.501 -0.0798 -0.0599 -0.0530
19551W        W37755  16.569  16.957   1.444  0.1720 -0.0649 -0.1830
19552W        W37756  15.158   0.053  14.486  0.0343  0.0863 -0.0550
19553W        W37757  16.406   6.728  13.589  0.1236 -0.1653  0.0968
19554W        W37758   0.755   8.866  16.071  0.1492  0.0520  0.0534
19555W        W37759  12.045  14.899  13.193  0.0801  0.2880 -0.1561
19556W        W37760  12.820   0.895   4.031 -0.0959  0.2151  0.1267
19557W        W37761   8.955  12.543   1.867 -0.2125  0.2326  0.0729
19558W        W37762  10.823   1.063  15.089 -0.1057 -0.0120  0.4541
19559W        W37763   2.546   6.907  16.372 -0.0629 -0.1659 -0.1813
19560W        W37764  13.012   6.435   0.909  0.1836 -0.2758  0.1525
19561W        W37765   0.692  13.700  14.324  0.1812 -0.3686  0.2564
19562W        W37766  16.835  17.250  12.954  0.6436  0.1248  0.1098
19563W        W37767   6.792   8.800  12.898 -0.1024  0.2158 -0.1125
19564W        W37768   9.237   9.618  14.111  0.3115 -0.2243 -0.1311
19565W        W37769   6.268   5.372  14.289 -0.0329 -0.1634 -0.0816
19566W        W37770  12.577   9.120  17.358  0.0808 -0.0511 -0.0737
19567W        W37771   7.524   7.519   2.062 -0.2158 -0.0025 -0.0974
19568W        W37772  10.627   5.073   0.713 -0.0928  0.0124 -0.1831
19569W        W37773   2.515  14.536  15.272  0.1709  0.2335 -0.2669
19570W        W37774   9.879   5.566  16.708  0.0516  0.3752  0.2030
19571W        W37775  17.053   6.449   0.801  0.1528 -0.0041  0.1338
19572W        W37776   0.148   1.527  15.964 -0.0147 -0.4751  0.1351
19573W        W37777   2.739  13.296   0.244  0.1337 -0.0483 -0.3591
19574W        W37778   5.502  13.457  12.849  0.0103  0.1267 -0.2262
19575W        W37779   2.843   0.686  13.756 -0.1953 -0.1055  0.2363
19576W        W37780  12.917  11.781   4.256  0.1012 -0.1846 -0.2460
19577W        W37781   4.354   7.164  14.577 -0.0931 -0.1032 -0.1587
19578W        W37782   7.090   5.750   0.877 -0.1332 -0.1122 -0.0012
19579W        W37783  15.561  14.609   4.669 -0.0287 -0.2032 -0.0446
19580W        W37784   7.155  12.826  16.403  0.1586 -0.3686  0.2288
19581W        W37785  15.950  14.649   3.968  0.0368 -0.1071  0.0075
19582W        W37786   8.892   0.411  12.533  0.1129 -0.1263 -0.2249
19583W        W37787  14.007   8.431   0.033 -0.0606  0.0044  0.4846
19584W        W37788   9.065  16.662  17.103 -0.2504  0.1882  0.1096
19585W        W37789   8.872   9.450   0.284  0.0878  0.1013 -0.0898
19586W        W37790  13.467   4.147  14.496  0.2541  0.0547  0.1397
19587W        W37791   6.032   2.434   1.383 -0.0985 -0.3054 -0.0896
19588W        W37792   2.084  11.946   4.442 -0.1197  0.0604 -0.1021
19589W        W37793  16.913  13.847   4.581 -0.1008 -0.1901  0.1163
19590W        W37794   8.535  10.486  15.086 -0.1313  0.4103  0.1230
19591W        W37795  16.001  10.854  15.708  0.2334 -0.3394  0.2517
19592W        W37796  12.103   6.362   0.814 -0.0060 -0.0157  0.5578
19593W        W37797  15.017  12.779  14.534  0.1380  0.2137  0.2069
19594W        W37798  14.115   7.877  13.924  0.1468 -0.2519  0.0621
19595W        W37799   1.135   1.210   4.776 -0.0847 -0.0926  0.1344
19596W        W37800  11.556   1.417  13.272  0.2983  0.0738 -0.0158
19597W        W37801  13.424  17.030   0.388  0.1896  0.0156 -0.1672
19598W        W37802   1.738   0.004   3.525 -0.0269 -0.1548 -0.0717
19599W        W37803  13.969   7.747   5.379 -0.0123 -0.3338 -0.4078
19600W        W37804  15.133   7.540   1.331 -0.2876  0.2266 -0.5265
19601W        W37805  12.030   4.919   2.895 -0.1885 -0.0247  0.0908
19602W        W37806  13.829   3.678  14.922 -0.0972 -0.1237  0.1478
19603W        W37807  11.987   6.482  13.459 -0.0210  0.2287  0.0018
19604W        W37808   8.144   7.649   0.865 -0.0205  0.1947  0.2487
19605W        W37809   2.382  17.289  17.017 -0.2534 -0.0959 -0.1135
19606W        W37810  12.519   7.587  17.099  0.0087 -0.0669 -0.4240
19607W        W37811   5.650  14.182   0.193  0.0822  0.1944 -0.0989
19608W        W37812   6.222   3.045  16.401 -0.1486  0.0664  0.1679
19609W        W37813   8.101  17.223   1.985 -0.1703  0.0056  0.2579
19610W        W37814   2.859   2.615   2.939  0.4030 -0.0676  0.1554
19611W        W37815   9.806  12.124  13.338  0.1539  0.0732  0.1397
19612W        W37816   9.040   2.423   3.380 -0.2997  0.2547 -0.2177
19613W        W37817   3.869   0.684   0.722 -0.2353  0.1138 -0.0204
19614W        W37818  16.915  17.185   1.660  0.1782 -0.0908 -0.0151
19615W        W37819   9.744  16.120  17.091  0.1755  0.1596 -0.1267
19616W        W37820   7.196   4.851   4.337 -0.0515  0.0679 -0.2100
19617W        W37821  13.883   7.201  15.193 -0.2148  0.0921 -0.0715
19618W        W37822   5.616  11.005   2.470  0.1111  0.0055  0.2306
19619W        W37823  11.964  14.854  13.902 -0.0470 -0.1255 -0.1982
19620W        W37824   8.942   6.999   1.640  0.1563 -0.0150  0.1604
19621W        W37825  12.140   2.494  16.161 -0.0493 -0.2473  0.3674
19622W        W37826   3.803   3.470  17.246 -0.1524 -0.0661 -0.1159
19623W        W37827  11.558   9.894   3.858 -0.1171  0.0825  0.0668
19624W        W37828  14.295  13.506   0.190 -0.2512 -0.0618 -0.1165
19625W        W37829   0.240   9.409   3.655  0.1366 -0.2146 -0.0674
19626W        W37830   6.378   2.743   1.543 -0.0289 -0.0634 -0.4473
19627W        W37831   8.533   1.259   4.847 -0.2871 -0.0784  0.1133
19628W        W37832  13.477   9.036  17.039 -0.3487 -0.2116 -0.0441
19629W        W37833   1.867  17.195  13.170 -0.0295 -0.0822 -0.0883
19630W        W37834  14.735   5.245  16.218 -0.0531 -0.1739 -0.1628
19631W        W37835  11.786   8.915  13.191  0.1525 -0.1168  0.1519
19632W        W37836  15.200   1.776  15.418  0.0299  0.0005 -0.3460
19633W        W37837   0.543  15.610  16.630  0.1785  0.0656 -0.2803
19634W        W37838   9.411   6.205   1.175  0.1977  0.1272 -0.2014
19635W        W37839   0.269   9.321   5.006 -0.3084 -0.2534 -0.1672
19636W        W37840   4.784   8.641  15.885  0.0077 -0.1326  0.0965
19637W        W37841   4.850   4.330  17.028 -0.1825 -0.0994  0.2290
19638W        W37842  12.804   8.747   1.117 -0.0375 -0.3871  0.0591
19639W        W37843   3.731   1.839   1.423  0.0205 -0.1963 -0.1331
19640W        W37844   6.717  12.467   3.462 -0.1266  0.1446  0.1016
19641W        W37845  10.356   5.642  15.016  0.1463  0.2801  0.1057
19642W        W37846   1.151  11.695  13.326  0.2148  0.0175 -0.0938
19643W        W37847   1.800  13.658   5.362  0.1872  0.1725 -0.3018
19644W        W37848   4.315   6.421   3.327 -0.1089  0.1049  0.3412
19645W        W37849  15.356   8.166  14.120  0.0942 -0.3616 -0.1035
19646W        W37850  15.532   2.691   1.774 -0.0938  0.0235  0.3211
19647W        W37851  10.079  13.223  12.138 -0.3391 -0.1704  0.1822
19648W        W37852   8.667   7.086  12.422 -0.0124  0.2741  0.1211
19649W        W37853   6.893   0.005   3.338 -0.1642 -0.1001 -0.1073
19650W        W37854  12.840   7.644  12.452  0.1415  0.2267  0.1020
19651W        W37855  11.527   2.433  12.940  0.1384  0.1447  0.4307
19652W        W37856  12.309  16.859  13.288 -0.2179 -0.1882 -0.1147
19653W        W37857   1.142   9.117   3.210  0.0539 -0.2237  0.1251
19654W        W37858   9.785   6.831   2.282 -0.1901  0.0390  0.0636
19655W        W37859  17.153   1.930   1.960  0.0453  0.0733  0.0301
19656W        W37860  10.704   4.860  11.132  0.0293 -0.0913 -0.1214
19657W        W37861   6.413  14.780  16.139 -0.1459 -0.1809 -0.2000
19658W        W37862  11.910   8.311  15.174  0.3108 -0.1421 -0.0607
19659W        W37863  10.326   4.155  16.661  0.0320 -0.2487  0.0219
19660W        W37864  13.499  16.625   0.005 -0.0996 -0.1384  0.1226
19661W        W37865   0.145   5.077  14.918  0.0425 -0.1899  0.0553
19662W        W37866   4.844  14.328  15.860 -0.0147  0.0203 -0.1396
19663W        W37867  16.173  12.278   0.216 -0.2347  0.3209  0.1802
19664W        W37868   4.346   7.884   4.406 -0.0551 -0.1047  0.2129
19665W        W37869   4.311  15.200   1.119  0.1040  0.2860  0.1340
19666W        W37870  14.249  17.084  17.511 -0.0324  0.1499 -0.0708
19667W        W37871   0.487   2.972  13.678  0.1275  0.3158 -0.1264
19668W        W37872  14.278   7.090   5.207  0.3543  0.4447 -0.2542
19669W        W37873  10.483   3.834  12.611  0.0422  0.2989  0.1185
19670W        W37874   6.004  10.161  12.814 -0.0166 -0.1120 -0.1026
19671W        W37875   1.162   1.839  16.811 -0.0044  0.0046  0.0050
19672W        W37876   1.998  14.847  14.652 -0.2085  0.0767  0.0354
19673W        W37877  16.263  14.920   0.751 -0.0415  0.0347  0.0581
19674W        W37878   3.461   5.731  16.262  0.1482 -0.2814 -0.1647
19675W        W37879   5.120  10.456  15.946 -0.0012  0.2087  0.2648
19676W        W37880  12.603  10.227   2.241  0.1547  0.2433 -0.1870
19677W        W37881   4.609   5.988  17.321 -0.2036 -0.1549 -0.2630
19678W        W37882  16.593   7.667  13.991  0.0467 -0.1202 -0.0668
19679W        W37883  10.106  14.471   2.074  0.0709 -0.1975  0.0567
19680W        W37884   0.943   9.856   0.096  0.5384  0.1000  0.0450
19681W        W37885   6.432   0.729  12.624 -0.2306 -0.0060 -0.3125
19682W        W37886   1.356   3.104  12.425  0.0328  0.0838  0.1330
19683W        W37887   4.177   1.713  12.705  0.0948  0.0713  0.1184
19684W        W37888   2.869  15.892   2.218  0.0423  0.1120 -0.0048
19685W        W37889  11.034   5.559  16.064  0.1331  0.3023 -0.0001
19686W        W37890   5.891   6.152   2.084  0.1621  0.2627 -0.2401
19687W        W37891  16.602  10.582  17.224 -0.0583 -0.1769 -0.0807
19688W        W37892   4.621  13.479  13.881  0.0743  0.2608  0.0837
19689W        W37893   5.940  16.993  16.173  0.1102 -0.2515  0.1033
19690W        W37894   8.668  13.030  12.926 -0.1683 -0.0048  0.1981
19691W        W37895   0.967   7.404   2.293 -0.1488  0.2137  0.0524
19692W        W37896  10.046  11.540   1.413  0.2300  0.0135  0.0925
19693W        W37897   5.348  10.068  16.220  0.0458 -0.2808 -0.1949
19694W        W37898  15.530   0.737   3.466  0.1457  0.2107 -0.2334
19695W        W37899  12.802  10.707  11.978  0.1662  0.0190 -0.3249
19696W        W37900  13.365  10.102  16.010 -0.0574  0.2547  0.2604
19697W        W37901   0.899  13.483  15.215 -0.2730  0.3944 -0.0070
19698W        W37902   0.260   4.216   4.521 -0.0620 -0.1535  0.0183
19699W        W37903   2.034   9.302   1.379  0.1126 -0.0781  0.0070
19700W        W37904   7.098  10.732  16.571  0.0117  0.2683  0.0778
19701W        W37905  16.773   9.892  15.832  0.3179 -0.0749 -0.0201
19702W        W37906  10.354   4.191   4.583  0.0834 -0.1353 -0.2570
19703W        W37907  13.224  11.783   0.171  0.0965  0.1994  0.1282
19704W        W37908   0.015   2.131  12.770  0.3920  0.0403 -0.1525
19705W        W37909   9.938   2.912   2.975  0.1230  0.2435  0.3481
19706W        W37910   3.885   4.988   4.099 -0.1425  0.0646  0.1985
19707W        W37911  14.368   2.854   3.018 -0.1582 -0.0624  0.2497
19708W        W37912   0.844   5.478   4.639 -0.1561  0.1064  0.1949
19709W        W37913   3.927   7.009   2.875  0.1563 -0.0005 -0.0165
19710W        W37914   0.195  12.119   3.762  0.3634  0.0867 -0.1059
19711W        W37915  10.937   7.246   3.943  0.2311 -0.1166 -0.1049
19712W        W37916  12.420  15.610  14.239 -0.0059 -0.0760  0.0302
19713W        W37917  12.370  11.212   3.297 -0.0513 -0.2668  0.0841
19714W        W37918   4.750  15.407  12.379 -0.1133 -0.0578 -0.1814
19715W        W37919   7.711  15.114   2.338  0.0544 -0.2942  0.3270
19716W        W37920  16.415   2.519  15.529  0.3249 -0.1173 -0.0015
19717W        W37921   1.087  15.142  13.175  0.1193 -0.0941  0.1377
19718W        W37922  15.425   1.864  16.812  0.0333 -0.2602  0.3009
19719W        W37923   6.615  15.614   3.617 -0.1732  0.2102  0.0421
19720W        W37924  12.864  13.932   0.961 -0.0489 -0.0803 -0.1032
19721W        W37925   3.542  12.326  16.517 -0.1432  0.0682  0.1285
19722W        W37926  14.734   6.339  12.879  0.2877  0.0752 -0.2102
19723W        W37927  14.380   7.856   4.259  0.2379  0.3045  0.1106
19724W        W37928   0.075  13.213   6.252 -0.2627 -0.1481  0.0468
19725W        W37929   6.250   1.947   2.425 -0.0284  0.2136 -0.1032
19726W        W37930   0.177   2.717   1.369 -0.1467  0.1012 -0.2283
19727W        W37931   6.309  15.412  13.314  0.4940 -0.1177 -0.1090
19728W        W37932   0.685   3.189  15.122  0.2388 -0.1776 -0.2513
19729W        W37933  16.243  14.425  12.268  0.3626  0.1086  0.2833
19730W        W37934  15.974   0.377   0.221 -0.0570  0.1418 -0.0209
19731W        W37935   9.168  10.571  14.607 -0.1188 -0.1420 -0.1401
19732W        W37936  13.166   5.095   1.232 -0.0663  0.0152 -0.0661
19733W        W37937   1.047  14.518   2.146  0.2775 -0.2031  0.0619
19734W        W37938  13.394   5.367   2.144  0.0355  0.0469  0.2913
19735W        W37939  17.211   1.464  13.007 -0.2347 -0.0649  0.2818
19736W        W37940   0.909   6.164   2.546  0.2287 -0.1070 -0.1116
19737W        W37941   1.746   0.045   2.987 -0.0861  0.1704 -0.0245
19738W        W37942  13.108  10.968  12.339 -0.3607  0.1684  0.2082
19739W        W37943   3.057   6.349   2.594 -0.3538 -0.0736  0.0802
19740W        W37944  11.393  14.883   0.068  0.0334 -0.0531  0.1121
19741W        W37945  13.153  17.023  12.772  0.4136 -0.1390  0.3930
19742W        W37946   8.130  13.506   4.248 -0.0647  0.0019 -0.1820
19743W        W37947   5.580  14.779  11.976  0.0200 -0.1626  0.0021
19744W        W37948   6.219  10.914  12.108  0.1753  0.1847 -0.1577
19745W        W37949   8.453  15.410   3.977 -0.2888 -0.1482  0.2854
19746W        W37950   6.507   8.524  16.509  0.1658 -0.2175  0.1462
19747W        W37951  14.188   7.577  12.663 -0.1123 -0.0388 -0.2832
19748W        W37952   7.043  12.941  13.345  0.0126  0.4624  0.0505
19749W        W37953   4.364  10.444  16.450  0.0000  0.0254 -0.0106
19750W        W37954   8.995   6.333  16.005  0.2509 -0.0928  0.4476
19751W        W37955   3.449   2.361   6.532 -0.0164 -0.3281  0.2439
19752W        W37956  16.386  12.261  13.093  0.0966 -0.1067 -0.1554
19753W        W37957  14.794  14.597  13.701  0.2448 -0.5002  0.0534
19754W        W37958  11.537   8.845  16.020 -0.2295  0.0639 -0.0546
19755W        W37959  13.596  16.932  14.708  0.0568  0.2932 -0.0641
19756W        W37960  11.330   9.307   5.265  0.2386 -0.2042 -0.2365
19757W        W37961   8.659  16.073   3.433  0.0203  0.0494 -0.1707
19758W        W37962   6.412   4.156  13.493  0.0978 -0.0637  0.3973
19759W        W37963   4.385  13.937   4.593  0.1404  0.3787 -0.2656
19760W        W37964   6.777   9.130   5.035  0.0534  0.2295 -0.1015
19761W        W37965   7.568   1.600  17.051 -0.2055 -0.2011  0.1541
19762W        W37966  13.768   8.640  14.720  0.0051 -0.0181  0.1558
19763W        W37967   7.943  10.838  15.299  0.0172  0.2377 -0.0724
19764W        W37968   8.953  12.400  17.018 -0.2264  0.1760 -0.2398
19765W        W37969  17.224   8.977   2.668  0.4886  0.1708  0.0062
19766W        W37970   5.746   9.033   3.618  0.0354  0.0408  0.0755
19767W        W37971  17.072   0.821   4.012 -0.0489  0.0900 -0.2041
19768W        W37972   8.326  13.554  13.733 -0.1176 -0.0939  0.0109
19769W        W37973   5.546   8.709  16.748  0.0704 -0.0393 -0.1422
19770W        W37974   9.525   7.046   1.441 -0.0151 -0.1286  0.0388
19771W        W37975   1.226   5.203  16.478  0.0999 -0.1297  0.0095
19772W        W37976   4.143   4.276  12.252  0.0880  0.0233 -0.0581
19773W        W37977  12.415  16.272   1.456 -0.0541  0.0109 -0.1114
19774W        W37978   6.451   6.648  12.808  0.0924  0.0276 -0.1005
19775W        W37979  13.802   4.620   2.622 -0.3534  0.3953 -0.0016
19776W        W37980   2.673   6.816  12.069 -0.0466  0.0181 -0.0146
19777W        W37981   6.848  16.705   0.511  0.1823  0.0638  0.1059
19778W        W37982   7.877   8.410   1.305 -0.2789 -0.2298  0.0208
19779W        W37983  16.219  16.588  17.079 -0.1725 -0.0210  0.2941
19780W        W37984   3.716  10.897  13.924  0.1021 -0.1942  0.1622
19781W        W37985   4.546   7.630  14.737  0.0729  0.1927  0.1561
19782W        W37986   1.599   2.078   2.724 -0.0053  0.0320  0.1889
19783W        W37987   9.977  10.259  16.100  0.0181 -0.1705 -0.0572
19784W        W37988   4.887  10.650  14.946  0.0430 -0.0866 -0.0173
19785W        W37989  15.651   0.267  16.534 -0.0789  0.3195  0.1422
19786W        W37990   6.241  10.501  11.234 -0.0082  0.4340  0.0853
19787W        W37991  13.930  14.815   0.719  0.1535  0.0359  0.0272
19788W        W37992   7.936  12.739  12.259  0.0093 -0.2881 -0.3047
19789W        W37993  16.816  12.907   0.026 -0.0149  0.0908 -0.2530
19790W        W37994   5.128  13.040  15.397  0.1557  0.0119  0.0211
19791W        W37995   1.703   9.587   3.839 -0.0003 -0.2024 -0.2442
19792W        W37996   8.010   2.443  12.580 -0.0114 -0.0325 -0.2618
19793W        W37997  14.509  13.633  16.761  0.1512 -0.0126 -0.3025
19794W        W37998   0.636  11.163  15.968 -0.0216 -0.0910  0.0458
19795W        W37999   7.773  15.670   2.375 -0.1772  0.3413  0.0316
19796W        W38000   4.254   3.366  16.867 -0.1384 -0.1241  0.0190
19797W        W38001  14.106   1.630  17.463 -0.0021  0.1346  0.3694
19798W        W38002   0.924   4.057   2.447 -0.0784 -0.1525 -0.0761
19799W        W38003   0.591   5.857   1.708 -0.1897 -0.2697  0.2221
19800W        W38004  12.263   6.411  13.899 -0.0929  0.1322  0.0369
19801W        W38005   4.961   1.203  15.212  0.1627  0.1551  0.1720
19802W        W38006  11.727  12.909  16.397  0.2077 -0.0295  0.3026
19803W        W38007   2.090   8.209  14.906  0.0953 -0.0068  0.1493
19804W        W38008   8.813   9.615   2.415 -0.2187 -0.1024 -0.3590
19805W        W38009   5.763  14.220  16.026  0.2127 -0.4417  0.1606
19806W        W38010  15.160   0.574   1.669  0.0881 -0.2586  0.4196
19807W        W38011   5.957  17.094   0.718  0.1405 -0.0265 -0.1615
19808W        W38012   1.628  11.822   3.606  0.0414  0.0027 -0.2094
19809W        W38013  10.088   5.442   4.599  0.2458  0.1208  0.0117
19810W        W38014  10.606   5.279   1.576 -0.0395  0.2802  0.0898
19811W        W38015   5.435  16.851  15.880 -0.0043 -0.3160  0.3280
19812W        W38016  12.283   1.231  14.229  0.0837  0.0319  0.0910
19813W        W38017   7.566   4.413   1.947 -0.0012  0.1588 -0.2925
19814W        W38018   2.712   7.674  11.152 -0.0738  0.1246  0.1847
19815W        W38019  17.010   6.288   0.031 -0.1023 -0.3378 -0.1571
19816W        W38020   0.098   3.613   2.688  0.1843 -0.1264  0.0006
19817W        W38021  13.498  16.499   0.459 -0.0694  0.1313  0.0153
19818W        W38022  17.284   4.823  16.847  0.0390  0.1303 -0.2298
19819W        W38023  10.596   2.798  13.629  0.2124 -0.0822  0.0696
19820W        W38024   7.156   4.140  16.214  0.0070 -0.1062  0.1256
19821W        W38025  10.101  10.748   1.574  0.0777  0.0572  0.2221
19822W        W38026   5.281   8.326  12.930  0.0774  0.1263 -0.2405
19823W        W38027  15.259   9.772   1.555  0.0757  0.1064 -0.1353
19824W        W38028   6.876   9.938   4.441  0.1250  0.0047  0.1948
19825W        W38029  12.751  14.532   2.533 -0.0775  0.0106  0.3341
19826W        W38030   1.981  11.471   3.500 -0.0735 -0.1881 -0.0083
19827W        W38031   2.570  12.023   3.116  0.2540  0.1328 -0.0272
19828W        W38032  15.120   4.178   3.463 -0.2375  0.0231 -0.2269
19829W        W38033   7.597   8.172  16.222 -0.0066  0.2732  0.1276
19830W        W38034  15.702   2.873   4.471  0.0932  0.0478  0.5005
19831W        W38035   8.485  10.194   3.121 -0.0254 -0.1982  0.1287
19832W        W38036   4.808   1.330   4.174  0.4510 -0.2775 -0.2525
19833W        W38037   6.556  12.353  15.649 -0.3491 -0.1622 -0.1326
19834W        W38038  10.395   1.546   2.549  0.0165 -0.3953 -0.0407
19835W        W38039   0.479  15.376   3.838  0.0305 -0.3191  0.2077
19836W        W38040  12.201  14.964  15.995 -0.1654 -0.1257 -0.0801
19837W        W38041   3.344   9.981   1.805 -0.0070  0.1225 -0.1720
19838W        W38042   5.927  12.458   4.300 -0.1174 -0.2712 -0.1557
19839W        W38043   4.809   5.944  14.788 -0.1599 -0.2025  0.0404
19840W        W38044   2.082   2.448   0.056  0.0577 -0.0710  0.1083
19841W        W38045   6.947  14.601   0.925 -0.1846  0.2254 -0.0191
19842W        W38046  12.846  12.419  16.516  0.0596  0.0668 -0.0500
19843W        W38047   4.346   6.972   0.524 -0.1296  0.0923  0.1509
19844W        W38048   3.379   8.507   0.220  0.1827  0.0217  0.1018
19845W        W38049   2.368   3.903  16.378  0.1615  0.1630 -0.0747
19846W        W38050   0.046  13.518  17.473  0.3378 -0.1345  0.1914
19847W        W38051  15.640  10.110   4.219  0.0412 -0.1839  0.0113
19848W        W38052   6.066   7.466  13.522 -0.1697  0.0337  0.0677
19849W        W38053   8.290   1.495  15.835 -0.1748  0.2585 -0.0908
19850W        W38054   6.253  14.847   2.246  0.5013  0.1192  0.0354
19851W        W38055   2.118  16.295   2.710 -0.2904 -0.0680 -0.3236
19852W        W38056  13.821   0.054  15.913 -0.0541 -0.0340  0.1030
19853W        W38057  16.823   9.926   5.560 -0.0682 -0.0646  0.0908
19854W        W38058   5.919   2.243  12.402 -0.0653 -0.2697  0.1573
19855W        W38059  11.422  12.690   0.420 -0.1325  0.0874 -0.1137
19856W        W38060  10.102  12.942   1.298  0.1525  0.1270 -0.5047
19857W        W38061   7.085   1.634   2.907  0.0769  0.0487  0.5358
19858W        W38062   0.233  10.406   5.166 -0.1553 -0.1432  0.1676
19859W        W38063   4.832  12.724  12.530 -0.0863  0.0497 -0.2771
19860W        W38064  10.687  10.457  16.153  0.0041  0.0443 -0.2190
19861W        W38065  16.675  11.480  16.199 -0.1010  0.0832 -0.1551
19862W        W38066   5.976   9.889   4.246 -0.1145  0.0227  0.1787
19863W        W38067   8.017  13.494   2.265  0.0639  0.0453  0.0174
19864W        W38068  10.155  14.133  15.364  0.2478 -0.1198 -0.1495
19865W        W38069   6.493  10.720   1.087 -0.1175  0.4416  0.0531
19866W        W38070   2.123   1.482   5.156 -0.0954  0.0335  0.1333
19867W        W38071  16.280  11.884   3.843 -0.1689 -0.3185 -0.1077
19868W        W38072   0.403   0.295  16.255  0.1248 -0.1277  0.0011
19869W        W38073   4.238   4.192   4.449  0.0656  0.2367 -0.1794
19870W        W38074   4.361  16.748   0.512 -0.1375 -0.0455  0.0387
19871W        W38075   8.169   7.765  15.503 -0.2254 -0.0518 -0.0811
19872W        W38076  12.837  12.887   1.000 -0.0645 -0.2368 -0.0734
19873W        W38077   5.027   2.273  15.999  0.2951 -0.0188 -0.0711
19874W        W38078  15.990   2.714   1.608 -0.0363 -0.1670  0.1692
19875W        W38079   4.829   5.547  12.847  0.0905  0.3906  0.2276
19876W        W38080   2.730   2.754   1.574 -0.0201 -0.0277  0.2323
19877W        W38081   0.683  16.579   4.512 -0.0482 -0.1501  0.0226
19878W        W38082   1.947   4.790   4.048  0.1568  0.1213 -0.0227
19879W        W38083   7.188  13.650  16.388  0.0157  0.0662 -0.4472
19880W        W38084   7.315   4.976   3.276  0.0948 -0.0979 -0.2809
19881W        W38085   4.503  14.210   1.832  0.1096  0.0355  0.0484
19882W        W38086   1.045   9.474  12.051 -0.0112 -0.1508 -0.1182
19883W        W38087   6.654   8.914   3.782 -0.0255  0.1974  0.1299
19884W        W38088  13.900   0.911  16.182 -0.2831  0.1956 -0.1391
19885W        W38089   4.169   2.131   4.471  0.0972  0.0539  0.2917
19886W        W38090   8.656   4.801   4.032  0.2261  0.0034  0.0634
19887W        W38091   8.844  15.495   1.575  0.5244 -0.2833  0.0435
19888W        W38092   2.446   3.196   3.290  0.0976  0.1752 -0.1683
19889W        W38093  11.670   9.562   0.134 -0.0894 -0.3286  0.0324
19890W        W38094  14.485  12.226  16.521  0.1320 -0.1883  0.2764
19891W        W38095  10.762   4.620  13.602 -0.2180  0.1671 -0.4187
19892W        W38096   0.954   6.328  12.512  0.0915  0.1550  0.1454
19893W        W38097  14.463   7.596   3.708 -0.0772 -0.1554  0.1208
19894W        W38098   1.427  17.076  14.877  0.2449  0.0360  0.2948
19895W        W38099   9.591   9.452  17.396  0.2064 -0.1178  0.1879
19896W        W38100   8.070  16.116  14.483  0.0680  0.1905  0.0787
19897W        W38101   9.352  16.638   3.082 -0.0626  0.0701  0.2626
19898W        W38102   3.894  10.265  14.632  0.0857  0.3228  0.0269
19899W        W38103   8.012  11.430   4.953  0.0956 -0.1915  0.0358
19900W        W38104  15.417   1.298  13.217 -0.0879 -0.1456  0.0837
19901W        W38105  16.042   4.276   3.394  0.1230  0.0726  0.0490
19902W        W38106   8.005   6.133   1.017  0.0552 -0.1611 -0.3353
19903W        W38107   5.567   9.342   4.761 -0.3700  0.0761  0.3547
19904W        W38108  16.121   0.780  16.028  0.1154  0.0430  0.2312
19905W        W38109   1.801   8.365   3.564 -0.2664  0.0942  0.0131
19906W        W38110  14.808   8.335  13.240  0.0118  0.4486 -0.2389
19907W        W38111  10.543  13.014   0.205 -0.0066 -0.1205 -0.0568
19908W        W38112   8.032  15.691  16.055 -0.3970  0.0368 -0.3939
19909W        W38113  14.051  13.898   0.501 -0.0372 -0.2133  0.2543
19910W        W38114  11.242   8.943  17.016  0.0600  0.1820 -0.0633
19911W        W38115   1.391  14.062  15.709  0.1763 -0.0744  0.2288
19912W        W38116   3.240   2.768   1.279 -0.1192 -0.1270  0.3842
19913W        W38117   3.776  10.963  12.365 -0.2201 -0.0433  0.0789
19914W        W38118   5.517   5.326  15.646  0.2894 -0.1320 -0.0591
19915W        W38119  11.373  14.847  14.462 -0.1286 -0.0679 -0.0482
19916W        W38120   2.340   3.751  15.372 -0.0417  0.2158 -0.2327
19917W        W38121  14.506   4.931   2.262 -0.2329  0.2217  0.0568
19918W        W38122   4.253  13.503   1.477  0.0856 -0.1591  0.3930
19919W        W38123  15.182  15.284   5.277  0.0736  0.0116  0.0736
19920W        W38124   3.007  15.544   5.376 -0.0491 -0.0171  0.1993
19921W        W38125  11.948  10.961  15.516 -0.0316 -0.3992 -0.2978
19922W        W38126  11.956   1.893  15.851 -0.0428 -0.1916  0.0920
19923W        W38127  11.510   8.556  14.947 -0.1288  0.2772  0.2245
19924W        W38128  16.415   0.398  15.898 -0.0729 -0.0439 -0.2776
19925W        W38129  16.314  15.312  14.550 -0.1707 -0.1606 -0.2126
19926W        W38130   2.693  11.205  13.003  0.0745  0.1743  0.0617
19927W        W38131  10.600   0.667   3.720  0.0141  0.0133  0.1129
19928W        W38132   4.657   6.230  15.214 -0.1310 -0.0962  0.0113
19929W        W38133  15.896   8.561  17.362  0.0453 -0.1239  0.2146
19930W        W38134  12.752  15.541   1.684  0.0266  0.0612  0.3048
19931W        W38135  10.671   7.771   5.808 -0.0232 -0.0498 -0.0409
19932W        W38136   4.818  13.685   4.726  0.1256 -0.0264  0.3426
19933W        W38137   4.265   9.850  17.113 -0.1778 -0.2941  0.0564
19934W        W38138  15.020   1.706   1.179  0.1722 -0.1276  0.1296
19935W        W38139   6.145   8.939   4.557 -0.0488 -0.1594  0.2647
19936W        W38140   0.229   9.363  12.391  0.1783  0.0264 -0.0463
19937W        W38141   5.065   6.452  13.269  0.2762  0.2211 -0.0630
19938W        W38142   7.726   9.165  14.907  0.1009 -0.1615 -0.1464
19939W        W38143  13.444  16.701   4.885 -0.2040  0.0402 -0.0719
19940W        W38144   0.707  14.131  12.793 -0.1095 -0.0781  0.1486
19941W        W38145   6.139   6.797   3.419 -0.0107  0.3149 -0.0684
19942W        W38146  16.254   7.858  13.123  0.1934 -0.0139  0.3503
19943W        W38147   7.849   2.638   0.835  0.0538 -0.1227  0.2108
19944W        W38148   6.477   0.721   0.034  0.1370  0.3269 -0.0103
19945W        W38149  16.411  14.315   5.091 -0.1068  0.2324 -0.2154
19946W        W38150   2.619   8.509   3.960  0.1250  0.2203 -0.2651
19947W        W38151   7.274   4.740   1.489  0.1160 -0.0553 -0.2151
19948W        W38152  10.946   4.486   4.279 -0.1591 -0.2928  0.0634
19949W        W38153   5.098   6.359  14.980  0.6005 -0.3281 -0.1144
19950W        W38154  16.718  15.766  13.002  0.1253 -0.1625 -0.2714
19951W        W38155  11.682   9.430  13.882 -0.0258 -0.0249  0.1492
19952W        W38156   0.785   4.357  16.664  0.0884  0.2949  0.0001
19953W        W38157   3.723   2.624   2.475 -0.1732 -0.1454  0.1996
19954W        W38158  15.373   8.940   1.939  0.1544  0.1383  0.0418
19955W        W38159  13.769   9.337   0.270 -0.3104  0.1917  0.1079
19956W        W38160  11.830  11.895  12.769  0.1022  0.0540 -0.0021
19957W        W38161   4.995  11.561   3.114 -0.1361  0.2283  0.0225
19958W        W38162   5.767  13.146  15.564  0.0460  0.2472  0.3950
19959W        W38163   6.270  11.020  13.195  0.1310  0.2311  0.1017
19960W        W38164  13.529  13.902  13.371 -0.0916 -0.1182  0.3517
19961W        W38165  11.921   8.134  14.215  0.2672 -0.2492 -0.2692
19962W        W38166  16.261  17.233  12.896  0.0039  0.0114 -0.1630
19963W        W38167  11.761  16.258   0.636 -0.0530 -0.0413  0.4770
19964W        W38168  13.073   3.354  14.930  0.2664  0.3058  0.0524
19965W        W38169  13.755   8.622  14.219  0.0063  0.4076 -0.0647
19966W        W38170   3.709  16.793   0.471  0.0488  0.0867  0.1234
19967W        W38171  10.789  14.709   4.946 -0.2982  0.2601  0.0574
19968W        W38172   1.409  10.555  14.729 -0.1561 -0.0710  0.2051
19969W        W38173   2.696   1.560  13.437 -0.1307  0.0106 -0.2189
19970W        W38174  14.597   3.699  17.062  0.1922 -0.1892 -0.0438
19971W        W38175   2.236  13.352  16.237 -0.0271  0.1877  0.2321
19972W        W38176   0.635  14.736   4.787  0.0116  0.3346  0.0847
19973W        W38177   4.897   5.541  14.340 -0.1893 -0.0267 -0.0333
19974W        W38178   9.356   3.483  13.659 -0.3414  0.3038 -0.2228
19975W        W38179  16.553   1.942   3.500  0.0789  0.1272 -0.1509
19976W        W38180  10.201   1.943   5.489  0.1686 -0.4814  0.0511
19977W        W38181   5.362   3.046   3.536  0.0023 -0.1843 -0.0362
19978W        W38182  10.332   9.048   1.383  0.0862 -0.0529 -0.0286
19979W        W38183   9.260  11.104   0.346 -0.1872  0.0339  0.1440
19980W        W38184  15.858   1.446  13.088  0.1831 -0.1190  0.1398
19981W        W38185   3.766  11.163   0.292  0.0959  0.1385 -0.1091
19982W        W38186   9.270  11.224  15.829  0.2681  0.1978  0.2123
19983W        W38187  10.310   9.405   3.223  0.1873 -0.1420  0.0637
19984W        W38188  11.377   2.337  12.342  0.1379 -0.1886  0.0667
19985W        W38189   9.975   5.112   1.646  0.0655  0.1679  0.0843
19986W        W38190  14.741  16.076  14.122 -0.2864 -0.1672 -0.0183
19987W        W38191   9.958   1.984   1.173 -0.2072  0.2492  0.0678
19988W        W38192   7.392   0.637   0.791  0.1163 -0.2008 -0.0838
19989W        W38193  12.360   2.607   0.802 -0.3615 -0.0855 -0.2566
19990W        W38194   1.498   4.899   3.360  0.0673  0.5142 -0.2732
19991W        W38195   8.402   8.124  12.589 -0.0246 -0.1646 -0.0583
19992W        W38196  12.929  16.733  16.380 -0.0521  0.0037  0.1247
19993W        W38197  13.708  11.828  13.477  0.0238  0.2360 -0.2049
19994W        W38198   7.031   0.998   0.913  0.0643 -0.0012 -0.1069
19995W        W38199   1.354  15.857   5.098 -0.0572 -0.1134  0.2001
19996W        W38200   2.455   2.926   2.909 -0.0515  0.2276 -0.2925
19997W        W38201  14.505  14.753   3.940  0.1034  0.0121 -0.0452
19998W        W38202   1.069   2.859   5.340  0.0963 -0.1132  0.0331
19999W        W38203  12.608  17.240  13.485 -0.1180  0.0521 -0.0493
20000W        W38204   5.113   6.643  16.995 -0.0347 -0.0608  0.2829
20001W        W38205   3.231   9.011   1.900  0.0126  0.0490 -0.2514
20002W        W38206   1.235   9.779   4.043  0.1388 -0.0623  0.1921
20003W        W38207  15.843  10.309   4.661 -0.0320  0.0520  0.3264
20004W        W38208   0.796  16.836   2.185  0.0100 -0.0355  0.3739
20005W        W38209   5.190   2.516  13.061  0.2461 -0.0479  0.2902
20006W        W38210  14.094  17.288  14.140  0.1465 -0.0538  0.0918
20007W        W38211  17.033  16.259   0.027 -0.0814 -0.1042  0.0060
20008W        W38212  10.208   3.433  12.664 -0.2547  0.0137 -0.1537
20009W        W38213   4.979   0.351   4.388  0.5877  0.0231  0.1728
20010W        W38214   6.100  16.152   2.535  0.1309  0.1598  0.0004
20011W        W38215   6.232   9.400   2.927 -0.2231 -0.1558 -0.0592
20012W        W38216   5.226  12.502   5.305  0.0972 -0.0834 -0.1873
20013W        W38217   7.469   8.276   1.101 -0.0431 -0.2630  0.1448
20014W        W38218  15.614  14.285  15.389  0.2431 -0.0234 -0.1621
20015W        W38219  15.663   7.149   4.988 -0.0696  0.1029  0.3871
20016W        W38220   2.442  15.841  14.830  0.0542 -0.0355 -0.0530
20017W        W38221   9.319  16.634   2.511  0.0470 -0.0409  0.2525
20018W        W38222  13.147  15.514  14.742 -0.1081  0.1001 -0.0254
20019W        W38223  16.964   4.593  17.214 -0.0256 -0.0139 -0.0735
20020W        W38224  13.926  10.857   5.172 -0.0642  0.1876  0.2202
20021W        W38225  13.258   9.411   5.333 -0.0793  0.1751  0.1302
20022W        W38226   0.959   4.961  13.342  0.1344  0.1064 -0.3734
20023W        W38227   6.617  15.033  14.558 -0.1246 -0.0718 -0.1353
20024W        W38228  13.542   2.264  14.469  0.0470  0.1319  0.3933
20025W        W38229   8.633   5.335   0.770 -0.0457 -0.3820  0.2025
20026W        W38230   5.886  10.656  13.942  0.1006  0.0440  0.4711
20027W        W38231  11.401  14.169   4.054 -0.0730 -0.0947 -0.0572
20028W        W38232   0.137  12.147  17.160  0.0686 -0.2454 -0.0764
20029W        W38233  16.595   9.423   1.327 -0.0086  0.2066 -0.2706
20030W        W38234   8.328   4.512   0.889 -0.0277 -0.2266 -0.3300
20031W        W38235   2.773  11.910   1.950  0.3659  0.1377 -0.0305
20032W        W38236   4.905   8.079   3.027  0.2933  0.0252  0.1219
20033W        W38237  12.379  16.244  15.694 -0.1549  0.0118 -0.0937
20034W        W38238   3.684   2.119   4.383 -0.0537 -0.0832 -0.0130
20035W        W38239   8.628  10.874  17.266  0.3864  0.1415 -0.1405
20036W        W38240   1.515  11.504  12.504 -0.0921 -0.0857  0.1474
20037W        W38241  16.411   4.930   0.554  0.1217 -0.1803 -0.0446
20038W        W38242  12.633  11.089  16.057  0.1878 -0.4109  0.1986
20039W        W38243   8.376  11.440  12.125  0.1197  0.3029  0.0139
20040W        W38244   5.004   4.799   4.177  0.2224  0.0811  0.1482
20041W        W38245  15.597   5.456   1.267  0.1269  0.0645  0.0749
20042W        W38246   1.347   9.745   1.069 -0.1554 -0.2915  0.0158
20043W        W38247   3.049  10.184   2.686 -0.1321  0.2594  0.1378
20044W        W38248   9.926   8.404  16.778 -0.0391 -0.1681 -0.2065
20045W        W38249   0.165   8.746   4.280 -0.4341  0.1108 -0.0295
20046W        W38250  11.521   5.813  14.845  0.2020 -0.1611  0.0037
20047W        W38251   2.770  15.819   0.457  0.4149  0.2126 -0.2327
20048W        W38252  17.160   0.111  17.074 -0.1634 -0.0194  0.0252
20049W        W38253   8.898   8.908   0.229 -0.2200  0.0333  0.1651
20050W        W38254   9.418   3.385   1.863  0.1765 -0.0368 -0.5096
20051W        W38255  11.681  13.067  17.021  0.2131 -0.0027  0.0218
20052W        W38256   9.772   2.657  16.522  0.0472 -0.4024 -0.2904
20053W        W38257  13.901  14.094  15.153  0.0594 -0.2671 -0.3922
20054W        W38258  10.074   1.911  15.741  0.1493 -0.0634 -0.3619
20055W        W38259  15.874  13.320   4.000 -0.0505  0.0179  0.0232
20056W        W38260   0.341  10.970   5.089  0.0024  0.1325 -0.2771
20057W        W38261  14.699   2.028   0.050 -0.0470  0.2024 -0.2857
20058W        W38262   5.914   8.628  13.871  0.0301  0.0292 -0.2068
20059W        W38263  15.860   1.767  17.021  0.0838  0.0134  0.2035
20060W        W38264  10.548  13.093  12.105  0.1856 -0.0899  0.0485
20061W        W38265  13.826  13.226  12.823 -0.2832  0.0017  0.1633
20062W        W38266  11.118   7.381   5.152  0.3516  0.3186  0.1595
20063W        W38267  13.340  15.892  13.256  0.1120 -0.1172  0.2874
20064W        W38268   9.639  15.140   1.569  0.1153 -0.4714 -0.2715
20065W        W38269  14.147  10.207  13.558 -0.0276 -0.0226 -0.0637
20066W        W38270   2.940   3.105   3.048  0.0576 -0.1359  0.1439
20067W        W38271   9.670   4.576   4.267  0.0381 -0.0641 -0.0733
20068W        W38272   9.440  14.737   3.220 -0.0734  0.2181 -0.0295
20069W        W38273  17.287   9.544   1.952  0.0046 -0.0304 -0.1722
20070W        W38274  16.782   0.032   1.184  0.0681  0.3742  0.0025
20071W        W38275  17.246   9.592   4.730  0.3015 -0.0995 -0.1106
20072W        W38276   9.607  12.047  12.513  0.2558  0.0376  0.3321
20073W        W38277  13.563  11.052  12.650 -0.0001  0.2512 -0.0307
20074W        W38278   0.190  10.131   4.142 -0.0552  0.0330 -0.0007
20075W        W38279  12.746   1.482  14.171 -0.0399 -0.0452 -0.2082
20076W        W38280  10.573   4.143  13.639  0.4733 -0.4992  0.2557
20077W        W38281  12.793  15.344  13.904 -0.2620  0.2571  0.1496
20078W        W38282   1.047  16.189   3.801 -0.0173 -0.0665 -0.0706
20079W        W38283   9.800   5.549  12.460  0.0425  0.0645 -0.2926
20080W        W38284   0.906   5.277   3.402  0.0778  0.3118 -0.1918
20081W        W38285   2.620  16.236   4.250  0.0287 -0.1568  0.1600
20082W        W38286  15.974  15.412  14.906 -0.1335 -0.1304  0.0534
20083W        W38287   0.675  15.124   5.678  0.2099 -0.0682 -0.0168
20084W        W38288  11.725  11.678  15.022  0.1590 -0.1027 -0.0569
20085W        W38289   2.775   8.789   0.855 -0.0694  0.0779 -0.0302
20086W        W38290  11.967  12.043  14.782  0.1654 -0.1864 -0.2322
20087W        W38291  14.815  11.068  11.531  0.2634 -0.2281  0.0254
20088W        W38292  17.229  11.881  14.433  0.1451 -0.2662  0.1063
20089W        W38293   5.909   7.722  14.081  0.1673  0.1537  0.1411
20090W        W38294   0.932   4.425   0.122  0.0136  0.0250  0.1879
20091W        W38295   3.442   1.102   5.452 -0.2121 -0.2778 -0.2466
20092W        W38296   1.956   3.268   2.367 -0.1811 -0.3344  0.0925
20093W        W38297   2.697  14.938  12.424  0.1914 -0.1939 -0.1104
20094W        W38298  12.039   0.810   1.556  0.0050  0.1487 -0.2230
20095W        W38299  16.248  16.504   1.491 -0.0419  0.1949  0.0140
20096W        W38300  11.287   4.620  11.940  0.1382 -0.2305 -0.1972
20097W        W38301  16.353   9.678   4.968 -0.2538 -0.1814  0.1586
20098W        W38302  17.064  15.958  17.111  0.2167  0.0134  0.0350
20099W        W38303  11.904  15.801   2.029 -0.0015 -0.1404 -0.2866
20100W        W38304   2.264   4.306  15.576  0.1426 -0.1800 -0.0142
20101W        W38305   8.752   4.103  13.729  0.5575 -0.0330 -0.0035
20102W        W38306   2.595   8.261   0.868  0.0111  0.4393  0.2776
20103W        W38307  14.138  13.206  16.880  0.3390  0.1065 -0.1624
20104W        W38308   5.497  15.995   5.028 -0.0880 -0.1295  0.0283
20105W        W38309  15.176  16.279  16.267  0.1139  0.0458 -0.1320
20106W        W38310  10.519  11.298   0.823 -0.0162  0.0469  0.2552
20107W        W38311   1.339  17.049  16.207 -0.2640 -0.1267 -0.2306
20108W        W38312  11.260   4.662   2.105 -0.0743 -0.0511 -0.2723
20109W        W38313   8.736  12.233   4.901  0.0058 -0.0327  0.2262
20110W        W38314   5.463   8.409   1.948  0.0154 -0.0164  0.0572
20111W        W38315  15.562  15.202   4.685 -0.1479  0.1529 -0.6585
20112W        W38316  16.955  11.069   2.660  0.1488  0.1662 -0.3592
20113W        W38317  13.586  12.403  17.138  0.0857 -0.1264 -0.1444
20114W        W38318  12.229   0.709   2.042 -0.0871 -0.0446  0.0975
20115W        W38319  13.042  14.288   3.811  0.0206 -0.0258 -0.1447
20116W        W38320   0.760  13.669  13.700 -0.0022 -0.1794  0.4132
20117W        W38321   1.646   6.637   0.383 -0.1224 -0.1830 -0.1652
20118W        W38322  11.912   9.288  16.791  0.4318 -0.1496 -0.2691
20119W        W38323   0.807   7.020  12.492  0.1860 -0.0203  0.1739
20120W        W38324  14.873   7.792   2.639  0.1695  0.1797  0.0926
20121W        W38325  16.124   5.682  16.706  0.0064  0.1281 -0.4153
20122W        W38326  11.965   7.087  12.714 -0.3057 -0.1524 -0.1732
20123W        W38327   3.060  14.067   2.161  0.1717  0.3013 -0.2133
20124W        W38328  13.856  10.954  15.411 -0.1876  0.0473 -0.2556
20125W        W38329  14.420   7.760   0.838  0.0034  0.4418 -0.2021
20126W        W38330  11.348   7.693   2.643  0.0725 -0.1215  0.0343
20127W        W38331  10.357  11.817  16.263  0.3525  0.3383 -0.0172
20128W        W38332  10.426   3.767  15.337 -0.2245 -0.0067 -0.1911
20129W        W38333  12.290   4.029  17.174  0.2116 -0.1769  0.1230
20130W        W38334  14.108   5.895  17.088  0.3290  0.1017  0.0820
20131W        W38335   1.495  13.151  14.356 -0.0623  0.0295  0.1169
20132W        W38336   2.980   5.626  12.553  0.0843 -0.0018 -0.2128
20133W        W38337  16.647   9.171  15.159 -0.1209 -0.4218  0.1515
20134W        W38338  12.082   9.061  16.359 -0.0105 -0.0058 -0.1397
20135W        W38339   3.411   7.687  16.092 -0.2269  0.3255  0.1059
20136W        W38340   9.400   7.604   0.233  0.2713 -0.3450 -0.1237
20137W        W38341  16.437  10.151   3.759  0.1354  0.1635 -0.1323
20138W        W38342  13.812   6.434  14.025  0.3946 -0.1798 -0.0107
20139W        W38343   4.844  15.735  16.375 -0.1385 -0.1227 -0.0192
20140W        W38344   6.038  10.862   3.235 -0.3551 -0.0218 -0.1823
20141W        W38345   9.077   2.410  14.507 -0.0169 -0.1223 -0.1869
20142W        W38346  14.125  11.156   2.384 -0.0424 -0.2641  0.1534
20143W        W38347   1.205   2.199  15.131  0.1678  0.0084 -0.2387
20144W        W38348  15.574  16.219   4.005  0.1299  0.1391  0.1881
20145W        W38349   5.252  12.987   2.930 -0.2377 -0.0076 -0.1749
20146W        W38350   0.283  15.456  15.418  0.0245  0.4202  0.1497
20147W        W38351   9.173  10.062  14.387 -0.0451  0.1198  0.0661
20148W        W38352  14.232  11.853   5.477  0.3533 -0.1964  0.1117
20149W        W38353   7.031  15.156   2.968 -0.2662 -0.0939 -0.2770
20150W        W38354   6.660  14.034   3.012  0.2238  0.0345 -0.2460
20151W        W38355   5.898   5.965  12.026 -0.2372  0.0741  0.1222
20152W        W38356  11.570   4.164  12.292  0.0174  0.0664  0.1075
20153W        W38357   0.578   0.436   4.400  0.0609 -0.0031  0.1761
20154W        W38358  13.074   4.674   1.532  0.1120 -0.2020  0.1316
20155W        W38359   4.901  12.246  16.649  0.0002 -0.0296 -0.0412
20156W        W38360   1.269  10.512  14.230  0.2266 -0.1485  0.1057
20157W        W38361  14.332  15.926  13.201 -0.2166 -0.2735 -0.1108
20158W        W38362   6.001   5.787   5.709 -0.0958 -0.2432 -0.0008
20159W        W38363   4.739   9.351   2.975 -0.3527 -0.0241  0.0542
20160W        W38364  16.200   6.733   1.830 -0.0519 -0.1640 -0.2271
20161W        W38365  10.755   7.470  17.407 -0.1356 -0.2438  0.1658
20162W        W38366   4.316  14.253  14.917  0.0853  0.3353  0.1458
20163W        W38367  14.492   2.219  11.482  0.0306 -0.0647  0.0377
20164W        W38368   6.857  15.511  14.704  0.4463 -0.3471 -0.0472
20165W        W38369  10.235   4.102   1.043 -0.1045  0.1076 -0.0650
20166W        W38370   3.039   3.749  17.252  0.0477  0.4618  0.0596
20167W        W38371   6.546   0.074   2.955  0.2003  0.0745  0.2991
20168W        W38372   7.894   1.146  15.880  0.0097  0.2337 -0.1249
20169W        W38373   4.356  10.063  13.386  0.0110  0.3637 -0.0950
20170W        W38374   8.532  17.016  13.545 -0.1699 -0.0708 -0.2704
20171W        W38375  10.037   2.896  12.391 -0.2250  0.2957 -0.1325
20172W        W38376   6.026   5.030  16.537 -0.1298 -0.0976 -0.1902
20173W        W38377   5.252  16.456  16.653  0.0733 -0.2382 -0.1479
20174W        W38378   0.029   2.051   3.711 -0.0388  0.1389 -0.1132
20175W        W38379   6.561   7.970  12.906 -0.4497 -0.1196  0.0504
20176W        W38380   6.171   5.007  17.034  0.3402 -0.1517  0.2122
20177W        W38381  10.150   2.256   0.381 -0.1126 -0.0702  0.0466
20178W        W38382  12.770   1.910   5.210 -0.1000  0.3420  0.0766
20179W        W38383   3.791   7.816   4.580  0.0241 -0.1270 -0.0995
20180W        W38384   6.944   4.751   2.797  0.1507 -0.3023  0.0663
20181W        W38385  11.721  10.603   3.250 -0.0942 -0.2870  0.1513
20182W        W38386   4.250  13.608  16.415 -0.0241 -0.0967  0.1942
20183W        W38387  14.941  15.697   0.626 -0.0538 -0.2868 -0.0094
20184W        W38388   8.244  17.109  15.626  0.1645  0.0907  0.0672
20185W        W38389   4.128  14.057   0.671 -0.2243 -0.2860  0.1771
20186W        W38390  12.537  10.348  14.930 -0.2848 -0.0845 -0.1914
20187W        W38391  13.770   0.537  12.434 -0.1806  0.1056 -0.0145
20188W        W38392   6.773   2.158  12.512 -0.0233  0.0959 -0.0357
20189W        W38393  16.910   6.688  15.827 -0.0152 -0.1322  0.4340
20190W        W38394  15.295   1.917   4.215 -0.1008 -0.1622  0.2007
20191W        W38395  14.359   8.129  11.994 -0.0557  0.1619  0.0591
20192W        W38396  14.222   8.539  17.017  0.2445 -0.0278 -0.0224
20193W        W38397  13.391   4.919   4.418 -0.0151  0.1341 -0.0160
20194W        W38398   5.442   1.947   2.422 -0.2497  0.3095 -0.1731
20195W        W38399   9.595  11.061   2.767  0.1418  0.1344  0.0792
20196W        W38400   0.664   5.731   3.684 -0.3812 -0.2734 -0.0338
20197W        W38401   6.009   3.237   0.138  0.1918  0.0050  0.0278
20198W        W38402  10.856  12.450   2.899 -0.0818 -0.1342 -0.3352
20199W        W38403   0.388   2.734   5.817  0.0414 -0.0394  0.1109
20200W        W38404   9.766   0.035   4.527  0.1544 -0.1679 -0.0306
20201W        W38405  12.418  13.278   5.071 -0.0344 -0.2797  0.0966
20202W        W38406  10.273   4.305   3.259  0.2347 -0.1511  0.1639
20203W        W38407   7.977   7.484   4.839  0.0744  0.1197  0.0877
20204W        W38408   9.773   4.775   0.436  0.1873  0.3611 -0.3553
20205W        W38409   0.538  12.508   2.525  0.1185  0.1234 -0.2672
20206W        W38410  12.755  12.644   4.860  0.1453 -0.3738  0.1121
20207W        W38411   3.802   7.040   4.020 -0.2070  0.1218 -0.1692
20208W        W38412  14.006   1.242   4.447 -0.0268  0.2784 -0.2401
20209W        W38413   9.842   8.484   0.548 -0.2051 -0.0511  0.1540
20210W        W38414  13.610  15.619   1.051 -0.1659  0.3010 -0.0937
20211W        W38415   0.009   1.870  15.598  0.0247  0.0296 -0.0107
20212W        W38416  14.902   1.337  14.680 -0.0794 -0.3625  0.0860
20213W        W38417  11.105   3.107  14.978  0.4916  0.0987  0.1044
20214W        W38418   6.494   5.621   5.480 -0.1599  0.1980 -0.3128
20215W        W38419   8.676   5.457  14.169  0.0136 -0.0158  0.0595
20216W        W38420  13.842  10.649   0.052 -0.1398  0.0788 -0.1409
20217W        W38421  14.356   0.414  16.692  0.0121  0.1492 -0.0328
20218W        W38422  15.000   3.756  16.113  0.0100 -0.3613 -0.0316
20219W        W38423   2.327  16.951   1.798  0.1283  0.0559  0.1088
20220W        W38424  10.246  14.051   6.437  0.3396  0.0832  0.1718
20221W        W38425  14.167   6.148   1.943 -0.2170  0.1358 -0.0388
20222W        W38426   8.438   1.560  17.046  0.2197 -0.1337  0.0039
20223W        W38427   0.468   7.003   3.541  0.0148 -0.0273  0.0479
20224W        W38428  13.947   1.111   3.156  0.2935  0.2802  0.1279
20225W        W38429  10.171   7.694   0.672 -0.0841  0.1426 -0.1394
20226W        W38430   3.972   2.272  15.640  0.1219  0.0906  0.1421
20227W        W38431   9.080   2.139   2.575  0.1084  0.1376 -0.0066
20228W        W38432  12.593  17.079   0.796 -0.2566 -0.2638 -0.2230
20229W        W38433  14.972  13.854  12.451  0.0279 -0.0039  0.1344
20230W        W38434  10.086   7.924   1.515  0.1786  0.1244  0.0548
20231W        W38435   1.315  14.662   5.299  0.3252 -0.0115 -0.1576
20232W        W38436  13.447   0.439  13.050  0.0543 -0.1084 -0.1316
20233W        W38437   8.180  13.662   1.384 -0.1440  0.1471  0.0891
20234W        W38438  13.756   7.563  16.093  0.2598  0.0577 -0.0591
20235W        W38439   4.959  12.968  14.768 -0.0358 -0.1978  0.0852
20236W        W38440  12.255   4.764   3.668  0.0454 -0.0724  0.0746
20237W        W38441   6.225  10.126  15.819  0.1487  0.1819 -0.0418
20238W        W38442  12.487   1.497  14.653  0.0018  0.1538  0.3952
20239W        W38443  14.017  10.732  14.877 -0.0308 -0.1500 -0.0624
20240W        W38444   4.178   8.589  16.040  0.2345  0.0156  0.0366
20241W        W38445   0.156  10.473  14.059 -0.2382 -0.0266  0.3105
20242W        W38446   7.976   9.056  14.452  0.4965 -0.0905  0.0918
20243W        W38447  16.270   1.641  17.361  0.1339 -0.0051  0.2379
20244W        W38448   2.738  11.416  13.457 -0.2945 -0.2643  0.0523
20245W        W38449   2.672   1.429  15.934  0.0506  0.1400 -0.1736
20246W        W38450  15.280   7.997  17.195  0.1029 -0.0540  0.0035
20247W        W38451  15.387  15.464  12.585 -0.1836  0.4731  0.2003
20248W        W38452   7.598   4.699  13.810 -0.0747 -0.0692  0.0756
20249W        W38453   3.540  16.352   4.275  0.1006 -0.1148  0.0878
20250W        W38454   9.142  14.209   3.159 -0.0553 -0.1946 -0.0012
20251W        W38455   2.322   5.497   1.716  0.0717 -0.0107  0.4015
20252W        W38456   1.190   6.804   0.611 -0.1470 -0.1938  0.1327
20253W        W38457   5.401   7.137   3.864 -0.1240  0.1022 -0.1712
20254W        W38458   2.958  12.472   1.975  0.0126 -0.0652  0.2646
20255W        W38459   0.352   1.200  15.027  0.1523  0.1832  0.1239
20256W        W38460  12.813   4.530  16.635  0.0433  0.3804  0.1128
20257W        W38461   3.597  11.542  15.997 -0.1801  0.2758 -0.0110
20258W        W38462  14.269   2.540   4.868  0.0105 -0.2333 -0.1075
20259W        W38463   2.594   7.710   0.969 -0.0567 -0.2968  0.1394
20260W        W38464  14.134  13.628  17.172  0.1383 -0.2013 -0.0349
20261W        W38465   0.904  11.662   5.345  0.0026  0.0188 -0.2589
20262W        W38466  11.991   7.180  15.725 -0.0048 -0.0266 -0.2462
20263W        W38467  10.249   1.845  13.958 -0.0125 -0.2338  0.0861
20264W        W38468  10.460  14.180   1.827  0.0264  0.1469  0.1466
20265W        W38469   2.815   0.150  15.509  0.1259 -0.1252 -0.2767
20266W        W38470  10.490   6.193   2.330 -0.1030 -0.1218  0.0297
20267W        W38471  13.766  16.509   5.835 -0.0793  0.1039 -0.0231
20268W        W38472  10.691  14.308  11.914 -0.0880 -0.0176 -0.0510
20269W        W38473   0.849  16.864   1.281 -0.0654 -0.4184 -0.2446
20270W        W38474  13.554  15.520   0.507  0.1846  0.1230  0.0321
20271W        W38475   0.472   7.846  16.694 -0.2624 -0.1180  0.4083
20272W        W38476   6.756  12.780   2.429  0.0267 -0.0197 -0.0704
20273W        W38477  14.186   7.098  16.629 -0.2233 -0.1815  0.2731
20274W        W38478   3.241   4.649   4.290 -0.1862  0.1329  0.0856
20275W        W38479  12.383   6.845  13.510 -0.0937 -0.2256 -0.2600
20276W        W38480   8.706   6.900  14.207 -0.1823  0.0480  0.0838
20277W        W38481   6.633   9.907   4.990 -0.2859 -0.0575 -0.3940
20278W        W38482   6.043   5.015   4.715  0.1028  0.0466  0.3172
20279W        W38483   5.727   3.942  17.234  0.3269 -0.0566  0.0114
20280W        W38484  11.878  10.298  16.767  0.1251 -0.0207  0.3046
20281W        W38485  11.840   3.534   3.728  0.0265  0.0097 -0.1552
20282W        W38486   8.086   6.625  16.272 -0.1937  0.2226  0.6380
20283W        W38487   7.978  16.195   3.913  0.0828 -0.0404 -0.3860
20284W        W38488   7.368   8.624  16.403 -0.2681 -0.2504 -0.2735
20285W        W38489   3.782   0.155   3.928  0.2398 -0.2010 -0.2443
20286W        W38490  11.184   1.055   2.579  0.1339  0.2498  0.0977
20287W        W38491   2.536  14.297   1.123 -0.1294  0.1485  0.1839
20288W        W38492  11.356   8.164  12.415  0.0146 -0.1952  0.2153
20289W        W38493  12.897  15.076  14.411  0.0546 -0.3881 -0.1020
20290W        W38494   6.479  16.966  14.505  0.2579  0.0644 -0.0026
20291W        W38495   4.893   5.437  12.330 -0.0433 -0.0666 -0.1051
20292W        W38496  12.788   6.898   4.015  0.1505 -0.2205  0.2920
20293W        W38497  13.929  13.741  15.634  0.1836  0.1926 -0.4456
20294W        W38498  16.624   7.392   2.976  0.0044 -0.2365 -0.1785
20295W        W38499  10.270  15.293   5.443  0.2588  0.1170 -0.1457
20296W        W38500   6.523   1.792   1.997 -0.0430 -0.2180  0.0475
20297W        W38501   4.015  11.496  16.563 -0.2431 -0.1020  0.0516
20298W        W38502   1.692  13.039   3.316  0.1019 -0.0579  0.0329
20299W        W38503   2.624  17.203   4.599 -0.2458  0.3226  0.3948
20300W        W38504   3.189   8.473   0.901  0.0486  0.4293  0.1530
20301W        W38505   1.068   3.411  12.712  0.0823  0.0622 -0.0050
20302W        W38506  12.868   0.564   1.033 -0.2997  0.1232  0.1200
20303W        W38507  13.852   5.512   3.178 -0.0640 -0.1427  0.2026
20304W        W38508  17.287   4.971  13.033 -0.2990  0.2588  0.0531
20305W        W38509  11.290   7.782   0.621  0.2434 -0.1118 -0.1018
20306W        W38510   8.755   3.521   3.799 -0.2021  0.2026  0.3230
20307W        W38511   9.430   6.869  17.079  0.0925  0.1521 -0.2018
20308W        W38512   7.609   2.911  11.175  0.0798  0.0321 -0.0426
20309W        W38513  13.874   2.497   3.160 -0.0740  0.0009  0.2481
20310W        W38514   7.998  10.210   0.062  0.1011 -0.0023  0.2649
20311W        W38515   9.369   7.814   0.832 -0.1143  0.0925  0.0955
20312W        W38516   8.622   1.864   0.959  0.1715 -0.2215 -0.0640
20313W        W38517   3.258   5.801   2.208  0.0099 -0.1372  0.2349
20314W        W38518  10.894  11.177   1.517  0.1780  0.4023  0.1191
20315W        W38519  10.023  10.924   4.480  0.2876 -0.2100  0.0491
20316W        W38520   5.881   1.577  15.437  0.2098  0.0058  0.1570
20317W        W38521  11.274   9.825  17.452 -0.2217 -0.0191 -0.0442
20318W        W38522   0.742   7.953   2.426  0.0168  0.3645  0.1648
20319W        W38523  16.218   6.339  15.450  0.0018 -0.2616 -0.0770
20320W        W38524   0.458  10.709  15.813  0.4891  0.3255 -0.2417
20321W        W38525   9.523  10.584  16.903  0.0517 -0.1691  0.0627
20322W        W38526   3.367  12.894  15.872 -0.1256  0.2712 -0.2045
20323W        W38527  15.982   1.959  12.983 -0.2411  0.0930 -0.2303
20324W        W38528  13.661   5.199   4.066 -0.0792  0.1436 -0.0469
20325W        W38529  12.262   7.152   3.664 -0.4112 -0.0507  0.2640
20326W        W38530   0.199   7.951  17.141 -0.2147  0.2613 -0.2389
20327W        W38531  10.935  13.343   3.797 -0.1414  0.2058 -0.2380
20328W        W38532   9.785   9.609   2.044 -0.1609  0.1244  0.2207
20329W        W38533  16.227   1.839  13.456 -0.4729 -0.1220  0.2150
20330W        W38534  13.411   4.379   3.003 -0.1688  0.1044 -0.0877
20331W        W38535  10.704   1.420   3.186  0.2191 -0.2527  0.1487
20332W        W38536  14.541  16.140   5.433  0.1455  0.0350  0.1793
20333W        W38537   7.797   0.344  16.710  0.0795  0.0898  0.1058
20334W        W38538   8.144  11.625  15.670 -0.1432  0.1036 -0.1072
20335W        W38539   9.918   4.425  13.128  0.1049 -0.1430  0.3356
20336W        W38540  11.782   1.593   0.800 -0.2855  0.0633 -0.2313
20337W        W38541  14.270   5.161   1.801 -0.0959  0.2009 -0.1271
20338W        W38542   6.788  14.959   2.157 -0.2079  0.3192 -0.0305
20339W        W38543   1.464   7.113  16.998 -0.1030  0.0833  0.4893
20340W        W38544  11.855   1.955  16.893 -0.1095 -0.4747 -0.1255
20341W        W38545  11.174  16.863   1.735  0.2456 -0.0447 -0.0088
20342W        W38546   2.001   7.689  14.963 -0.1911 -0.2646  0.0524
20343W        W38547   7.006  16.796  14.026 -0.1229  0.4909  0.4519
20344W        W38548  15.920  14.664  14.999  0.0255 -0.0081  0.2285
20345W        W38549   2.910   4.561  14.330 -0.0803 -0.0490 -0.1219
20346W        W38550   0.881   7.130   0.254 -0.0739  0.1639  0.0983
20347W        W38551  15.942   7.390  15.300 -0.1854 -0.0981  0.0370
20348W        W38552   5.904   8.962  13.447 -0.1652 -0.0207  0.0350
20349W        W38553   5.572  14.562  14.271 -0.1137 -0.0362 -0.0297
20350W        W38554   1.641  16.677  12.232 -0.0283 -0.4716  0.2790
20351W        W38555  13.314   9.263   1.616  0.1245 -0.0950  0.0581
20352W        W38556   7.253   0.282   0.437 -0.2399 -0.2669 -0.0676
20353W        W38557   3.223  16.191  15.198  0.0295  0.2285 -0.1736
20354W        W38558   7.694   6.626   1.193 -0.0083  0.1292  0.1546
20355W        W38559  14.985  16.664  16.073  0.1019  0.2153 -0.1118
20356W        W38560  15.016   7.554  13.379  0.2186  0.2503 -0.0114
20357W        W38561  10.661   8.567   0.207  0.1108 -0.1745 -0.0618
20358W        W38562   2.216  12.557  14.825 -0.3317 -0.3127  0.2127
20359W        W38563  17.205   5.446  12.888 -0.1974 -0.2914  0.0586
20360W        W38564  10.730   1.564  17.235  0.0717 -0.2544 -0.1081
20361W        W38565   8.209   5.161   2.868 -0.3567 -0.0161  0.0634
20362W        W38566   9.047   7.186  12.032  0.0556  0.1085 -0.1201
20363W        W38567   5.814  11.848  17.144  0.0643 -0.1134 -0.0971
20364W        W38568  11.322   7.665  15.275  0.0256 -0.1164 -0.2270
20365W        W38569   6.162  12.821  13.358 -0.2685 -0.1818 -0.1597
20366W        W38570   6.648   1.010  12.987  0.0207 -0.1701 -0.2632
20367W        W38571  12.906   4.529  15.059  0.1447  0.0601  0.0389
20368W        W38572  15.830   7.061  13.565  0.0108 -0.1557  0.0958
20369W        W38573  14.131   1.587   5.327  0.2813 -0.0870 -0.1137
20370W        W38574   7.409   2.317  13.451  0.0805 -0.1834  0.2063
20371W        W38575   2.918   0.331   2.798  0.1880 -0.0167 -0.0326
20372W        W38576   6.054   8.638   3.985 -0.5051  0.0166 -0.0074
20373W        W38577   1.314  16.758  16.642 -0.1334 -0.0065  0.1682
20374W        W38578   4.494  11.277   4.911  0.0903  0.0452  0.2613
20375W        W38579   0.458   4.695  16.948  0.0201  0.0690  0.1581
20376W        W38580   6.443   1.058   6.281 -0.1364  0.1743 -0.1125
20377W        W38581   2.396  12.034  14.777  0.3288  0.0870 -0.0705
20378W        W38582   3.170   4.287  13.117  0.0810  0.0967  0.0280
20379W        W38583   5.200  14.902  14.156  0.0969  0.1252  0.0510
20380W        W38584   2.031   8.639  15.215 -0.0602  0.1766  0.1959
20381W        W38585   0.479  12.239   0.257  0.0710 -0.1048 -0.1332
20382W        W38586   5.012  15.757   0.682  0.0657  0.4526  0.0100
20383W        W38587   4.720   5.505  15.215  0.0286 -0.2250 -0.0485
20384W        W38588  16.040   6.747   3.081  0.1312  0.1683 -0.0797
20385W        W38589   0.739   5.295  15.650 -0.3664  0.0230 -0.0349
20386W        W38590   8.795  12.038  14.300  0.1508  0.1945 -0.0880
20387W        W38591   3.381   8.277   2.627  0.1140  0.0397 -0.1490
20388W        W38592  16.943   7.790  17.161  0.0308 -0.2124  0.0292
20389W        W38593   2.197  10.693  14.338  0.2043 -0.1531  0.1060
20390W        W38594   7.742  16.515  16.563  0.2322 -0.1412 -0.1857
20391W        W38595   6.572  15.912  12.930  0.0487 -0.0151 -0.2301
20392W        W38596  13.297   3.196  14.148 -0.0079 -0.0587  0.0748
20393W        W38597  14.488   6.107   4.448 -0.3115 -0.1171 -0.0404
20394W        W38598   5.471   0.323  14.504 -0.1706  0.0644 -0.0300
20395W        W38599   6.606   9.972   3.652 -0.2276 -0.3171 -0.1951
20396W        W38600  15.505   7.191  14.492 -0.1655 -0.0378  0.3267
20397W        W38601  12.690   4.068  16.814  0.0910 -0.0579  0.1616
20398W        W38602  14.447  11.759   4.519  0.1372  0.2530  0.1476
20399W        W38603  16.085   2.331  13.247 -0.0433  0.0531  0.0695
20400W        W38604   1.658   5.518   0.915  0.4200 -0.0200 -0.0303
20401W        W38605   4.060  13.762   4.184 -0.0221 -0.1187  0.0702
20402W        W38606  11.459   0.637  17.313  0.0845  0.1994 -0.0349
20403W        W38607   3.316  11.382  16.508 -0.0495  0.0162 -0.0835
20404W        W38608  10.008  16.157   5.278  0.3432 -0.0863  0.0732
20405W        W38609   7.335  13.103   1.707  0.2962  0.0226 -0.2229
20406W        W38610  13.430  12.010  15.014  0.0083  0.1436 -0.0071
20407W        W38611   0.824  10.218  12.818 -0.1334 -0.1233  0.1280
20408W        W38612   3.625  11.749   0.104 -0.0611 -0.2229  0.2002
20409W        W38613   8.452   0.315  12.213 -0.1218 -0.1636  0.1557
20410W        W38614  10.632  13.997  17.476  0.0520  0.0521  0.1629
20411W        W38615   1.211   1.373  16.504  0.0239  0.2239  0.1169
20412W        W38616   0.479   7.997   1.044 -0.1522  0.0338 -0.0468
20413W        W38617   3.911   7.084   0.263  0.1375 -0.1998  0.0592
20414W        W38618  15.640  15.945  17.504 -0.2185  0.0299 -0.0365
20415W        W38619   0.442   7.828  13.952 -0.3243 -0.4650 -0.0769
20416W        W38620  11.612  15.710  15.931 -0.0732  0.0269  0.0586
20417W        W38621   4.160   8.650  13.256  0.0616  0.3165  0.0399
20418W        W38622   6.175  16.479  15.021 -0.1340 -0.0206  0.0598
20419W        W38623   0.051  10.745  14.629 -0.0798 -0.2570  0.0513
20420W        W38624   8.769   1.627  13.657 -0.2322  0.2049  0.1080
20421W        W38625   3.451  16.331   3.269  0.0422  0.2426 -0.1417
20422W        W38626  15.508   5.294   4.111  0.0986  0.2821  0.2180
20423W        W38627   7.701   7.155  13.898  0.0246  0.1822  0.2049
20424W        W38628  12.607  13.311  15.951  0.0126  0.5082 -0.1057
20425W        W38629   8.057  14.842  12.951 -0.0917 -0.0523  0.2626
20426W        W38630   7.060   3.504  14.174 -0.1653 -0.2667 -0.0534
20427W        W38631   4.694   0.694   5.164  0.2613  0.1823 -0.1326
20428W        W38632   9.855  12.357   2.930  0.2465 -0.3584 -0.0786
20429W        W38633   2.133  11.304   2.593 -0.1835 -0.0743  0.3404
20430W        W38634   3.426   0.311   3.641 -0.1177 -0.2196  0.0445
20431W        W38635   9.726   2.467   2.860 -0.0188 -0.1798 -0.1212
20432W        W38636   4.760  15.530  14.765 -0.0863  0.0695  0.0887
20433W        W38637   3.247   7.617   3.856 -0.0613  0.0459 -0.1768
20434W        W38638  15.265   0.943   0.505 -0.1455  0.2282  0.1500
20435W        W38639   1.311  10.421  12.812  0.1992 -0.0501  0.2456
20436W        W38640  16.197   5.063  12.923 -0.3945 -0.2230 -0.1195
20437W        W38641  12.471  13.211  15.301  0.0144  0.2152  0.0964
20438W        W38642   6.766   7.772   1.449  0.0557  0.1479 -0.1080
20439W        W38643   3.827   9.735   0.473 -0.1041 -0.0378  0.0053
20440W        W38644   5.399  10.294  12.207 -0.1284 -0.1782 -0.0232
20441W        W38645  10.342   2.341  15.688 -0.0602 -0.0724 -0.1560
20442W        W38646   0.941   4.471   2.196  0.0090 -0.0200 -0.1408
20443W        W38647  12.626  10.038   3.634  0.1103  0.1204 -0.3448
20444W        W38648  14.817   8.269  14.235 -0.0751 -0.1244  0.2418
20445W        W38649  13.971  16.751  12.938  0.1835  0.2838  0.1266
20446W        W38650  15.378   8.622   4.314 -0.0396  0.0615 -0.1790
20447W        W38651   9.391  15.349  12.994 -0.4859 -0.0358  0.0248
20448W        W38652   5.233   1.682   4.771 -0.1898 -0.1512 -0.1416
20449W        W38653   1.538  17.128  12.144  0.4662 -0.3085  0.0145
20450W        W38654  13.238   2.076   5.183 -0.1381  0.0246  0.2546
20451W        W38655  10.501   1.504   1.991 -0.3855 -0.1018 -0.0041
20452W        W38656   1.119   8.170   2.778 -0.1799 -0.3029  0.0500
20453W        W38657   8.869   1.755  17.130  0.0602 -0.0494 -0.2088
20454W        W38658   9.089  16.771  15.024  0.0296  0.1162 -0.0787
20455W        W38659  11.299  16.069   4.784 -0.0369  0.5619 -0.1729
20456W        W38660   2.719   7.013  15.895 -0.0865 -0.2458  0.2112
20457W        W38661   6.956   8.241   1.073  0.4432  0.0661  0.0468
20458W        W38662  12.314   5.029  15.813  0.1133  0.1349 -0.3530
20459W        W38663   4.515  13.126  12.750  0.0692  0.3975 -0.0823
20460W        W38664  12.457   0.040   4.212  0.2320 -0.0790  0.0147
20461W        W38665  13.599  12.985  17.193 -0.3195  0.1247 -0.2243
20462W        W38666   1.091  11.653  12.722  0.1430 -0.0602 -0.2105
20463W        W38667   5.610  16.755  14.031  0.0302  0.0399  0.0859
20464W        W38668  17.181  12.034   1.626  0.1144 -0.0610  0.0668
20465W        W38669   9.051  11.964   3.345 -0.2666 -0.0793  0.0546
20466W        W38670   5.105   8.773   0.168  0.0955 -0.1013  0.1827
20467W        W38671  12.033   6.630   4.541 -0.0530  0.1301 -0.1427
20468W        W38672  15.065   8.641   5.124  0.0399 -0.0719 -0.0010
20469W        W38673  10.384  13.817  15.717  0.0479 -0.0551  0.0114
20470W        W38674  16.514  16.708  15.082  0.0161 -0.1768 -0.2870
20471W        W38675   9.158   9.956   1.167 -0.2976  0.1342  0.2255
20472W        W38676  14.373   2.880  16.653 -0.3643  0.0859  0.2810
20473W        W38677  12.199  14.216  16.199 -0.1902 -0.0226 -0.0138
20474W        W38678  13.201  14.709  14.588  0.1037 -0.2027  0.0887
20475W        W38679  16.599   3.060  13.501 -0.0584  0.0637 -0.1051
20476W        W38680   4.433   2.815   4.094  0.1414 -0.0047  0.1139
20477W        W38681   6.243   3.901   5.089  0.3877  0.1563 -0.0410
20478W        W38682   6.734   3.125   1.597 -0.1229  0.1533  0.0811
20479W        W38683  10.093  13.998   2.114  0.1963 -0.1408  0.0149
20480W        W38684   4.873   1.763  15.089 -0.2049 -0.2167  0.0242
20481W        W38685   2.107   6.109  13.464 -0.0504 -0.2385 -0.0627
20482W        W38686  17.145   0.173   2.023  0.2216 -0.1741 -0.0212
20483W        W38687   8.626   3.506   0.064 -0.2807  0.1758  0.1698
20484W        W38688  16.893  14.369  15.214 -0.2862 -0.0576 -0.1042
20485W        W38689   2.773   5.263   5.561 -0.0281  0.1641 -0.0137
20486W        W38690   0.291  11.655   0.289  0.0928  0.1778 -0.0359
20487W        W38691   8.555   2.323   4.301 -0.1405  0.3468  0.0918
20488W        W38692   5.714  13.768   0.776 -0.1731  0.1579 -0.1179
20489W        W38693  17.093  11.633   0.762  0.3182  0.0805  0.3597
20490W        W38694   3.629  16.404  13.716  0.2834 -0.1057  0.3027
20491W        W38695   4.347   2.435  15.291  0.3125 -0.4068 -0.0693
20492W        W38696   3.357   7.081   0.198 -0.0783  0.0506 -0.3034
20493W        W38697   1.080  14.102  13.097  0.1240  0.1929  0.2313
20494W        W38698  12.708  16.989   5.044 -0.0239  0.1290 -0.0919
20495W        W38699   9.978  14.183  15.897 -0.0917 -0.0801 -0.1027
20496W        W38700  12.297   7.526   4.699  0.0520  0.1899 -0.0283
20497W        W38701   3.899   7.021  12.379  0.0497 -0.2539  0.2378
20498W        W38702   7.704  11.690  12.360  0.0846  0.1322  0.1181
20499W        W38703   6.254   7.097  12.435 -0.0740 -0.1890 -0.1322
20500W        W38704  14.950  15.600   1.247 -0.0489 -0.2116 -0.2125
20501W        W38705   5.173   4.092   1.874 -0.0363 -0.1395 -0.1263
20502W        W38706   5.061   4.971   3.306  0.1325  0.2012  0.1423
20503W        W38707   9.866   8.348  15.356 -0.1726  0.0718 -0.1658
20504W        W38708   8.376  13.833  17.503 -0.0595 -0.0978  0.2938
20505W        W38709  16.269   1.326   1.233 -0.0273  0.1286  0.2093
20506W        W38710   7.583   8.405   5.404  0.3435 -0.0008  0.2733
20507W        W38711   1.367  10.619   4.453 -0.2139  0.1788  0.0209
20508W        W38712   9.749  12.022  14.232  0.0383 -0.2496  0.3893
20509W        W38713   1.845   9.206   2.070  0.2311 -0.0315  0.1661
20510W        W38714   7.334  13.410   2.688  0.0154 -0.0959 -0.1499
20511W        W38715  16.685  14.580  13.093 -0.2564  0.0074  0.2573
20512W        W38716   2.306  11.504   0.757 -0.0218  0.0816  0.1379
20513W        W38717  10.859  10.646  13.736  0.0417 -0.1179  0.2148
20514W        W38718   6.304  16.960  12.937 -0.0811  0.1212 -0.1618
20515W        W38719   0.276  17.158  14.266 -0.0932  0.1855  0.0173
20516W        W38720  15.562   4.751   4.170  0.0722 -0.0245  0.1277
20517W        W38721   5.066   9.670  16.552 -0.0566 -0.1785  0.2048
20518W        W38722   2.289   5.449   3.343  0.0717  0.0768 -0.1379
20519W        W38723  14.907  16.697  17.418 -0.0357 -0.1321 -0.1827
20520W        W38724  12.206   4.994   1.660  0.2696 -0.0908 -0.0231
20521W        W38725  13.605   7.023   0.078 -0.2126 -0.0661 -0.1594
20522W        W38726   8.244  11.868   1.813  0.0283  0.1293  0.0219
20523W        W38727   8.298  16.515   5.034  0.1397 -0.0773 -0.3575
20524W        W38728  17.110  12.563   4.493  0.0205  0.0015  0.2811
20525W        W38729  12.627  10.832   1.861  0.0323 -0.2460 -0.1505
20526W        W38730  11.603   2.535   2.696 -0.1542  0.2194 -0.2934
20527W        W38731   8.651   5.664  12.175 -0.0633 -0.0494 -0.0410
20528W        W38732  13.758   1.705   5.710  0.0350  0.1318 -0.4368
20529W        W38733  11.649  16.468   2.541 -0.1374 -0.4137  0.1049
20530W        W38734   8.434   2.771  15.918 -0.1364  0.1906 -0.1202
20531W        W38735   9.457   4.473  11.990  0.1941  0.3541  0.0233
20532W        W38736   7.864   9.354  14.034 -0.1907 -0.0882  0.0737
20533W        W38737   1.676   5.750  13.421  0.1179 -0.3786 -0.0659
20534W        W38738   5.649   1.390  14.626  0.0791  0.2265  0.1155
20535W        W38739   6.250   7.811   3.499  0.3079 -0.2319 -0.2418
20536W        W38740   3.707  15.031   0.860 -0.2938 -0.1182 -0.1142
20537W        W38741  11.233   1.016  12.589  0.2596  0.1440 -0.0995
20538W        W38742   9.161  11.956  12.064 -0.2146 -0.5242  0.1502
20539W        W38743   7.291   5.786   4.508 -0.1798  0.1591  0.0751
20540W        W38744  15.375  12.557  15.341  0.1883  0.3802 -0.1639
20541W        W38745  10.845  12.452  12.764 -0.0311  0.0418 -0.0278
20542W        W38746  14.763   3.708  15.292  0.2755 -0.4422 -0.1763
20543W        W38747   7.820  14.497   1.266  0.0718  0.0572  0.1132
20544W        W38748  14.528   4.987  11.931  0.0982  0.0536 -0.1091
20545W        W38749  15.317   4.447   3.828 -0.0161 -0.0536 -0.0008
20546W        W38750  16.706   6.803  14.636  0.4012 -0.0648  0.1412
20547W        W38751   7.615   1.063   2.875 -0.2216 -0.0894  0.2871
20548W        W38752  12.559   1.752   2.255 -0.0354 -0.0931  0.1311
20549W        W38753  10.461   5.648  13.719  0.0425 -0.0539 -0.0178
20550W        W38754   6.038   1.799   4.462 -0.0326 -0.0579 -0.0464
20551W        W38755   9.931   8.471  14.276 -0.0506  0.4507  0.1071
20552W        W38756   0.922   4.404  11.366  0.1599  0.3434  0.1809
20553W        W38757   5.173   3.086  16.883  0.0642  0.1728  0.0191
20554W        W38758  13.056   3.666   4.384 -0.0739  0.2190 -0.1696
20555W        W38759   0.434   7.020  12.951  0.2361 -0.0154  0.4253
20556W        W38760   2.380  15.620   3.626  0.3628 -0.0139  0.2773
20557W        W38761  14.453  15.792  16.520  0.1467 -0.2085  0.0407
20558W        W38762  15.552   3.620  17.293  0.0168 -0.1775  0.1251
20559W        W38763   4.180   1.722   2.161  0.2726  0.0111 -0.3330
20560W        W38764  14.040   8.307   3.646  0.3639 -0.2435 -0.0587
20561W        W38765  11.211  15.580  15.538 -0.0225 -0.1077  0.1418
20562W        W38766   5.599   4.979   1.541 -0.0686  0.2181  0.0069
20563W        W38767   5.333  12.496   0.519  0.1197 -0.0319  0.0647
20564W        W38768   5.285   3.433   3.833 -0.0862 -0.0075 -0.0197
20565W        W38769   3.150  11.766   5.333  0.1705 -0.0968  0.1611
20566W        W38770   5.217  14.733   1.495 -0.1568  0.2175 -0.0771
20567W        W38771   6.322   0.094  16.340  0.2729 -0.0057  0.0663
20568W        W38772   1.484  14.390  17.325  0.1545  0.3008 -0.0178
20569W        W38773  11.571  11.115   3.349 -0.1954  0.1579 -0.0590
20570W        W38774   0.271  10.379   1.593 -0.0732  0.1954  0.0859
20571W        W38775  11.645  11.623   0.993  0.1293  0.1538  0.0157
20572W        W38776  12.321   5.901  13.543 -0.1890  0.1667  0.1403
20573W        W38777   7.706   4.469  12.831  0.1092  0.0003  0.0889
20574W        W38778   2.289   0.718  16.402 -0.1613  0.1712  0.0242
20575W        W38779  14.844   7.080   1.052 -0.3273  0.3284 -0.2872
20576W        W38780  10.374   4.281  14.862 -0.0482  0.0800 -0.0663
20577W        W38781   6.986  14.372  15.296  0.1029  0.2611  0.0059
20578W        W38782  13.362  14.627   3.710 -0.0568  0.0553  0.1665
20579W        W38783  14.301  11.281  14.095 -0.0601 -0.1272  0.0366
20580W        W38784  13.871   9.405   1.599 -0.3668 -0.2970  0.0086
20581W        W38785  14.099   2.674  15.201  0.1851 -0.2063  0.0371
20582W        W38786   2.539   6.801  13.789  0.0470 -0.2022  0.0571
20583W        W38787  11.057  12.250  15.958  0.1076  0.0714 -0.2917
20584W        W38788  16.037   2.580   2.451 -0.0579  0.0921 -0.0408
20585W        W38789  14.032   0.808  15.437  0.1228  0.3144 -0.0178
20586W        W38790   9.109  16.152  15.188 -0.1973 -0.1564  0.0195
20587W        W38791   3.127  13.409   4.159  0.2877 -0.3476  0.2324
20588W        W38792  16.011  10.203   1.851  0.4122 -0.1170 -0.2798
20589W        W38793   8.162   1.009   3.478  0.1055  0.3647 -0.0010
20590W        W38794   4.199  10.167   2.151  0.0020  0.0227  0.1236
20591W        W38795   5.445   3.076  12.230  0.1670  0.1475  0.2520
20592W        W38796  16.421  14.678   4.661  0.0099 -0.2073  0.1729
20593W        W38797   2.905   0.429   2.276 -0.0830 -0.0368 -0.0629
20594W        W38798  16.413   5.870  15.172  0.0030  0.3083 -0.0227
20595W        W38799  16.786   6.306  16.159 -0.3789 -0.3538  0.2247
20596W        W38800   5.729  16.191  14.767  0.1095 -0.0298 -0.0635
20597W        W38801   9.656   5.003  16.206  0.1146 -0.1957 -0.1701
20598W        W38802   6.126   6.414  16.901  0.0545 -0.2185  0.1951
20599W        W38803  11.907   9.002  13.664  0.0574 -0.1747  0.1388
20600W        W38804   9.452   9.050  12.211  0.0044 -0.1247 -0.0181
20601W        W38805   1.178  15.459   1.058 -0.2626  0.0405  0.2708
20602W        W38806   2.587   2.760   4.069  0.1314 -0.0022 -0.1343
20603W        W38807  17.221   9.723  12.372  0.3031  0.0154  0.0986
20604W        W38808   2.208   7.287  11.101 -0.0708  0.0015  0.1411
20605W        W38809   7.453   1.609   4.337  0.0220  0.1997 -0.0248
20606W        W38810  15.751   9.567   4.209  0.0216  0.0222  0.0646
20607W        W38811   1.914   6.491  13.141  0.0488  0.1397  0.1291
20608W        W38812   8.491  14.285  17.234  0.2211  0.3613  0.1665
20609W        W38813   0.901  13.598   0.080 -0.1072  0.3960 -0.0209
20610W        W38814   0.907  13.122   0.318 -0.0600 -0.1291  0.1789
20611W        W38815  13.172  15.263   0.120  0.0557  0.2014  0.0393
20612W        W38816   1.345   3.972   1.376  0.1683  0.2498 -0.2335
20613W        W38817   0.364  12.128   4.216  0.0703  0.0854  0.2024
20614W        W38818  11.502   1.963  16.463 -0.0976  0.1205  0.1608
20615W        W38819   9.704   4.401  16.087 -0.3893  0.1408  0.4653
20616W        W38820   6.349  15.456  14.765  0.2735 -0.1139 -0.2860
20617W        W38821   8.374   1.320  13.332  0.2774 -0.2121  0.0432
20618W        W38822   7.383   3.207   4.856 -0.1477 -0.1026 -0.0098
20619W        W38823   7.124  11.337   5.148 -0.2570  0.1389 -0.2957
20620W        W38824  16.158   3.717   0.761  0.2981  0.1939 -0.1628
20621W        W38825   9.004   8.641   0.633 -0.3217  0.0083  0.2989
20622W        W38826  14.350   5.859   3.238  0.1163 -0.0381  0.0082
20623W        W38827  14.930   0.709   0.826  0.2021  0.0946 -0.0667
20624W        W38828   2.611  17.044   5.112  0.0094  0.1273  0.2724
20625W        W38829   2.860  15.076   4.669  0.2950  0.2301 -0.0547
20626W        W38830   3.877   2.142  15.137  0.0520 -0.0903  0.0981
20627W        W38831   7.150  15.062  14.518  0.1556  0.0638 -0.1120
20628W        W38832  16.164  12.787  13.311 -0.0231  0.1490  0.1320
20629W        W38833  13.728  10.508  13.602  0.0491  0.0203 -0.1442
20630W        W38834   6.290   0.717   5.448 -0.1698  0.0968 -0.1572
20631W        W38835   5.374   6.110   1.427 -0.1787  0.0825 -0.0220
20632W        W38836   4.977   1.149  16.521 -0.0280  0.1202 -0.2095
20633W        W38837  11.961  13.279   2.877 -0.4024  0.3126  0.2759
20634W        W38838  14.003   8.052  16.214 -0.2168 -0.0960  0.1488
20635W        W38839  14.885   9.308  17.251  0.1569 -0.1821 -0.0166
20636W        W38840   4.987  13.073   3.679  0.1362 -0.0490  0.1105
20637W        W38841  14.429  10.717   4.389  0.1455  0.0926 -0.0826
20638W        W38842  14.389   0.635  16.232  0.0899 -0.2316 -0.0380
20639W        W38843   8.756   2.207  12.489  0.0423 -0.1646  0.1545
20640W        W38844   4.422  14.487   2.282  0.0910  0.0378 -0.1377
20641W        W38845   7.630  16.401  16.065 -0.0349  0.0124  0.2494
20642W        W38846   9.442  17.153  13.085 -0.0142  0.1162 -0.1661
20643W        W38847   1.846   5.977  16.274 -0.4599 -0.3133 -0.0324
20644W        W38848   1.974   9.243   6.631  0.3450  0.1276 -0.2161
20645W        W38849  12.596  16.326   4.785  0.1714  0.1193  0.1653
20646W        W38850   9.915  14.859  11.794  0.0927 -0.0148 -0.0028
20647W        W38851  15.604   9.108   3.330  0.2217  0.2498 -0.1065
20648W        W38852   6.455   7.182  15.577 -0.1369 -0.1216  0.2650
20649W        W38853   4.997  12.142   0.735 -0.1973 -0.1954 -0.3560
20650W        W38854   6.709   7.071  16.056 -0.3464 -0.0744 -0.1886
20651W        W38855   4.700   3.059   1.723  0.2192  0.2128  0.0847
20652W        W38856   2.168   9.496   4.817 -0.0692 -0.0358 -0.2430
20653W        W38857   7.998   5.136   3.631 -0.1523 -0.0403  0.0521
20654W        W38858   9.426  12.549   3.106  0.2354 -0.3066 -0.2712
20655W        W38859   0.187   3.858   2.199  0.0477 -0.3016 -0.1752
20656W        W38860  12.192   7.673   1.175  0.1534  0.2317  0.0000
20657W        W38861   2.516  16.028   2.734  0.1374 -0.0902  0.0108
20658W        W38862   3.666   2.972   1.511  0.3139 -0.2596 -0.1187
20659W        W38863   8.848   6.939  17.228  0.2196 -0.1200  0.0137
20660W        W38864   7.263  15.735   4.372  0.2495  0.0915 -0.1233
20661W        W38865   1.188  11.677  15.360  0.0119  0.2890 -0.4527
20662W        W38866   1.091   6.010   1.681 -0.1169 -0.1263 -0.0836
20663W        W38867   3.418  15.173   4.073  0.0300  0.0912  0.1687
20664W        W38868   9.132   5.383  17.497  0.0634 -0.3173 -0.1311
20665W        W38869  15.474  16.701   3.863  0.0392  0.1980 -0.2610
20666W        W38870  15.189  15.030   3.573 -0.0159 -0.2349 -0.1463
20667W        W38871   6.321   6.792  15.951 -0.1509  0.2715 -0.1948
20668W        W38872   2.414   4.802  15.577 -0.1805  0.0548  0.0637
20669W        W38873   1.453  13.739  14.070  0.0449  0.1995 -0.1168
20670W        W38874   4.496  11.435  16.340 -0.0616  0.2617  0.0085
20671W        W38875   4.289  12.884   5.035 -0.2553  0.0109 -0.0169
20672W        W38876  17.067   6.318  13.154  0.1351 -0.3956 -0.1134
20673W        W38877  14.535  14.718  12.644  0.0383  0.1673  0.0416
20674W        W38878  10.977   9.072   0.917  0.0655 -0.1550  0.1186
20675W        W38879   4.716   8.520   2.687  0.1182  0.1919 -0.1978
20676W        W38880   8.490   0.438   3.060 -0.2589 -0.0012  0.6658
20677W        W38881  11.915   9.201   3.296 -0.2270  0.0856  0.0650
20678W        W38882   7.991   2.238  13.462  0.2352  0.1192 -0.2041
20679W        W38883  13.854  10.417  16.199  0.0623  0.1442  0.3498
20680W        W38884   6.081   4.467  15.060 -0.1370 -0.0311  0.1709
20681W        W38885   5.256   3.962  16.844 -0.1571 -0.0888 -0.1048
20682W        W38886   3.913   5.691   1.654 -0.1466  0.1663  0.1297
20683W        W38887  11.819  16.385  14.406 -0.1291 -0.1718  0.0565
20684W        W38888   7.429  13.807  17.172  0.1030  0.1911 -0.2389
20685W        W38889   8.906  11.257  15.011 -0.1687 -0.2173 -0.3346
20686W        W38890  17.267   8.862   0.076  0.2223  0.0583  0.1517
20687W        W38891   5.917   0.195  15.213 -0.3668 -0.0889 -0.2104
20688W        W38892  11.967   1.129   0.652 -0.0280 -0.3650 -0.2717
20689W        W38893  13.041   6.459   4.100 -0.0132  0.3497 -0.3633
20690W        W38894  13.260  10.589  16.000 -0.1737  0.1747 -0.1029
20691W        W38895  13.397   4.748  13.460  0.1165 -0.1736 -0.1356
20692W        W38896   5.241  10.164   0.724 -0.1976  0.0563  0.0132
20693W        W38897  13.366   9.206   2.732  0.0204 -0.0487 -0.0271
20694W        W38898   6.694   6.754   4.753  0.0895 -0.0702  0.0585
20695W        W38899  13.106   3.837   4.893 -0.0777 -0.4007 -0.3723
20696W        W38900  11.284  12.089  12.996  0.2059  0.0675  0.0590
20697W        W38901  16.316   5.606  14.455 -0.0466 -0.0872 -0.0053
20698W        W38902   2.102   0.439   0.715  0.1162 -0.1660 -0.1590
20699W        W38903  11.944  12.086  17.302 -0.0262  0.3537 -0.1855
20700W        W38904  16.276  10.679   0.161 -0.0324  0.3030 -0.1908
20701W        W38905  11.848  16.748  16.943 -0.4772  0.0407  0.0188
20702W        W38906   1.580  16.633   3.874 -0.0368  0.2218  0.2938
20703W        W38907  13.087  14.886  15.413 -0.1179 -0.0088  0.1796
20704W        W38908   7.337  16.479   3.956 -0.1438 -0.1813  0.0546
20705W        W38909   2.907   3.862  16.376 -0.0213  0.0695  0.4176
20706W        W38910   4.446   6.241   4.230  0.0452  0.0285 -0.0587
20707W        W38911   3.356   3.163  11.019 -0.0339  0.3311  0.1214
20708W        W38912  10.500   4.486   2.822  0.1164  0.2884 -0.2055
20709W        W38913  15.458   4.079  14.508 -0.1093  0.0958  0.0318
20710W        W38914   8.752   6.666   0.860 -0.0567  0.1438 -0.0490
20711W        W38915   9.048   2.469   1.618  0.0727 -0.3823 -0.2442
20712W        W38916   3.997  17.304  12.550  0.1862 -0.0126 -0.0726
20713W        W38917  15.940   3.689  16.834 -0.3490 -0.0070  0.0446
20714W        W38918   3.935   6.143  12.218 -0.1234 -0.0263  0.0065
20715W        W38919  14.408   4.952  15.851 -0.0113  0.2081  0.0575
20716W        W38920   3.229   5.622  13.226 -0.0042 -0.0957 -0.1504
20717W        W38921  13.083   9.488  15.121 -0.0768  0.0647 -0.2262
20718W        W38922  10.641   5.403  14.594 -0.1256 -0.1798  0.1190
20719W        W38923   6.729   0.989  14.317 -0.3008 -0.0263 -0.5571
20720W        W38924   3.344  10.423   5.497  0.1797  0.0026  0.0406
20721W        W38925   0.421   3.710  16.056  0.2806 -0.2753  0.0286
20722W        W38926  14.627  12.849   3.773  0.0754 -0.0136 -0.2015
20723W        W38927  13.323   7.892  12.194  0.2592  0.2313  0.1042
20724W        W38928  16.240  14.011  12.571  0.1778 -0.0166  0.3317
20725W        W38929  16.660  15.416   0.050  0.3298  0.1501 -0.1947
20726W        W38930  15.201   2.380  12.480 -0.3647  0.0932 -0.2709
20727W        W38931   8.664  11.179   1.455 -0.1515 -0.0188  0.2126
20728W        W38932   5.456   1.028  15.199 -0.1393 -0.1946 -0.2454
20729W        W38933  15.123   7.564   3.004 -0.3591  0.0021  0.1428
20730W        W38934   2.182  12.447   0.266 -0.0605  0.2428  0.1372
20731W        W38935   5.287  13.432   2.699 -0.1209  0.2338  0.0247
20732W        W38936   2.065  15.420  12.861 -0.0123 -0.1340 -0.1733
20733W        W38937   2.113   8.702  13.543 -0.0259 -0.3482  0.0518
20734W        W38938  12.295  16.819   4.344  0.2332 -0.1769 -0.0971
20735W        W38939   6.070   6.516   1.315  0.3112  0.2159 -0.0829
20736W        W38940   9.559   6.891  13.536  0.1097  0.1515 -0.0779
20737W        W38941  14.144   7.087  14.479 -0.3454  0.0789 -0.0734
20738W        W38942   0.533  14.803  14.060 -0.0696 -0.1847 -0.1759
20739W        W38943   7.511  16.915  16.871  0.3772 -0.1032 -0.1656
20740W        W38944   0.451   3.218  14.613  0.2582 -0.1524 -0.1257
20741W        W38945   4.956   5.657  16.082  0.3469  0.0559  0.1396
20742W        W38946  15.240  13.557  17.426  0.0202 -0.1336  0.0654
20743W        W38947  14.930  14.992   4.046 -0.1694 -0.1814  0.0753
20744W        W38948   3.343  13.064  13.919  0.0897  0.1059 -0.2032
20745W        W38949  11.896   8.034  12.455  0.3040  0.3085  0.1388
20746W        W38950  15.864  12.060   3.390 -0.0891  0.0208 -0.1030
20747W        W38951  13.038   9.961  15.235 -0.2226  0.0097 -0.2334
20748W        W38952   9.158   6.661   1.235 -0.2002 -0.1606  0.0637
20749W        W38953  13.356  10.357   0.768  0.0648  0.0190  0.0148
20750W        W38954   7.194   7.741  14.059  0.1360 -0.1001  0.0121
20751W        W38955   2.131   8.184  17.457 -0.0197 -0.0668 -0.2183
20752W        W38956   0.844  14.334   1.724 -0.1490 -0.2126  0.1433
20753W        W38957   8.574  15.003  14.888 -0.2892  0.0380 -0.0244
20754W        W38958   4.285  15.495  14.671  0.1750 -0.1900 -0.3609
20755W        W38959  13.202   7.248   0.340  0.2318  0.2062 -0.3439
20756W        W38960   8.498  16.194   0.688  0.2327 -0.0667  0.0983
20757W        W38961   8.376   9.718   2.711  0.3149  0.2533 -0.0281
20758W        W38962   8.940   3.661   1.139 -0.0595 -0.0924 -0.0854
20759W        W38963   0.559   4.550   3.165  0.0020 -0.0548  0.0834
20760W        W38964   4.371   5.829  15.068 -0.0111  0.0603  0.2106
20761W        W38965  15.105  14.474   1.217 -0.1394  0.1499 -0.3192
20762W        W38966  10.062   8.383  12.474 -0.0396  0.0340 -0.0910
20763W        W38967  10.545   5.938   2.840 -0.1193  0.0788  0.0227
20764W        W38968  11.724  12.378  13.059  0.2026 -0.3160  0.0739
20765W        W38969   2.337   1.614   2.224 -0.0213  0.4021 -0.0005
20766W        W38970   6.113   2.395   0.872  0.2919 -0.2452 -0.1561
20767W        W38971   2.553  14.088   2.212  0.2801 -0.0310  0.0602
20768W        W38972  16.660  16.528   1.190 -0.1068 -0.1451 -0.1449
20769W        W38973   0.250   0.077  12.877  0.1316  0.1877 -0.1361
20770W        W38974  16.970   7.202  14.314  0.1501  0.3385  0.0727
20771W        W38975   7.569   6.992  15.109  0.3586 -0.1377  0.0190
20772W        W38976   1.656  11.262   0.725  0.0635  0.1266  0.1715
20773W        W38977   5.825  17.031  13.079 -0.0639  0.0317 -0.1395
20774W        W38978  17.016  12.809   2.755 -0.0204  0.0671 -0.1567
20775W        W38979   4.698  16.986  15.023  0.2409  0.1375  0.1190
20776W        W38980  12.965   8.742  14.770  0.1492 -0.1559  0.0230
20777W        W38981   2.107  13.756   0.506 -0.0948 -0.1668 -0.1256
20778W        W38982   1.489   9.622   5.338  0.0742 -0.3508 -0.1082
20779W        W38983   3.853   0.518   3.578  0.2570 -0.1418 -0.2940
20780W        W38984  15.191  15.822   4.179 -0.0083 -0.5113  0.0741
20781W        W38985   5.391   5.383   0.061 -0.1278  0.0097 -0.1498
20782W        W38986  11.526   8.737  12.294 -0.0214  0.1297 -0.1535
20783W        W38987   1.365  16.341   5.214 -0.0783  0.2693  0.0477
20784W        W38988  14.237   6.089  14.622  0.3030  0.0174 -0.0597
20785W        W38989  13.349  11.522   4.270 -0.1398 -0.0731 -0.0755
20786W        W38990   7.637   0.677  12.294  0.0448 -0.3440  0.0629
20787W        W38991  12.213   6.541  14.445 -0.1654 -0.0189 -0.1384
20788W        W38992   9.623   4.363   0.991 -0.0926  0.1407  0.0179
20789W        W38993   7.734   9.285   5.189  0.1363 -0.1103 -0.1689
20790W        W38994  12.749  10.340  14.051 -0.0450 -0.1330 -0.1598
20791W        W38995  16.157  13.837   3.399  0.0443  0.3827  0.3070
20792W        W38996  13.688  16.574  13.847  0.3271 -0.0413 -0.1253
20793W        W38997   8.125   2.492   4.516 -0.0878  0.2506  0.0308
20794W        W38998   2.729   6.457  12.539  0.1416  0.4129  0.1661
20795W        W38999  13.861  10.838   3.714  0.1129 -0.1333 -0.1088
20796W        W39000  12.235   6.887   0.727 -0.1920 -0.2554  0.0092
20797W        W39001  12.662   7.313  16.503  0.0602  0.2303 -0.1426
20798W        W39002   9.342   8.615  13.075  0.1668  0.0016 -0.0093
20799W        W39003   2.151   7.238   1.905  0.0365  0.0874  0.0034
20800W        W39004  12.051   9.342   4.737 -0.0616 -0.2696 -0.0904
20801W        W39005  11.767   8.555  14.445  0.0092 -0.0062  0.1240
20802W        W39006  15.550  16.631  15.148  0.1690  0.0198 -0.3341
20803W        W39007  16.412  16.337   3.019 -0.0316  0.1463 -0.2136
20804W        W39008   5.963  12.439  13.646 -0.0694 -0.2734 -0.2577
20805W        W39009   9.158   5.527   4.567 -0.0011  0.1922  0.2569
20806W        W39010  13.203  12.341   3.642  0.0462  0.0540 -0.0257
20807W        W39011  12.441   3.167  16.429 -0.1862 -0.0854 -0.2691
20808W        W39012   1.882  16.825  16.195 -0.0142  0.0517  0.1871
20809W        W39013   8.701   6.885  15.103 -0.1040  0.0284 -0.3877
20810W        W39014   8.089   4.361  16.587 -0.0135 -0.0031 -0.1120
20811W        W39015   2.277  11.433  13.080  0.1074  0.2949  0.5166
20812W        W39016   5.884   2.666   4.591  0.0462  0.0492 -0.0584
20813W        W39017   2.429   2.084   3.060 -0.1249  0.0213 -0.3291
20814W        W39018   6.733   0.240  13.311 -0.0527 -0.3705  0.2761
20815W        W39019  16.342  11.881   3.328  0.0281 -0.2683 -0.0866
20816W        W39020  17.030   9.733  16.313  0.1101 -0.3969  0.1673
20817W        W39021  11.575  11.164   1.158  0.0554  0.0980  0.2359
20818W        W39022  12.022   0.365   2.330  0.0375 -0.1640  0.3127
20819W        W39023  14.852   7.272   3.386  0.0866  0.2674 -0.3703
20820W        W39024   1.175  10.482   3.209  0.0457 -0.0087  0.2562
20821W        W39025  15.274   5.313  16.260  0.0253 -0.0515 -0.0078
20822W        W39026  14.859  16.639  14.215 -0.1240  0.0567 -0.1373
20823W        W39027   0.736   7.460  16.354 -0.0771 -0.1167 -0.2245
20824W        W39028   2.438  11.088  16.226 -0.1899 -0.2099  0.0049
20825W        W39029  10.712  16.467   2.833  0.1801 -0.2020  0.3213
20826W        W39030   4.295   2.048  16.362 -0.2527 -0.3392  0.0238
20827W        W39031  10.737  13.436   5.095  0.0234 -0.0179 -0.0369
20828W        W39032  14.444   8.801   0.919  0.2833 -0.1271  0.0186
20829W        W39033  12.032   0.838   4.010 -0.1004  0.2244 -0.3181
20830W        W39034   2.942   5.558   4.281  0.3043  0.4104  0.0218
20831W        W39035  11.082   1.650   1.808  0.0141  0.0293 -0.2892
20832W        W39036   1.015  12.592  15.669 -0.1611 -0.1686  0.0111
20833W        W39037   2.997   1.907   2.254 -0.1390  0.1148 -0.0719
20834W        W39038  14.364  16.727  15.431  0.1440  0.0561  0.0028
20835W        W39039   3.589  10.053  12.830 -0.3671  0.0374  0.4973
20836W        W39040   1.338   0.316  14.983  0.0159 -0.2244 -0.0079
20837W        W39041   4.687   0.411   1.796 -0.1228  0.2379  0.0327
20838W        W39042   3.501   3.788   2.657 -0.1745  0.3281  0.0593
20839W        W39043  10.470   0.897   0.317 -0.0313  0.0190 -0.2034
20840W        W39044  15.664  14.877  16.267 -0.1265  0.1892  0.1150
20841W        W39045   6.224  15.382   2.839  0.0874  0.1117  0.2244
20842W        W39046   2.402   9.646   0.547  0.0385  0.1173  0.0129
20843W        W39047  14.082  12.989  14.588 -0.1328 -0.0992  0.0386
20844W        W39048  16.379  12.953  16.598  0.1583  0.2012 -0.2289
20845W        W39049   0.080   3.586   4.407  0.2918 -0.1863 -0.1029
20846W        W39050  10.018   7.441  14.209  0.1860  0.0788 -0.2110
20847W        W39051   2.764   2.865   3.490 -0.1128 -0.2112 -0.2494
20848W        W39052  15.086   0.591  12.208 -0.3236  0.0268 -0.0098
20849W        W39053  10.584   5.119  13.484  0.0386 -0.0696 -0.0270
20850W        W39054   2.337  12.788   4.964 -0.0987 -0.0872 -0.0963
20851W        W39055  14.044   6.295   5.397 -0.4882 -0.1802 -0.0405
20852W        W39056   0.696   0.116  13.631 -0.1469  0.3826  0.0615
20853W        W39057  15.687   1.355  16.700 -0.0835 -0.0225 -0.0943
20854W        W39058   9.954   4.331  16.956  0.1147 -0.2447 -0.0193
20855W        W39059  14.432  12.996  13.988 -0.0704 -0.0378 -0.0052
20856W        W39060  10.871   9.371  14.399  0.1268  0.0608  0.0027
20857W        W39061  12.274  16.663   0.199 -0.2458 -0.1339  0.2978
20858W        W39062   7.120  13.850  12.194  0.0759  0.1191 -0.0282
20859W        W39063   0.972  15.586  16.058 -0.0528  0.0174 -0.1157
20860W        W39064  15.218   8.431   1.611  0.0096  0.3501  0.0053
20861W        W39065  12.200  14.580  14.317  0.2183 -0.2243 -0.1343
20862W        W39066  10.786   1.491   1.408  0.2004  0.0328 -0.1538
20863W        W39067   6.637  14.465   2.287  0.2358  0.0249  0.1094
20864W        W39068   4.715   3.106  15.656  0.0019 -0.2562 -0.0260
20865W        W39069  13.216  11.583  13.663 -0.0711 -0.0218  0.0434
20866W        W39070   6.831   6.468  15.896  0.1001  0.0541  0.1659
20867W        W39071  14.252  12.738  13.551  0.2051  0.0096  0.2919
20868W        W39072  15.282  14.682  12.251  0.0056 -0.2408 -0.1501
20869W        W39073   5.447   4.269   1.348  0.1113  0.1474 -0.0788
20870W        W39074   2.735  13.373  16.483 -0.2051  0.0350 -0.3277
20871W        W39075  11.020   1.586  15.800  0.3128  0.1281 -0.0413
20872W        W39076   4.524   4.320   1.245 -0.0253 -0.0592 -0.2286
20873W        W39077  13.815   1.831  15.494 -0.2936  0.0156  0.0536
20874W        W39078   9.091   9.813  16.598  0.0980  0.1350  0.1921
20875W        W39079  12.980   5.987  17.395 -0.3410  0.2034 -0.0840
20876W        W39080  10.558   3.874  14.070 -0.1191  0.1581  0.2910
20877W        W39081  13.117  15.499  15.741 -0.1447  0.0137 -0.1532
20878W        W39082  14.689  16.949   1.876  0.0570  0.0241  0.0939
20879W        W39083   9.036  15.550  16.735  0.2326 -0.0461 -0.1931
20880W        W39084  11.416   8.043  13.203 -0.0622  0.2721  0.0571
20881W        W39085  10.910   2.863  12.779  0.2384 -0.1466 -0.0554
20882W        W39086  16.493   0.544   3.269 -0.1217 -0.1216 -0.1971
20883W        W39087   8.491  11.438   2.812  0.0538  0.1970  0.1438
20884W        W39088  15.569  11.553   1.766 -0.2871  0.1740 -0.1917
20885W        W39089   7.956   8.994   4.332 -0.1871 -0.0752  0.0536
20886W        W39090  14.214   5.469   2.853 -0.1642  0.1749  0.2918
20887W        W39091   6.948  16.557   2.464  0.1026  0.0418 -0.1574
20888W        W39092   4.472   8.248   3.887 -0.2138  0.1333  0.1690
20889W        W39093   9.557   6.365   2.563  0.0304 -0.1215 -0.0811
20890W        W39094   5.892  10.638   2.221  0.1075 -0.1869 -0.0953
20891W        W39095   5.791   8.612   2.814 -0.1221  0.1073 -0.1300
20892W        W39096  11.138  10.096   4.089  0.1469  0.0619 -0.0614
20893W        W39097   2.590   4.041   0.964 -0.2052  0.3078  0.1306
20894W        W39098  14.113   3.147   4.331  0.0826  0.1860  0.0533
20895W        W39099  11.231   4.643   4.711  0.1835 -0.1068  0.0742
20896W        W39100   4.997  17.278   3.944 -0.1599  0.1175 -0.1185
20897W        W39101  16.544   3.912   1.488 -0.0788 -0.0209 -0.3018
20898W        W39102   6.861   2.887  17.287  0.2144  0.0115  0.0489
20899W        W39103  14.430   9.024  13.060  0.1012  0.0328  0.0690
20900W        W39104   1.612   5.564  12.954 -0.1001  0.2088  0.2940
20901W        W39105  10.666  16.984   2.778  0.3032  0.2571  0.1775
20902W        W39106   3.805   3.077   2.207  0.5584 -0.2779 -0.2088
20903W        W39107   9.683  15.352   3.822 -0.1359  0.2247 -0.1664
20904W        W39108   9.860   4.912   0.966 -0.0935 -0.2115 -0.2339
20905W        W39109   2.008   4.792   5.158  0.1201  0.0147 -0.1710
20906W        W39110  10.995   8.556  12.405  0.0814  0.0386  0.0614
20907W        W39111  12.404  11.603   2.150 -0.0563 -0.2169  0.0277
20908W        W39112  10.187   5.474   2.064 -0.2082  0.1717  0.3705
20909W        W39113  16.928   6.463   2.861  0.0595  0.0685 -0.2234
20910W        W39114  13.796   4.460   0.730  0.1887  0.1432 -0.0469
20911W        W39115   0.159   7.543   2.031  0.2387  0.0154  0.3549
20912W        W39116  15.710   4.440  14.097 -0.3970 -0.0947 -0.0476
20913W        W39117  15.187   2.665   6.324 -0.0352 -0.0289  0.1914
20914W        W39118  13.619   0.940  15.160 -0.1312 -0.1140  0.2335
20915W        W39119   9.314  13.723  17.068 -0.0847  0.0603  0.1457
20916W        W39120   0.391  16.186   3.104  0.2830  0.1241 -0.0241
20917W        W39121  12.648   8.516  15.795 -0.2701  0.4655 -0.1294
20918W        W39122   4.190  11.882  16.324 -0.1884 -0.0377 -0.1206
20919W        W39123  14.461   3.989   4.390 -0.1020 -0.0046 -0.3515
20920W        W39124  15.818  15.161   1.578  0.1706  0.2447  0.1105
20921W        W39125   8.451  14.673   2.909 -0.0741 -0.3788 -0.1267
20922W        W39126   9.795   2.065  13.702 -0.2890 -0.2486 -0.0741
20923W        W39127  17.198   6.929  15.444 -0.0627 -0.1222 -0.3843
20924W        W39128  16.248  13.175  12.432  0.0284  0.1284  0.3343
20925W        W39129  12.427   0.423   3.411  0.0151 -0.0909  0.1926
20926W        W39130   2.273   5.263   0.801 -0.1905  0.1041 -0.1754
20927W        W39131   1.711  15.177  12.462  0.0495 -0.0570  0.1648
20928W        W39132   4.467  10.396   1.756 -0.3988  0.0489 -0.1428
20929W        W39133   3.306   5.914  14.166  0.1326 -0.0782  0.0035
20930W        W39134   4.087   6.513   4.440 -0.2324  0.0265  0.3090
20931W        W39135   8.974   4.282  17.075  0.1492  0.0526 -0.0497
20932W        W39136  13.850   5.165  15.082 -0.0373  0.3963 -0.2571
20933W        W39137   8.783   8.800   2.928 -0.0571  0.1104 -0.0990
20934W        W39138   5.878   1.876   0.932 -0.0874  0.2276 -0.2382
20935W        W39139  11.889  13.127   1.093  0.0754  0.0162  0.1085
20936W        W39140  10.323   0.569   3.328 -0.0529  0.0209 -0.0173
20937W        W39141  12.133  16.451   1.810  0.0858 -0.0787  0.2182
20938W        W39142   1.464  16.863   1.352 -0.1955  0.1623  0.1489
20939W        W39143  11.777  15.396  14.273  0.0871 -0.0193  0.1269
20940W        W39144   1.298  12.599  12.228  0.2384  0.2170 -0.0732
20941W        W39145   5.608  11.536   3.911 -0.0149  0.2135  0.0254
20942W        W39146   2.488   7.535  13.341 -0.0032  0.2406  0.1961
20943W        W39147   7.295   9.394   3.163  0.1638  0.0135 -0.0990
20944W        W39148   8.247   0.794  13.014 -0.0933  0.0070  0.1368
20945W        W39149  10.722   1.659   0.948  0.0810 -0.3034  0.0265
20946W        W39150  11.127   5.502   1.883  0.3299 -0.0697 -0.1653
20947W        W39151   1.239   1.909  14.291 -0.0376 -0.0207  0.0619
20948W        W39152   5.598  12.426   1.467 -0.2705  0.2414  0.0969
20949W        W39153   4.148   6.009   3.912  0.0415 -0.0587  0.0688
20950W        W39154  14.716   2.423   3.379 -0.1694 -0.0391 -0.3248
20951W        W39155   4.395   1.300  17.185  0.1701  0.0263  0.1977
20952W        W39156   0.538   2.418   5.010 -0.0469 -0.0871 -0.0288
20953W        W39157   7.384  14.412  14.571  0.1708 -0.0017 -0.2292
20954W        W39158  13.572  13.638   1.408  0.1681  0.1101 -0.1832
20955W        W39159   2.708   5.189   4.746 -0.0487  0.0669 -0.2631
20956W        W39160   3.174   3.808  15.253  0.1302 -0.0823  0.0255
20957W        W39161   2.600  14.933   3.287  0.1529  0.0898  0.1036
20958W        W39162   3.083  17.284  16.451  0.0390  0.4364 -0.0606
20959W        W39163  10.613   2.234   0.617 -0.1211 -0.3967  0.0805
20960W        W39164   7.748  16.892  12.875  0.2443 -0.2672  0.2847
20961W        W39165   3.609  12.967  16.287  0.2122  0.3350 -0.0522
20962W        W39166  12.739   1.482   5.567  0.0705  0.3935 -0.0842
20963W        W39167   2.888  16.996   4.252  0.2354  0.0763  0.0358
20964W        W39168  15.679   6.261   0.603  0.1233 -0.3109 -0.1479
20965W        W39169  14.104   4.333   1.921 -0.1095  0.3084  0.1786
20966W        W39170   0.946   4.958   1.921 -0.0660  0.1558  0.0670
20967W        W39171  16.817  10.423   2.341  0.1036  0.0284  0.0098
20968W        W39172   7.888   9.007   1.909 -0.2938 -0.1795  0.0336
20969W        W39173  10.351   0.773   1.261 -0.0649  0.0410 -0.2461
20970W        W39174  12.326   7.957  14.696  0.1846 -0.1052  0.0742
20971W        W39175  15.463  13.073   4.931  0.0947  0.0975  0.0710
20972W        W39176   1.841   6.370   1.920  0.0198 -0.1014 -0.5261
20973W        W39177  12.055   0.990   4.755  0.0964  0.0071 -0.0247
20974W        W39178   9.373   2.114   5.182 -0.2335 -0.3128  0.1962
20975W        W39179  12.323  12.695  15.306  0.0189  0.0151  0.0087
20976W        W39180  13.288   6.814  15.438  0.2045 -0.0372  0.0492
20977W        W39181  13.578  15.224   2.857  0.1457 -0.4060 -0.2026
20978W        W39182  16.728   9.745  12.139 -0.1256  0.1574 -0.2107
20979W        W39183  13.488  14.462   2.495 -0.2622 -0.1757 -0.1283
20980W        W39184  16.703  12.374   5.302 -0.1963 -0.2016  0.1758
20981W        W39185   2.537  10.149   1.442  0.1826 -0.0708  0.0151
20982W        W39186   4.204   1.677   3.585  0.1445 -0.1330  0.1438
20983W        W39187   2.455   5.410   4.320 -0.2377  0.2856  0.0458
20984W        W39188  11.673   9.821  15.437  0.0901 -0.0347  0.0935
20985W        W39189   6.188  13.286   4.665 -0.0548 -0.3786  0.0613
20986W        W39190  14.663   3.483  12.313 -0.0990 -0.1029 -0.1468
20987W        W39191   9.725   6.473  12.748  0.4859  0.0608 -0.0241
20988W        W39192  12.656   5.460  13.336 -0.0275 -0.0225  0.1172
20989W        W39193   1.666  12.819   0.783 -0.0704 -0.0538  0.2112
20990W        W39194  10.527   9.822  14.171 -0.1238  0.0115 -0.0516
20991W        W39195  16.004  17.213   3.611  0.2228 -0.0030  0.2228
20992W        W39196   5.508   4.786  16.784 -0.1056 -0.2356 -0.0527
20993W        W39197  14.321  10.955   1.411 -0.2326  0.0678 -0.0351
20994W        W39198   6.305   0.943   0.428  0.1421 -0.0350  0.3823
20995W        W39199  15.010  16.332   5.477  0.2406 -0.2157  0.0965
20996W        W39200  15.347  11.968   0.501 -0.1620  0.1933 -0.0367
20997W        W39201   0.613   6.381  13.297  0.3146  0.2514  0.0558
20998W        W39202  10.453  10.055   2.313 -0.2522 -0.0666  0.0909
20999W        W39203   6.770  15.020  12.806  0.1337 -0.0132  0.0880
21000W        W39204  14.244   7.378   4.094  0.0176  0.4292  0.0484
21001W        W39205   1.154   7.233   4.712  0.2801 -0.0300 -0.0562
21002W        W39206  13.351  14.965   3.272 -0.0095 -0.0940  0.1640
21003W        W39207  17.304  16.733  14.995  0.0995 -0.1362 -0.0608
21004W        W39208   7.188  10.606  13.739  0.2906 -0.1655  0.0658
21005W        W39209   0.490  10.954  15.319 -0.0197 -0.3353  0.0636
21006W        W39210   1.218  15.686  12.959 -0.0993  0.1226  0.0124
21007W        W39211  13.193  13.337  16.786 -0.0619  0.1427  0.0717
21008W        W39212  10.014  16.245   1.146  0.0809  0.4015 -0.1720
21009W        W39213   7.202  16.535  15.478  0.0757  0.1082  0.0026
21010W        W39214   3.551   3.554  13.688 -0.0078  0.1201 -0.1036
21011W        W39215   1.602  14.365   5.014 -0.2126 -0.0050  0.3004
21012W        W39216   4.664  11.794   1.674  0.0374  0.0583  0.1326
21013W        W39217   1.870   9.784  16.307  0.1949 -0.3431 -0.1037
21014W        W39218  15.752  14.164   5.414  0.1850 -0.3660  0.2526
21015W        W39219  15.282   4.899   2.037  0.0230  0.0200 -0.1454
21016W        W39220  11.164   8.235   3.357 -0.0097  0.0410  0.0683
21017W        W39221  10.879  13.454  12.817  0.2145 -0.3733 -0.0621
21018W        W39222  15.175  10.046  12.664 -0.3198 -0.0535  0.1378
21019W        W39223  13.418  10.206   2.615 -0.4240 -0.1584  0.0887
21020W        W39224  15.233  17.025   0.483  0.0178  0.0919  0.0388
21021W        W39225   8.951  14.548  13.469  0.0989 -0.2462 -0.1708
21022W        W39226   2.465   5.796  14.622  0.3403  0.0952  0.2686
21023W        W39227   8.909   3.841   3.436  0.4247  0.0134  0.0393
21024W        W39228  16.924   5.737   3.256  0.2065  0.1262 -0.1588
21025W        W39229  12.695  11.170  14.873 -0.1066  0.0732 -0.1337
21026W        W39230  14.058  16.775  14.798 -0.1760  0.1151  0.0884
21027W        W39231  11.143   3.873   3.009  0.0665 -0.1888  0.3324
21028W        W39232   8.839   0.242  13.823  0.2717 -0.1105  0.0293
21029W        W39233   7.999   0.229  15.835  0.2132 -0.1509  0.1334
21030W        W39234   4.983  13.656   3.126 -0.3757 -0.0291  0.1181
21031W        W39235  17.173  15.761   0.716 -0.1443  0.3237 -0.2372
21032W        W39236   7.227  10.509   1.709 -0.0170 -0.1141 -0.1283
21033W        W39237  14.109  17.246  14.625 -0.0906  0.1228 -0.0684
21034W        W39238  16.253  15.250   1.158 -0.2439  0.1036 -0.3584
21035W        W39239   9.152  10.795   2.823 -0.1131  0.3161  0.1488
21036W        W39240  11.123   8.220  14.926  0.0433 -0.0060  0.3755
21037W        W39241   6.392  12.942   1.280 -0.0132  0.1277 -0.0739
21038W        W39242  15.780  10.304   3.803  0.2484 -0.0712 -0.1953
21039W        W39243  14.003   9.344   4.255 -0.0740 -0.2927  0.3271
21040W        W39244  12.795   9.646  12.856  0.0345  0.2154 -0.2474
21041W        W39245  13.399  16.161   5.075  0.3735  0.0658  0.1226
21042W        W39246  14.064   9.997   3.328  0.0863 -0.0760 -0.0687
21043W        W39247  13.913   4.770  17.190 -0.2403  0.0841 -0.2838
21044W        W39248  15.520   7.541  13.513  0.0711  0.0912 -0.4429
21045W        W39249  13.320   7.996  13.730  0.0711  0.4333 -0.1927
21046W        W39250  10.033   3.101   4.995 -0.1052 -0.1183  0.2438
21047W        W39251  15.006  16.805   4.031  0.1662  0.1601 -0.0297
21048W        W39252   7.890   6.993  17.290 -0.1421  0.0267  0.2504
21049W        W39253   9.005  16.354  16.381  0.1228  0.0679  0.1215
21050W        W39254   7.953   9.522  16.234 -0.1904 -0.2737  0.0282
21051W        W39255   2.926   8.053  12.133  0.1708 -0.0749 -0.2173
21052W        W39256   0.707   8.345  16.890  0.0582 -0.1605 -0.0933
21053W        W39257   8.634  13.995  13.474 -0.0662  0.0502  0.1348
21054W        W39258  13.089  10.834  13.852  0.0393  0.2135 -0.0800
21055W        W39259   9.801  10.458  17.336  0.0280  0.1008 -0.1438
21056W        W39260   8.820   2.238   3.871  0.2101 -0.2231  0.1046
21057W        W39261   3.519   2.173  16.754  0.0040  0.1164  0.0292
21058W        W39262  12.331   6.491  17.301 -0.0293  0.1805  0.0337
21059W        W39263   1.478  11.324  13.472  0.0534  0.0596  0.3742
21060W        W39264  10.932   5.176  15.738  0.0029 -0.0174 -0.0241
21061W        W39265   3.050   5.721  14.525  0.1831  0.0229 -0.0718
21062W        W39266   2.078  15.361   1.634 -0.1862 -0.1741  0.1833
21063W        W39267   4.112   6.551   2.679 -0.0756  0.0548 -0.0242
21064W        W39268  10.169   5.776   0.975 -0.1277 -0.1303 -0.0652
21065W        W39269  16.515  16.210  14.932 -0.1803  0.1685  0.1520
21066W        W39270  13.705  13.430   4.661  0.2370  0.2772 -0.0483
21067W        W39271  13.217  13.595   4.859 -0.2419 -0.0783 -0.0133
21068W        W39272  11.959   0.852  12.479  0.4027 -0.2396  0.0546
21069W        W39273  10.581   6.046   0.151  0.0217  0.0509  0.1493
21070W        W39274   0.627   1.089  15.871  0.2273 -0.0516  0.2162
21071W        W39275  15.787   6.360   3.334  0.2310 -0.1383  0.0239
21072W        W39276   4.242   5.079   3.317 -0.3284 -0.0741 -0.2641
21073W        W39277  12.306   9.774  16.602 -0.1626 -0.2321 -0.0890
21074W        W39278   4.984   9.016   1.633  0.0020 -0.0404  0.0536
21075W        W39279   6.765   3.927   5.145  0.0035  0.1270 -0.3490
21076W        W39280   3.620  13.695  14.782  0.0870  0.3953 -0.0465
21077W        W39281   5.161   8.386   3.377 -0.0614 -0.1560 -0.0899
21078W        W39282   2.449   0.860  17.246 -0.0669 -0.1472  0.3709
21079W        W39283   2.397   4.033   3.328 -0.1283  0.3799 -0.1898
21080W        W39284  17.176   4.366  16.495  0.0619  0.0837  0.0466
21081W        W39285   0.151   9.273  17.175 -0.1878  0.4518  0.0177
21082W        W39286   8.693   4.694  12.638  0.0840  0.0202  0.3425
21083W        W39287   0.002   4.362   5.376 -0.1417 -0.2915 -0.2501
21084W        W39288  12.567   6.129   0.669  0.0561 -0.3717  0.0043
21085W        W39289  10.685   8.451  13.710  0.0146  0.0379  0.2348
21086W        W39290  10.436   0.959  15.611 -0.0820 -0.0403  0.0595
21087W        W39291  11.379   0.404  14.752  0.2191  0.2060 -0.3147
21088W        W39292  14.675  13.119   2.349  0.0352 -0.0527 -0.0400
21089W        W39293  12.733   9.464  13.310  0.2196  0.1097  0.2214
21090W        W39294  14.829   0.326  16.477 -0.0848 -0.1708  0.1351
21091W        W39295   6.403  13.991  13.240  0.4305 -0.1058  0.4643
21092W        W39296   5.246   3.303  14.876  0.0835  0.0252  0.2256
21093W        W39297  16.587   4.904  16.261 -0.0197 -0.1051 -0.2944
21094W        W39298   4.721   1.046  15.653  0.2009 -0.2587  0.0163
21095W        W39299   8.302  10.159  15.478  0.0221 -0.3775 -0.2227
21096W        W39300   4.273   6.680  14.561  0.0978  0.3678  0.2726
21097W        W39301   3.833   9.381  16.610  0.2443 -0.1714 -0.1617
21098W        W39302   8.105  15.218   1.496 -0.2064 -0.0350  0.0598
21099W        W39303  12.413   2.653   0.231 -0.1107  0.2805 -0.1360
21100W        W39304  16.099   6.201  12.329 -0.1663  0.0200  0.2340
21101W        W39305  14.247   1.540   3.191  0.0567 -0.1345  0.0894
21102W        W39306   5.697  11.695   2.837 -0.1942 -0.0782 -0.0394
21103W        W39307   4.165  12.497  15.081  0.0077 -0.1733 -0.1263
21104W        W39308   2.983  11.429  14.028 -0.1031 -0.0159  0.1243
21105W        W39309   4.013   3.862  15.496  0.1828 -0.0172 -0.0646
21106W        W39310  14.380  13.511   2.568  0.2854  0.2521  0.1101
21107W        W39311  12.983  15.294  16.814 -0.1996 -0.4111 -0.0317
21108W        W39312   5.868   2.390  14.163  0.0061  0.0498  0.1190
21109W        W39313   4.248  15.083  13.491 -0.3375  0.0260 -0.1838
21110W        W39314  16.294   8.558   3.560 -0.0553  0.2923 -0.1680
21111W        W39315   8.041   9.690   0.881  0.0562 -0.0836  0.1247
21112W        W39316   4.391   4.527   3.309 -0.0140 -0.0741  0.1972
21113W        W39317  12.844  15.206   5.478  0.0825  0.0939  0.1975
21114W        W39318   9.770  14.004  15.074  0.2404  0.1908  0.2282
21115W        W39319   0.420   6.823   3.039  0.0841 -0.0076 -0.3732
21116W        W39320  10.618   7.504  14.525 -0.1185  0.0048  0.1128
21117W        W39321   9.886   6.758   1.721  0.1274  0.4217 -0.0551
21118W        W39322  12.641   3.946   3.672  0.0885  0.1757 -0.0099
21119W        W39323  14.166  11.697  17.172  0.0034  0.2553 -0.1020
21120W        W39324   0.483  12.281  13.825 -0.1969 -0.0698 -0.0797
21121W        W39325  13.907  11.440  15.395  0.0733  0.1687 -0.1452
21122W        W39326  13.770  14.374   5.174 -0.1760 -0.0869 -0.2540
21123W        W39327   3.244   5.739   0.872  0.1254  0.0075 -0.0151
21124W        W39328  15.930   4.032   2.910  0.0053 -0.0404  0.2075
21125W        W39329  12.644  11.507   2.999 -0.1686  0.0462  0.0110
21126W        W39330  12.542   0.697   4.826 -0.1672  0.2925  0.0329
21127W        W39331   3.887   4.459   4.784 -0.2195 -0.5061 -0.0543
21128W        W39332   0.933  11.611   3.444  0.3737  0.1738  0.0422
21129W        W39333  13.059   9.872   3.329 -0.0698  0.3675 -0.1609
21130W        W39334  14.735  11.765  13.267  0.1818  0.0066  0.1725
21131W        W39335   8.255   3.189  12.124 -0.3271  0.2066  0.1710
21132W        W39336   4.522   7.888  15.241 -0.0697  0.0317  0.1740
21133W        W39337   6.802   0.130  14.675  0.1695  0.0240 -0.1988
21134W        W39338   0.529   9.648  16.080 -0.2486 -0.2192 -0.1079
21135W        W39339   3.941   9.479  14.350  0.2146 -0.3166 -0.3671
21136W        W39340   6.940  16.632   1.346  0.0347  0.0658 -0.1573
21137W        W39341  12.947   2.632  13.107 -0.1039 -0.1586 -0.3303
21138W        W39342  13.046   5.647   0.396 -0.2608  0.1805 -0.6557
21139W        W39343  13.414  15.137   0.830  0.0009  0.3329  0.0339
21140W        W39344  11.869  13.250  14.692  0.0425 -0.1374  0.0252
21141W        W39345  11.422  14.854  13.964  0.0187  0.0150  0.2150
21142W        W39346  10.858   1.987  17.090  0.0370  0.1683  0.0593
21143W        W39347  10.140  10.788  13.563  0.1470 -0.3986 -0.2063
21144W        W39348  13.394   8.212  16.763  0.2522 -0.0661  0.2440
21145W        W39349   7.011  11.363  14.768 -0.1157 -0.1699  0.1340
21146W        W39350   3.202   9.235   0.103  0.1196 -0.0698 -0.0097
21147W        W39351   4.899   3.108  14.017  0.0123 -0.0203 -0.1190
21148W        W39352   7.359   4.720  15.742  0.0882 -0.2228  0.0547
21149W        W39353  15.509   1.319   1.276  0.2430 -0.1061  0.0095
21150W        W39354  15.594  14.490   1.078 -0.0590 -0.0601 -0.0549
21151W        W39355  11.222  13.752  13.694 -0.0031 -0.1683  0.3132
21152W        W39356   3.680  10.438   4.478  0.2995  0.0369 -0.0582
21153W        W39357   6.765   0.524  15.350 -0.1412 -0.1080  0.0148
21154W        W39358  12.710   3.599   2.583  0.2072  0.1775 -0.0729
21155W        W39359   9.559   7.286  16.864 -0.3483  0.0021  0.0887
21156W        W39360   9.071   7.862  15.290  0.0444 -0.2089 -0.1554
21157W        W39361   0.518  16.565  13.060  0.2761 -0.2180  0.0723
21158W        W39362   4.001   6.893   1.895 -0.0944  0.3019 -0.0135
21159W        W39363   5.080   7.524   2.526 -0.0150 -0.0117  0.1619
21160W        W39364   6.931  15.113   1.221  0.1254 -0.0196 -0.1158
21161W        W39365   8.236  12.318   4.025 -0.0751 -0.0107 -0.3651
21162W        W39366  10.754   4.041   1.181  0.1736 -0.0327  0.4611
21163W        W39367   3.028   1.724   0.405 -0.2620 -0.2419 -0.2675
21164W        W39368  10.356   1.627  12.726  0.1940 -0.0827  0.0633
21165W        W39369   9.253   8.609   1.120 -0.1517 -0.2270  0.2418
21166W        W39370   6.633  11.822  13.546 -0.2219  0.0281 -0.1375
21167W        W39371   3.683  11.136  16.830  0.0586  0.0941 -0.1678
21168W        W39372   6.500  16.780   2.348 -0.3151  0.5611 -0.0111
21169W        W39373   8.876   6.388   3.931 -0.6172  0.2004 -0.0227
21170W        W39374   8.798  13.260   3.948  0.1977 -0.0580  0.3912
21171W        W39375   0.001   1.291  15.572 -0.0551 -0.4167 -0.1562
21172W        W39376  16.084  15.753  15.271 -0.2671  0.1991 -0.1523
21173W        W39377   2.744   2.566  14.625  0.2341  0.2876  0.2392
21174W        W39378   4.741   6.825   5.123 -0.2022  0.3268 -0.1432
21175W        W39379  12.384   6.608   3.792 -0.2661  0.3813  0.3285
21176W        W39380  16.359  11.103  12.971 -0.0457  0.1315 -0.0690
21177W        W39381  11.132  13.298   5.408  0.0050  0.0853  0.1158
21178W        W39382  13.651  15.212  17.432 -0.1122  0.0584 -0.0709
21179W        W39383  10.906   5.066   1.146 -0.1238  0.3198  0.2610
21180W        W39384   5.871  11.171  13.567 -0.0075 -0.1432 -0.0935
21181W        W39385  14.973  11.214  14.694  0.2818 -0.4704 -0.0731
21182W        W39386   7.916  15.943   0.084 -0.2667 -0.2669  0.0365
21183W        W39387   2.955   7.961  14.644  0.0370 -0.2447 -0.2556
21184W        W39388  14.049   7.660  16.692  0.1658 -0.0665 -0.1058
21185W        W39389  16.631   1.951  17.257 -0.0481 -0.0941 -0.0569
21186W        W39390  13.605  13.501   0.631 -0.0130 -0.1312 -0.1412
21187W        W39391   1.219   0.514   2.326  0.0093 -0.3776  0.1872
21188W        W39392   6.799   2.730  12.153 -0.1267  0.0134 -0.0082
21189W        W39393  10.879  11.181  12.054 -0.2906  0.2281  0.2024
21190W        W39394   0.612   2.599   4.415 -0.0805  0.1075 -0.1641
21191W        W39395  14.027   6.373  17.000  0.0572  0.0577 -0.0870
21192W        W39396   6.100   9.536   4.799 -0.0010  0.0522 -0.1880
21193W        W39397  11.328   0.765  15.656 -0.0338 -0.1241 -0.0827
21194W        W39398   8.173   6.218   1.482 -0.0505 -0.1793  0.0234
21195W        W39399   4.745   6.060  11.760  0.1483  0.0083  0.1771
21196W        W39400  13.604  11.905   0.463 -0.1060  0.0239 -0.3179
21197W        W39401  13.409   0.293   0.779  0.2119  0.0790 -0.2466
21198W        W39402   1.618  16.844   3.008  0.0810  0.0688  0.0786
21199W        W39403  15.302   3.275   4.437  0.0182  0.0318 -0.0786
21200W        W39404   0.437  14.849  14.814 -0.1787 -0.1636  0.1000
21201W        W39405   9.087   4.646   0.321 -0.3554  0.2928  0.0405
21202W        W39406   6.298   7.239   0.770 -0.0251  0.0105  0.0094
21203W        W39407   2.987   7.531  13.441  0.1265  0.0875 -0.1121
21204W        W39408   1.665  10.913   2.124 -0.4318  0.2211  0.0634
21205W        W39409  14.615  12.843   1.463  0.0461  0.2473  0.1586
21206W        W39410   5.550   3.436   4.863 -0.0867 -0.1917  0.0003
21207W        W39411  10.459   8.678   1.744 -0.0205  0.0493 -0.0779
21208W        W39412   8.103   9.591   5.156  0.1545 -0.1593  0.1964
21209W        W39413   3.876  12.084  14.682  0.1096  0.0274  0.2294
21210W        W39414   3.740  14.486   2.634 -0.1821 -0.1577 -0.0362
21211W        W39415   6.585   1.206   0.805 -0.1157 -0.1311  0.2192
21212W        W39416   4.746   6.954   0.866 -0.0366  0.0253  0.2340
21213W        W39417  13.047  13.725   1.428 -0.1151  0.1015  0.1414
21214W        W39418  12.780  15.698  16.992 -0.0651  0.0796 -0.0949
21215W        W39419   9.676   1.122   1.847 -0.4237 -0.2472 -0.1646
21216W        W39420  14.000  13.801   2.811  0.0863  0.2375 -0.1015
21217W        W39421  10.375   7.033  16.758 -0.0136  0.0058 -0.0400
21218W        W39422  12.627  16.675  11.456 -0.1929  0.2875  0.0282
21219W        W39423  16.494  12.817   1.611  0.0111  0.1692  0.0690
21220W        W39424   3.949  14.517   2.121  0.3318  0.1073  0.0259
21221W        W39425  10.008  14.300  12.555  0.2926 -0.4011 -0.1965
21222W        W39426  16.944   5.974  15.098 -0.0965 -0.1342  0.0046
21223W        W39427   9.708  10.453   1.589 -0.1828  0.1652  0.0759
21224W        W39428   9.939   4.460  14.302  0.1133 -0.1466  0.1243
21225W        W39429   9.980  16.154   1.724 -0.1719  0.0667 -0.1322
21226W        W39430   5.542  16.291   2.421 -0.3251 -0.0330  0.1372
21227W        W39431   8.299   4.866   1.613  0.0570 -0.0781 -0.0403
21228W        W39432   2.779   6.702  15.493  0.3010  0.0952  0.2321
21229W        W39433   9.367  16.585   2.016  0.1040 -0.0014  0.3579
21230W        W39434   8.632  11.657  14.906  0.1964 -0.0966  0.2131
21231W        W39435  12.408  12.090   1.019  0.1351 -0.0759  0.0268
21232W        W39436   5.492  13.727   0.326  0.0189 -0.0373  0.0837
21233W        W39437   0.914   4.727   3.544  0.2204  0.0366  0.2942
21234W        W39438   8.351   0.092  13.956  0.2017 -0.1252  0.1317
21235W        W39439   2.125   8.405   1.542 -0.0901 -0.1447  0.3651
21236W        W39440   7.203  15.744   2.911 -0.3011  0.3315 -0.0343
21237W        W39441   2.265  14.739   2.890 -0.0018 -0.0310  0.0140
21238W        W39442   1.713  15.943  17.212 -0.1513  0.0202  0.0483
21239W        W39443  13.080   4.591   2.497 -0.0013 -0.3437  0.3120
21240W        W39444  14.317   2.479   0.611 -0.2179 -0.3834  0.0432
21241W        W39445  10.115  10.092   3.696  0.1956 -0.0604 -0.2189
21242W        W39446  10.054   6.408   2.467  0.0175 -0.0301 -0.0935
21243W        W39447  16.131   1.411  16.102 -0.0506 -0.0693 -0.1382
21244W        W39448  14.916   9.241   5.074  0.1768 -0.0132 -0.0923
21245W        W39449   6.721  10.342  16.542 -0.0105 -0.1348 -0.5451
21246W        W39450  12.097  15.249   4.556 -0.1054 -0.2151  0.0745
21247W        W39451   2.621  13.153  13.427  0.1511 -0.2304  0.0104
21248W        W39452   7.262  17.078   1.830  0.0214  0.0073  0.2978
21249W        W39453   3.356  11.234   5.570 -0.1851  0.0229  0.1146
21250W        W39454   9.426  11.544  16.694  0.1701  0.0370  0.2754
21251W        W39455  13.783  14.918   1.197  0.1880  0.2410  0.1100
21252W        W39456   7.417  11.975  13.220 -0.1177 -0.1731 -0.0637
21253W        W39457  11.961   6.671  15.528  0.0075 -0.0845  0.0741
21254W        W39458  12.969   3.610   3.913 -0.2563 -0.3225  0.0138
21255W        W39459  12.476   9.367  16.125  0.0198  0.3164  0.0329
21256W        W39460   5.973  11.315  14.598  0.0464  0.1384 -0.2075
21257W        W39461   8.541   1.204  16.673 -0.0414 -0.0204 -0.0954
21258W        W39462  10.620   3.233  15.539  0.0838 -0.1106  0.0461
21259W        W39463   2.987  10.349   3.611  0.2062 -0.1859  0.0097
21260W        W39464   6.948  16.990  17.487  0.0689 -0.2255  0.1053
21261W        W39465   2.721   7.845  15.272 -0.1456 -0.1000 -0.4178
21262W        W39466  13.264   6.084   5.780 -0.0316 -0.1244  0.0823
21263W        W39467   7.436   9.559  15.465  0.0989  0.0475 -0.1903
21264W        W39468   0.321   8.686  15.679 -0.1467 -0.0786 -0.0735
21265W        W39469  11.310   2.100   2.739  0.0451  0.0849  0.1975
21266W        W39470   2.348   1.569   3.098  0.0132  0.1159  0.4406
21267W        W39471  16.045   5.002   5.307  0.3094 -0.0274  0.2822
21268W        W39472   1.884   9.379   5.233 -0.2704 -0.0207  0.0763
21269W        W39473  15.760   8.863   1.575  0.0350 -0.3454  0.2298
21270W        W39474  14.346   1.412   4.095  0.0244 -0.0117  0.0075
21271W        W39475  11.299  15.687   5.158 -0.0751 -0.0396  0.0623
21272W        W39476  13.025  12.287   5.073 -0.3190  0.3266 -0.0351
21273W        W39477  11.920   4.635  13.698 -0.0744 -0.0533  0.1907
21274W        W39478  14.925   4.269  15.908 -0.0119  0.0637 -0.0916
21275W        W39479   8.014  12.174   5.409 -0.1256  0.1814 -0.2058
21276W        W39480  12.718  10.255   3.194 -0.2160 -0.0951 -0.1948
21277W        W39481   1.333   2.807  14.265  0.2061  0.2350  0.0996
21278W        W39482  14.216   5.448  11.948 -0.1475  0.0252  0.3564
21279W        W39483  13.188   2.303   2.174 -0.1363 -0.4410  0.2636
21280W        W39484   3.827  16.383   4.899  0.1059 -0.0693  0.3312
21281W        W39485  14.911   7.916  12.954  0.1415 -0.1472 -0.3272
21282W        W39486   1.308  10.749  17.031 -0.1210 -0.2237 -0.2933
21283W        W39487   8.758   1.821   2.142 -0.1028  0.0978  0.0835
21284W        W39488  13.019  10.452  17.290  0.0527 -0.3057  0.0738
21285W        W39489   2.719   6.318   3.410  0.0336 -0.0638  0.0544
21286W        W39490  10.940   6.332  12.370  0.0270 -0.1412 -0.3650
21287W        W39491   8.150  14.043  13.672  0.0612 -0.0980 -0.1152
21288W        W39492   7.304   3.063   3.321 -0.2915 -0.1532 -0.0964
21289W        W39493  12.329  15.853   1.648  0.2303  0.0563  0.3292
21290W        W39494   2.749   8.916   1.591  0.0739  0.0904  0.0363
21291W        W39495   8.622   6.858   3.486 -0.3765 -0.2391 -0.1839
21292W        W39496  11.197   2.868   4.033 -0.3035  0.1479 -0.0885
21293W        W39497  14.112   3.652  12.909  0.1018 -0.0636  0.4417
21294W        W39498  10.430   9.733   3.567 -0.0256 -0.1943  0.0100
21295W        W39499  11.145  12.418   5.382 -0.1380  0.1706 -0.0072
21296W        W39500   0.155   0.219  13.900  0.0914  0.0985 -0.0252
21297W        W39501   1.100   5.474  16.011  0.0759  0.0356  0.0578
21298W        W39502   5.715  11.064   1.063  0.1433 -0.2775 -0.1900
21299W        W39503   7.161   5.051  13.625 -0.2273 -0.0835 -0.2470
21300W        W39504  16.432  16.620   3.503 -0.0339 -0.1312 -0.0611
21301W        W39505   5.333   7.962   4.311 -0.0666  0.2203  0.2130
21302W        W39506  16.285   6.438   3.394  0.1589  0.1858 -0.1667
21303W        W39507  14.575  12.528   0.393 -0.1462 -0.0223 -0.0668
21304W        W39508  13.079   7.560  17.206  0.3982 -0.0975 -0.2508
21305W        W39509   5.649  13.028  17.161  0.0376 -0.0840 -0.0620
21306W        W39510  10.691   4.405  15.230 -0.1823 -0.0476 -0.0270
21307W        W39511   9.426  12.715  13.384  0.0802 -0.0803 -0.0037
21308W        W39512   5.179  15.505   2.656  0.0165  0.0291 -0.1119
21309W        W39513  16.022   0.682   3.230  0.1000 -0.3479 -0.0178
21310W        W39514  17.276   3.172   3.575  0.0402 -0.0578 -0.0216
21311W        W39515  13.497  11.210  15.191  0.0432  0.0467 -0.0443
21312W        W39516   1.926   3.862   5.185  0.3251  0.0352 -0.1101
21313W        W39517  10.932   2.895   4.770 -0.1754 -0.2233 -0.1169
21314W        W39518   5.209  13.377   0.813  0.0823 -0.4129  0.1008
21315W        W39519  16.115   9.750   0.577  0.1957 -0.2976 -0.0729
21316W        W39520  16.862   3.756  16.336  0.0512  0.0809  0.0067
21317W        W39521   1.208  15.756  16.927  0.2500  0.0842 -0.0433
21318W        W39522   2.603   0.774  14.227 -0.3075  0.1100  0.0024
21319W        W39523  16.676   8.546  17.073 -0.0371 -0.2835 -0.1922
21320W        W39524  12.954   5.334   3.019  0.0095 -0.3065 -0.3002
21321W        W39525   8.526  14.807   5.097  0.1594 -0.1002 -0.0444
21322W        W39526   5.785   0.119   4.721  0.0891  0.2131  0.0526
21323W        W39527  11.477  16.473  17.247 -0.1937 -0.0226  0.1224
21324W        W39528   7.788   1.607  16.012  0.0529  0.1432  0.0104
21325W        W39529   0.606   4.247   4.036  0.0089  0.1258 -0.1687
21326W        W39530   1.548   6.504  12.832  0.1090 -0.0111  0.0124
21327W        W39531   3.059   9.816   3.139  0.1000 -0.1361  0.0782
21328W        W39532  11.780   0.970  15.426  0.0649 -0.0657  0.2844
21329W        W39533   6.068   8.178  17.418 -0.0129  0.2832 -0.1469
21330W        W39534   2.819   0.434  12.896  0.0739  0.2258 -0.0942
21331W        W39535   6.816   4.974  16.998 -0.0355 -0.0550  0.0838
21332W        W39536  15.577  15.070  13.367  0.1742 -0.1025  0.3358
21333W        W39537  16.641  12.204  16.995 -0.2490  0.0403  0.2794
21334W        W39538  10.842  15.032  16.822  0.2420  0.1622 -0.1109
21335W        W39539   0.939  14.746  16.779  0.0321  0.1133 -0.1361
21336W        W39540  11.706   2.430  16.538 -0.2711 -0.0482  0.0779
21337W        W39541   9.712  16.915   2.857 -0.4033  0.0986  0.1180
21338W        W39542   6.341   0.084   1.580  0.1014  0.1339 -0.1552
21339W        W39543   0.091   8.265   1.329 -0.0364  0.1991 -0.1979
21340W        W39544  11.669   0.591  13.891  0.3467  0.1135 -0.0093
21341W        W39545   0.197  16.170  13.227 -0.1432  0.4212 -0.0464
21342W        W39546  11.503  11.371  17.492  0.0933 -0.1836  0.3123
21343W        W39547   1.905   4.431   2.167 -0.1074 -0.0034 -0.1331
21344W        W39548  13.613   9.985   3.026 -0.0497 -0.0271 -0.0195
21345W        W39549  12.630   4.986  17.332 -0.2739  0.0586  0.2735
21346W        W39550   9.477  14.209  14.696  0.2685 -0.2250 -0.2525
21347W        W39551  14.313  12.928   0.161  0.0477  0.1656  0.0512
21348W        W39552   4.867   2.168   5.053  0.3557 -0.1445 -0.2162
21349W        W39553  12.008   3.960   3.995  0.1747  0.0288 -0.0177
21350W        W39554   6.586  13.712  14.907  0.1069  0.3071 -0.0968
21351W        W39555   8.041   3.027   0.335  0.0588 -0.2231 -0.0643
21352W        W39556  14.543   6.022  13.825 -0.0832  0.0559  0.0574
21353W        W39557   6.464  10.014   1.702  0.4565 -0.3913  0.1744
21354W        W39558  10.875  13.931  15.928 -0.1662  0.1362 -0.2496
21355W        W39559   7.705   2.059  16.132  0.2938  0.2230  0.1633
21356W        W39560  10.654   3.230   2.107 -0.0104 -0.1514  0.3592
21357W        W39561   1.790   3.965   2.215  0.0769 -0.1810 -0.4039
21358W        W39562  15.325   1.429  17.201 -0.2660  0.2034  0.0515
21359W        W39563  13.081   1.909   0.929 -0.0857  0.0018 -0.0744
21360W        W39564   7.088   4.034   3.244 -0.0581  0.0039  0.2327
21361W        W39565   1.268  13.149   2.839  0.2517 -0.4224  0.1473
21362W        W39566  11.145   3.392   3.144 -0.2008  0.1939 -0.0653
21363W        W39567   2.157  12.016   3.513 -0.1017  0.3581 -0.3739
21364W        W39568   3.994  13.422  14.509  0.0735  0.0830  0.0450
21365W        W39569   0.222  16.204   2.585 -0.2336  0.0946 -0.0309
21366W        W39570   3.931  12.869  14.333 -0.0120  0.0357 -0.0013
21367W        W39571   2.017   0.141   2.578 -0.0929  0.1471 -0.1495
21368W        W39572  11.206   3.068  17.078 -0.1654 -0.0431  0.1627
21369W        W39573  13.796   1.765  12.955 -0.3108  0.1071  0.1930
21370W        W39574   2.215  13.970  13.453 -0.0720 -0.0052 -0.0138
21371W        W39575   6.397  14.309  15.886 -0.0603 -0.0786  0.1485
21372W        W39576  13.036  15.735   5.604  0.2077 -0.3578  0.0932
21373W        W39577   8.666   3.104  15.073 -0.2240  0.3352  0.1030
21374W        W39578   0.651  11.331   1.087  0.1395 -0.2754  0.2617
21375W        W39579  14.340   4.144   2.722 -0.0803 -0.2089  0.2888
21376W        W39580   9.402  14.608   4.096  0.1966 -0.0412  0.1327
21377W        W39581   3.455   9.609  15.056  0.0156 -0.1550  0.1431
21378W        W39582  15.894  16.092   3.609 -0.0189 -0.2797 -0.0282
21379W        W39583   3.602   0.356   4.377 -0.0081 -0.0668 -0.0428
21380W        W39584  16.836   9.159  14.655 -0.0081 -0.0768 -0.0279
21381W        W39585   1.021   7.822   2.050 -0.1405 -0.1943  0.3374
21382W        W39586  12.930  13.883  16.688  0.0789 -0.0526  0.0606
21383W        W39587   3.541   0.173   1.807  0.0777  0.0869  0.3443
21384W        W39588   9.412   5.571  12.136  0.1954 -0.2626  0.0525
21385W        W39589   1.217   7.801  15.372  0.2904 -0.1545  0.1357
21386W        W39590   1.477  12.001  12.836  0.0871  0.1314 -0.0502
21387W        W39591  14.079  13.063   3.832  0.0846 -0.0982 -0.2236
21388W        W39592  13.339  13.596   0.196  0.0729  0.2901 -0.0464
21389W        W39593   8.666   5.656   3.484  0.1447 -0.1734 -0.0406
21390W        W39594   2.718   8.317  15.789 -0.1949  0.1703 -0.1036
21391W        W39595  15.749   4.480  16.911  0.1311 -0.0972 -0.2106
21392W        W39596   8.625  10.120   0.297  0.4942 -0.0316 -0.2814
21393W        W39597   2.205  13.338   1.518  0.1557  0.1430  0.2709
21394W        W39598   1.277   6.766  13.219  0.2074 -0.1054  0.0012
21395W        W39599   8.586  11.769  16.467 -0.1340  0.1394  0.0368
21396W        W39600   7.255   8.344  15.058 -0.0568  0.0525 -0.2046
21397W        W39601  11.532   4.262   3.076  0.0347  0.1076 -0.0278
21398W        W39602  14.504   8.553  15.472  0.0987 -0.0300 -0.0184
21399W        W39603  11.827   2.186   1.802  0.0852  0.0376 -0.2112
21400W        W39604   5.031  11.915   2.585  0.3827 -0.1104  0.1115
21401W        W39605   4.688  15.298   0.379 -0.1878 -0.1390  0.1510
21402W        W39606   2.612   9.113  12.545  0.1351 -0.1382  0.0005
21403W        W39607   5.261  15.281  13.194 -0.1774 -0.1398 -0.3187
21404W        W39608  14.698  15.197  12.946  0.0616  0.0427  0.1857
21405W        W39609  15.586   3.650   1.512 -0.0758  0.3076 -0.0680
21406W        W39610   3.677   4.723  15.345  0.2081  0.0609  0.1429
21407W        W39611   4.660  11.782   4.851  0.0216  0.1668  0.3438
21408W        W39612   8.137   2.182  14.267 -0.1224 -0.3067  0.3235
21409W        W39613  11.980  15.399  12.391 -0.3396 -0.3045 -0.2611
21410W        W39614  16.951   2.665   5.301  0.2517 -0.1210  0.2926
21411W        W39615   9.610   2.878   3.711 -0.0600 -0.2045 -0.0891
21412W        W39616   5.635  10.961  15.803 -0.1766  0.0094  0.2706
21413W        W39617   0.213  14.937   3.880  0.1061  0.0200 -0.1497
21414W        W39618  11.307  16.776  16.216  0.2065 -0.2598  0.0929
21415W        W39619  12.763   1.817   0.340 -0.2314  0.0537 -0.0180
21416W        W39620   9.453  15.208  16.891  0.0567 -0.0821 -0.0436
21417W        W39621   7.582   7.739   0.817 -0.5025 -0.4161  0.2307
21418W        W39622   7.240  15.253  15.041 -0.0724  0.2858  0.2307
21419W        W39623  12.559  13.297  16.473 -0.1783 -0.2651  0.1496
21420W        W39624   6.089   8.128  15.303 -0.0172 -0.3110 -0.0295
21421W        W39625   9.729   9.438  13.978 -0.1776 -0.0712 -0.1766
21422W        W39626  11.048   4.396  14.872  0.0200 -0.0646  0.0982
21423W        W39627  12.528   1.235   4.635 -0.1116  0.1542  0.1131
21424W        W39628  15.848  11.675  15.811 -0.2446 -0.1482 -0.3424
21425W        W39629  13.716   6.801   3.088  0.0020 -0.0807 -0.1434
21426W        W39630   9.719   0.377  12.251  0.1293  0.1586  0.2928
21427W        W39631   2.444   3.020   2.433  0.1084  0.1365 -0.2572
21428W        W39632  11.285   0.810   4.886 -0.0801  0.2639 -0.1902
21429W        W39633  10.470   8.061   2.070  0.2077 -0.0850 -0.4955
21430W        W39634  13.557  17.255   4.169  0.0156  0.2074 -0.0218
21431W        W39635  12.379   3.157   1.288 -0.0773 -0.1414 -0.0078
21432W        W39636  16.567  16.794   5.092  0.1427  0.0767  0.2220
21433W        W39637   6.974   3.193  14.558  0.1791  0.0379 -0.1214
21434W        W39638   2.921  11.415   0.138 -0.1232 -0.0663  0.0648
21435W        W39639  13.967   7.764   3.887  0.0216  0.0150  0.0167
21436W        W39640   6.003   8.996  12.552 -0.0359  0.0283  0.0115
21437W        W39641   4.343  13.409  15.974  0.1620  0.1810  0.0191
21438W        W39642  16.954  11.286  13.613 -0.3125  0.1769  0.0237
21439W        W39643   4.890   3.333   4.738 -0.1583  0.2036 -0.0034
21440W        W39644   2.308  11.600   3.083 -0.0190  0.1012 -0.3155
21441W        W39645  14.469   8.737  13.458 -0.0228  0.0904  0.0094
21442W        W39646   3.726  12.261   4.173  0.2625  0.0139 -0.0357
21443W        W39647   1.113  17.140   0.018 -0.1178  0.1030 -0.2555
21444W        W39648   8.658   6.848   4.008 -0.0454  0.2346 -0.1742
21445W        W39649   7.518   4.505  15.268  0.2133 -0.3865 -0.1135
21446W        W39650   8.530   3.867   3.037 -0.0961  0.1010 -0.2257
21447W        W39651   5.870  13.979   3.041  0.0566 -0.1373 -0.0236
21448W        W39652  12.481   8.234  17.016 -0.0966  0.0746 -0.0355
21449W        W39653  14.531  12.580  15.782 -0.1033 -0.0531 -0.0540
21450W        W39654  10.918   0.919   1.358 -0.0444  0.0660  0.2016
21451W        W39655   5.390  12.031  12.869 -0.1506 -0.0891 -0.0381
21452W        W39656   1.673   0.887   4.148 -0.0865 -0.0009  0.1943
21453W        W39657  15.686  16.818  17.181 -0.1115 -0.0620 -0.1494
21454W        W39658   5.974   8.317   2.040  0.0264 -0.0652 -0.2940
21455W        W39659  16.064  11.352  15.445 -0.0540  0.3692 -0.1290
21456W        W39660  15.232   0.334   3.550  0.1622 -0.0098 -0.0628
21457W        W39661   4.106   4.302   0.251  0.1149  0.1034 -0.3314
21458W        W39662  10.121   1.981   1.749 -0.0191 -0.0156 -0.0271
21459W        W39663   0.114  14.072  13.109  0.1869  0.0148  0.0466
21460W        W39664   0.603  13.842   2.502  0.2688  0.2357 -0.0363
21461W        W39665   7.222  10.131  14.869 -0.2000 -0.1495 -0.1216
21462W        W39666  16.300  13.177  15.666 -0.1474 -0.0725  0.0431
21463W        W39667  14.476  11.892  11.575  0.1205  0.0250  0.0655
21464W        W39668   9.887  15.584  13.817 -0.0335  0.1105  0.0849
21465W        W39669   3.298  15.600  16.916  0.2740 -0.3091 -0.1115
21466W        W39670   2.412   1.301   0.517  0.1133  0.0599 -0.0219
21467W        W39671  11.251  10.362  12.937 -0.1148  0.1672  0.3226
21468W        W39672  14.566   1.386  13.145 -0.2791  0.0994 -0.0934
21469W        W39673  17.095   5.635  12.047 -0.0649 -0.2413  0.2214
21470W        W39674   3.246   9.045  15.802 -0.3159  0.1130 -0.1650
21471W        W39675  13.192  16.021   3.254  0.2375 -0.0210 -0.1033
21472W        W39676   3.125   2.689   4.428 -0.0053  0.0974  0.1660
21473W        W39677   3.218   9.549   2.083  0.2806  0.1424 -0.0342
21474W        W39678  10.249  16.205  14.482  0.1112 -0.0410  0.0936
21475W        W39679   0.273   5.273   0.268  0.0406 -0.0319  0.2737
21476W        W39680  11.101  14.468  14.241  0.1628  0.0831  0.3063
21477W        W39681  15.495  12.146   0.959  0.0595  0.1234  0.0599
21478W        W39682   2.094  16.677   3.034 -0.0532 -0.1400 -0.1104
21479W        W39683   5.209   1.166  14.790 -0.0384 -0.0293 -0.4379
21480W        W39684   3.706  11.494   1.767  0.0230  0.1869 -0.0276
21481W        W39685   2.562  10.206  15.024 -0.1522  0.2082  0.0816
21482W        W39686   8.239  14.781  17.246  0.0510 -0.1529 -0.0784
21483W        W39687  13.906   8.266  16.704 -0.0860 -0.3275  0.1235
21484W        W39688   4.557  17.237  13.594  0.1762 -0.0155 -0.0457
21485W        W39689   3.805   1.123   0.890  0.0035 -0.0107 -0.3392
21486W        W39690  11.050  16.668  17.396 -0.0189  0.2178 -0.0833
21487W        W39691   4.360  14.612  13.619 -0.0925  0.1735  0.0031
21488W        W39692   5.911   3.642  12.603  0.0422 -0.2045  0.1097
21489W        W39693  16.666  16.153  14.448 -0.1287 -0.0233  0.0988
21490W        W39694   3.554  13.669   4.225 -0.0719 -0.0472 -0.3775
21491W        W39695  10.273   7.771   2.474  0.1502 -0.0297 -0.2213
21492W        W39696   8.841   0.734  16.742 -0.0574 -0.1212 -0.0613
21493W        W39697   3.873   5.147   3.019  0.1070  0.3018  0.0131
21494W        W39698  15.993   4.897   3.395 -0.1705 -0.0640  0.2164
21495W        W39699   0.308   3.346   4.916 -0.0577 -0.3100  0.1051
21496W        W39700  12.456   4.460  12.604 -0.4152 -0.0047  0.1963
21497W        W39701  10.038  10.293  11.373  0.0701  0.1176 -0.1948
21498W        W39702   5.048   4.091  12.218  0.1115 -0.2276 -0.1136
21499W        W39703  15.605   9.482  15.949  0.0151 -0.1357  0.1478
21500W        W39704   3.657  10.256   4.985  0.0574  0.2515 -0.0324
21501W        W39705   7.237   0.351  12.250 -0.0781 -0.0552 -0.0302
21502W        W39706  16.245   5.103  15.791  0.4367  0.0245  0.0155
21503W        W39707   7.784   0.848   4.959  0.2192 -0.1685  0.0099
21504W        W39708   0.319  15.165   3.017  0.1458 -0.0309  0.0929
21505W        W39709  15.213   3.045  13.324 -0.2889 -0.2501  0.2627
21506W        W39710  14.493   0.288  14.084 -0.1398 -0.0402 -0.2216
21507W        W39711   7.554   8.305  17.048  0.2588 -0.1505 -0.1753
21508W        W39712   8.721  11.332   0.490 -0.0610  0.2052  0.2148
21509W        W39713   9.005  16.019  14.304 -0.1233 -0.4036  0.1039
21510W        W39714   5.269  13.931   3.425 -0.2131  0.1589 -0.0760
21511W        W39715  16.759   6.801   4.769  0.1082  0.1618  0.1064
21512W        W39716   8.291  12.473  13.478 -0.0351  0.0554  0.3269
21513W        W39717   0.374   9.169   4.085  0.1710  0.0655 -0.0018
21514W        W39718  13.650   2.753  15.817  0.0629  0.1807 -0.1047
21515W        W39719   4.738  10.801   0.264 -0.0516  0.3115 -0.0665
21516W        W39720  16.319  14.297  14.855  0.1274  0.4200  0.1277
21517W        W39721   1.106   1.793   4.886  0.0344  0.1052 -0.2507
21518W        W39722   2.445   7.595  17.509  0.0855 -0.2378 -0.3543
21519W        W39723   7.703  11.877  15.558  0.0093 -0.2105 -0.2893
21520W        W39724   2.767   3.220   0.556 -0.0177 -0.0678  0.0610
21521W        W39725   4.766  13.030   1.392 -0.0856 -0.1250 -0.1457
21522W        W39726   8.136  16.832  16.393  0.0265  0.0144 -0.0335
21523W        W39727   8.404   0.254   4.824 -0.1766  0.0260  0.0599
21524W        W39728  16.464  13.473  14.261  0.1956  0.0161  0.0726
21525W        W39729   7.930   5.775  17.250  0.3597 -0.0260  0.0237
21526W        W39730   5.792   8.808  14.366  0.0423  0.0379  0.2381
21527W        W39731   5.287   1.396   4.028  0.1989  0.0465 -0.0837
21528W        W39732  11.706   8.263   3.504  0.1493  0.5279  0.3724
21529W        W39733   1.054   0.378  15.394  0.2920 -0.0570  0.0242
21530W        W39734   7.900   6.718  13.667  0.2367  0.0001  0.2018
21531W        W39735  10.984  15.454  13.052 -0.0738 -0.1251 -0.0258
21532W        W39736  16.678   4.835  14.270  0.2311 -0.4706  0.0211
21533W        W39737   3.422   4.225   0.511  0.0748  0.0910 -0.2155
21534W        W39738   5.734  15.365   1.975 -0.0945 -0.1363  0.0067
21535W        W39739   7.790  13.203  15.380 -0.1233  0.0535  0.1158
21536W        W39740   5.989   5.720  16.973 -0.0480 -0.2913  0.0160
21537W        W39741  13.292  13.879  12.463 -0.0973 -0.2034  0.2591
21538W        W39742  10.515   5.396   4.953  0.0285  0.0642 -0.0612
21539W        W39743   7.345   2.416  16.709  0.0907 -0.0484 -0.0595
21540W        W39744   2.511  16.695   2.474  0.0135  0.1071 -0.2678
21541W        W39745   2.599   8.416   1.743 -0.0034 -0.1533 -0.1806
21542W        W39746  10.414   1.950  14.408  0.1253  0.2276 -0.3493
21543W        W39747   4.720   8.025   0.492 -0.0250 -0.0740 -0.0301
21544W        W39748   2.421   5.395  14.999  0.0831  0.0630 -0.1110
21545W        W39749  13.749   0.007  15.036  0.0192  0.2414  0.0302
21546W        W39750   5.991   3.318  15.304  0.0268 -0.0732 -0.1451
21547W        W39751   4.581   9.649  14.339  0.3345  0.0189  0.0873
21548W        W39752   4.481   8.147   1.930  0.0271 -0.1872 -0.1432
21549W        W39753   6.836  15.857   1.636 -0.1526 -0.1554  0.0866
21550W        W39754   8.631   3.595  12.021 -0.0424  0.1577 -0.0230
21551W        W39755   1.402  12.634  15.260  0.0429  0.1477  0.0743
21552W        W39756  12.489   0.253  17.205 -0.1660 -0.1261 -0.2150
21553W        W39757   0.428   3.086  17.206 -0.2049  0.0619  0.0527
21554W        W39758  16.916   0.019   0.017 -0.4247 -0.5425 -0.3313
21555W        W39759   9.348  12.861   1.836 -0.1908 -0.2600  0.0434
21556W        W39760   5.392  16.966   3.659  0.0682 -0.0029  0.2317
21557W        W39761   2.303   0.488  12.376  0.0139  0.0705 -0.2840
21558W        W39762   8.562  14.553  15.471 -0.0164 -0.2257  0.1669
21559W        W39763   8.952  12.731  13.196  0.4502 -0.0603  0.1728
21560W        W39764  13.144   3.160   4.243 -0.2415 -0.2343 -0.1922
21561W        W39765  12.359   4.479   0.698  0.4536 -0.1838  0.0807
21562W        W39766   8.337  14.416   1.929  0.1648  0.2891 -0.1724
21563W        W39767  11.396   5.928   1.907  0.1369 -0.2586  0.2824
21564W        W39768   5.419   1.175   1.792 -0.1275 -0.1832 -0.0330
21565W        W39769   5.723  16.144  13.402 -0.0930  0.1130 -0.3357
21566W        W39770  10.001   5.981   1.887  0.1251  0.0348 -0.2615
21567W        W39771   7.536   5.429   1.732  0.0186  0.0310 -0.0559
21568W        W39772   9.915   3.892  15.134  0.1076  0.1049 -0.3063
21569W        W39773   0.159  10.914   0.432  0.1494 -0.1297  0.0427
21570W        W39774   8.151  12.114  14.304 -0.0346 -0.2061 -0.1979
21571W        W39775   9.291  14.427   3.641  0.1978 -0.0247 -0.0085
21572W        W39776  16.579  13.191  13.464  0.1196 -0.1373  0.1739
21573W        W39777   2.184   0.182  16.253  0.0533  0.0572  0.0757
21574W        W39778   8.492   6.160  12.274  0.1009 -0.0370  0.0470
21575W        W39779  14.386  14.017   0.843  0.1483 -0.2003  0.2786
21576W        W39780   3.663  12.025   0.861  0.1730  0.0858 -0.1827
21577W        W39781   0.449   4.098  13.068 -0.4321 -0.1329  0.3371
21578W        W39782  10.769  14.860   2.870 -0.1527  0.2167 -0.1041
21579W        W39783   4.499  15.695  12.732 -0.4238  0.0863 -0.1754
21580W        W39784  11.129   3.765   0.346  0.2944 -0.1634  0.1158
21581W        W39785   0.170  12.836   1.116 -0.3202 -0.1142  0.1260
21582W        W39786   6.876   0.616  14.765 -0.1578 -0.0523  0.0195
21583W        W39787   2.349   5.980  12.834  0.0386 -0.1329  0.0563
21584W        W39788   7.616  11.679   4.821 -0.0035 -0.0390 -0.1136
21585W        W39789   3.660  12.145  13.697  0.1962  0.0132 -0.2547
21586W        W39790   7.202   1.171  15.348  0.0368 -0.1522  0.1648
21587W        W39791  11.206   7.318  17.289 -0.0767 -0.1943  0.0069
21588W        W39792  15.229  13.219  14.629  0.0446 -0.2794 -0.1842
21589W        W39793  16.854   3.077  16.161 -0.0227 -0.3708  0.1544
21590W        W39794  10.810   4.365  14.028  0.0440  0.1046 -0.1837
21591W        W39795   0.580   2.032   4.492  0.2686  0.0686  0.1051
21592W        W39796  15.334  10.720  14.843 -0.0155  0.0131  0.1059
21593W        W39797   5.719   0.197   1.412  0.0616  0.1274 -0.4254
21594W        W39798  10.620  10.930   2.381  0.0028  0.1183 -0.1664
21595W        W39799   7.743  16.380   4.359 -0.0023  0.1450 -0.1319
21596W        W39800   7.703   4.425   2.641 -0.1163 -0.0843 -0.2264
21597W        W39801  15.475   7.408  12.147 -0.0745  0.0523  0.1672
21598W        W39802  12.676  15.382   3.738  0.3151 -0.0056 -0.3194
21599W        W39803   2.389   6.094  15.841 -0.0003 -0.3626 -0.0317
21600W        W39804   0.667  10.584  16.290 -0.1553 -0.1453 -0.0845
21601W        W39805   0.870  16.753   0.369  0.0657  0.0613 -0.0197
21602W        W39806  14.734  11.217  12.003 -0.1751  0.0734  0.1781
21603W        W39807   2.543  12.439  14.495 -0.1004  0.0163 -0.0723
21604W        W39808  11.163   1.166   3.604 -0.1135 -0.0134 -0.3052
21605W        W39809  13.981   1.266  12.023 -0.0497  0.1851  0.0254
21606W        W39810  11.944   5.298  14.837  0.1114  0.3164 -0.4762
21607W        W39811  16.045   6.080   2.232 -0.1505 -0.0180  0.1001
21608W        W39812   3.447  13.902   0.006  0.2324  0.0545 -0.1166
21609W        W39813   4.945  17.070  13.942 -0.2041 -0.0324  0.0134
21610W        W39814   2.977   4.225  12.391  0.1008  0.0231  0.3633
21611W        W39815   0.457   6.398  16.219 -0.2117 -0.2760  0.2859
21612W        W39816   6.226   7.634  14.878 -0.1364  0.0948 -0.2280
21613W        W39817  14.214   8.965   3.784  0.3032 -0.0366  0.1054
21614W        W39818   8.405  12.103  16.114  0.2448  0.2243  0.1948
21615W        W39819   0.588   0.561  15.445 -0.0609  0.0260 -0.1150
21616W        W39820   3.702  16.347  12.996 -0.0021  0.2498  0.2363
21617W        W39821   4.909   2.920   5.037  0.3388  0.1180  0.0038
21618W        W39822   0.363   6.750   1.438 -0.1647 -0.1810  0.5985
21619W        W39823   3.003   0.944  17.144  0.0463 -0.3989  0.0517
21620W        W39824   7.242   9.187  15.738  0.0193  0.2377  0.1251
21621W        W39825  12.036  17.026  16.590  0.0833  0.0732 -0.0419
21622W        W39826  10.494  14.302  15.926 -0.0642  0.2091  0.3703
21623W        W39827   2.952   3.710  13.183 -0.0507 -0.1405 -0.0007
21624W        W39828   5.674   9.104  13.893  0.1505 -0.0898 -0.1307
21625W        W39829   5.980   2.945  14.912 -0.2795  0.0954 -0.1158
21626W        W39830   5.461  14.375   5.201 -0.0040  0.1202 -0.1449
21627W        W39831   4.277  12.152   1.737 -0.4115  0.2070  0.1523
21628W        W39832   0.058   9.223   0.798 -0.2695 -0.1401  0.0556
21629W        W39833   7.182   4.305   2.859  0.1269 -0.3980 -0.2952
21630W        W39834   8.817   9.791   3.502  0.1545  0.2693  0.1232
21631W        W39835   2.059  12.876  16.021  0.2531  0.0920  0.3458
21632W        W39836  16.888  10.149  17.246 -0.1001  0.2256 -0.0639
21633W        W39837  13.457   7.213  17.113  0.0516 -0.0258  0.0182
21634W        W39838   7.507  11.568  14.461 -0.0479  0.0859  0.1075
21635W        W39839  13.667   8.695  12.699 -0.1362  0.2445  0.2539
21636W        W39840   8.524  16.314  15.058 -0.1243 -0.2955  0.1106
21637W        W39841  17.166   9.953  12.884 -0.0654 -0.2851  0.0687
21638W        W39842  14.418  10.157   4.249 -0.0300  0.3521  0.1588
21639W        W39843   2.464   5.564   0.462  0.1060 -0.2541  0.1707
21640W        W39844   9.301  16.677  15.450 -0.1685  0.0782  0.1116
21641W        W39845   7.004   2.795   2.897 -0.0121  0.0474  0.1230
21642W        W39846   2.543  14.243   0.493 -0.0382  0.0731  0.0633
21643W        W39847   0.202   8.400  17.420 -0.1221 -0.2343 -0.1159
21644W        W39848  11.988   9.279   2.776 -0.2287 -0.0924 -0.2390
21645W        W39849   9.572  10.014  13.993 -0.0453  0.1221  0.0599
21646W        W39850  12.177   0.419  13.943  0.1589  0.4339 -0.3192
21647W        W39851   9.428  13.141  17.230  0.1679  0.2302 -0.0840
21648W        W39852  13.716  11.742   5.320  0.1641  0.2130 -0.0325
21649W        W39853  10.658   7.353  13.197  0.0863 -0.0787  0.3207
21650W        W39854   8.153   4.903  15.436 -0.2834 -0.0974  0.1901
21651W        W39855  11.398   1.956  14.403 -0.3493 -0.0096 -0.0385
21652W        W39856   5.351  12.622  12.469 -0.1101  0.0606 -0.1715
21653W        W39857   7.688   2.288  13.898  0.1146 -0.2487 -0.0214
21654W        W39858  11.358  11.859  15.801  0.3934  0.0816  0.0212
21655W        W39859   5.428  14.980  15.155 -0.1465  0.2763  0.2035
21656W        W39860  11.360   1.004  14.022 -0.0914 -0.0388  0.1334
21657W        W39861  17.031   0.143  12.586 -0.2472  0.0413 -0.3777
21658W        W39862  16.156  14.622  15.975  0.1179 -0.2587  0.3199
21659W        W39863   8.972   2.574  12.744 -0.0499  0.0423  0.2300
21660W        W39864  11.102   8.622  17.452 -0.0290  0.0186 -0.2869
21661W        W39865   1.838  11.369  11.596  0.0546 -0.0024 -0.2461
21662W        W39866  16.974  15.906  14.854 -0.0313 -0.3021 -0.1165
21663W        W39867   6.784  10.498  17.464 -0.0839 -0.1466  0.1570
21664W        W39868  12.838   3.145  13.134 -0.3697  0.1140 -0.0072
21665W        W39869   4.416  12.890   0.415  0.1215  0.0921 -0.0168
21666W        W39870  10.118   3.569   1.001  0.1266  0.1218 -0.0346
21667W        W39871  16.660   2.614  14.553 -0.0428  0.1309 -0.1681
21668W        W39872   4.476   1.661   5.293 -0.0709 -0.1787  0.2131
21669W        W39873   2.219  14.917   6.290  0.2094 -0.3195  0.0169
21670W        W39874  11.174   3.596  15.154  0.1376 -0.0167 -0.1496
21671W        W39875   1.540  12.370  16.497  0.0090 -0.1704 -0.1893
21672W        W39876   9.664   1.640   1.951  0.0020  0.2832  0.2082
21673W        W39877   6.257   9.540  17.437 -0.2112 -0.2870 -0.3203
21674W        W39878   3.811   3.940   1.612  0.0164  0.0138 -0.2345
21675W        W39879   5.561  15.713   3.845 -0.1150  0.0922 -0.1675
21676W        W39880   0.207   8.163  15.267 -0.1450  0.0994 -0.0523
21677W        W39881   3.096   4.190   2.689 -0.2720 -0.0866  0.0582
21678W        W39882  13.927  14.732  15.680 -0.2393  0.0536  0.0175
21679W        W39883   8.779  10.854  16.710 -0.0285 -0.1762  0.0864
21680W        W39884   1.146   0.822   3.261 -0.2014  0.0558  0.3264
21681W        W39885   0.007   1.422   4.369 -0.0343  0.3601 -0.1646
21682W        W39886  10.248  13.463   5.308  0.2823  0.0137  0.2966
21683W        W39887  16.097  13.920  16.346  0.0998  0.2438 -0.4310
21684W        W39888  15.094  13.514   5.145  0.1569 -0.0342 -0.1425
21685W        W39889  13.695   7.329  16.561  0.1740 -0.0818  0.0151
21686W        W39890  12.280  12.600   3.778  0.0000  0.1773 -0.0873
21687W        W39891  15.119   7.090   4.185  0.0028  0.1296  0.1803
21688W        W39892  12.848   9.139  16.895 -0.1320  0.0629  0.1785
21689W        W39893   0.536  15.797   2.500 -0.2714 -0.3035  0.2755
21690W        W39894   4.770  10.570   2.794 -0.3222  0.2554 -0.2124
21691W        W39895   4.667   1.653   4.858 -0.0833 -0.0949 -0.1047
21692W        W39896  12.574   9.486  14.587  0.2390 -0.0282 -0.0118
21693W        W39897   7.108  12.501  12.443 -0.0266  0.1118  0.1915
21694W        W39898   7.729   4.836  12.330  0.3602 -0.0139  0.1688
21695W        W39899   4.945   1.175   2.526  0.2187  0.1944  0.1030
21696W        W39900   7.795   7.114   1.697  0.0840  0.0090 -0.2700
21697W        W39901  12.279  15.713  16.911  0.1292  0.3536 -0.0684
21698W        W39902   3.355   4.120   3.114  0.2323 -0.0988  0.2142
21699W        W39903   6.029   4.915   3.497 -0.1054 -0.0005  0.1882
21700W        W39904   2.663  10.668  14.163 -0.0379  0.0603 -0.3048
21701W        W39905   6.954   7.937   0.219 -0.1525 -0.2046 -0.0108
21702W        W39906   0.766   4.420   1.127  0.0071 -0.2534  0.1387
21703W        W39907   9.579  16.709  14.856  0.0882 -0.1842 -0.0550
21704W        W39908   2.583  15.147  13.895  0.2875  0.0737 -0.0947
21705W        W39909  11.457   1.611   0.129  0.2692  0.1813 -0.0991
21706W        W39910  10.656  11.356  14.173  0.2101 -0.1236  0.3159
21707W        W39911   4.639   1.118  11.921 -0.0796  0.0398 -0.3217
21708W        W39912   4.014  10.120  16.638 -0.0333 -0.0554  0.0840
21709W        W39913   1.613   8.839  17.419  0.1853 -0.5578 -0.1536
21710W        W39914   7.828  16.265   2.502  0.0454  0.1284  0.1164
21711W        W39915   6.538  10.208   2.681  0.0303  0.1552  0.0427
21712W        W39916   5.326  11.934   5.551  0.0734  0.0548 -0.0830
21713W        W39917   9.884   4.293  12.347  0.1091  0.0835  0.2046
21714W        W39918  14.916  11.050   1.253  0.2009 -0.0928 -0.1383
21715W        W39919  13.307   5.296  16.727  0.1298  0.3874 -0.0013
21716W        W39920   8.595   1.412  16.247  0.0030 -0.1035  0.2271
21717W        W39921  12.544  15.391   2.608 -0.0998 -0.0817  0.4007
21718W        W39922   4.810  10.849   1.864 -0.0500 -0.0522 -0.0777
21719W        W39923   2.892   9.832  15.798 -0.0106 -0.1252 -0.0919
21720W        W39924  10.286   4.818   3.373  0.1608 -0.1408  0.2476
21721W        W39925   8.448   4.557  15.636  0.2562  0.0060  0.2293
21722W        W39926   8.709  11.799   0.239  0.0544 -0.4141  0.3157
21723W        W39927  10.791  14.636   0.506  0.0696 -0.1910 -0.0417
21724W        W39928  15.476   9.925   2.082  0.0131  0.0590 -0.2709
21725W        W39929  11.593   7.417  14.758  0.1871 -0.0296 -0.1083
21726W        W39930  10.338  12.432  11.532  0.1098 -0.0764 -0.2667
21727W        W39931   8.067   0.300   3.891 -0.1580 -0.0091  0.0590
21728W        W39932   6.130  11.706   3.695  0.0456 -0.2526  0.1491
21729W        W39933  14.985   1.437   5.436 -0.0728 -0.1798 -0.0808
21730W        W39934   4.452   9.000   3.124 -0.1275  0.0387  0.0400
21731W        W39935   7.039   0.122   2.783 -0.0878 -0.1257  0.2027
21732W        W39936  15.916   6.933   1.449  0.0018 -0.0456 -0.0391
21733W        W39937   0.238   1.911  14.225 -0.2869  0.0934  0.1237
21734W        W39938   8.338  12.567  14.351  0.0682 -0.0136 -0.1414
21735W        W39939  12.463  10.515  17.142 -0.0016 -0.0138 -0.0731
21736W        W39940  11.270   4.555  16.053 -0.1113 -0.0525  0.3564
21737W        W39941  11.244   5.500  17.227 -0.3026  0.3668 -0.1189
21738W        W39942  13.168  16.503   3.063 -0.2716  0.1264  0.1392
21739W        W39943  15.046   6.985   2.971 -0.2071  0.0074 -0.3515
21740W        W39944   4.428  16.624   4.138 -0.0642 -0.1181  0.0970
21741W        W39945  15.219   9.078   4.653 -0.0244  0.0313  0.1464
21742W        W39946   0.008  11.543  15.087 -0.0388  0.2513  0.3607
21743W        W39947  10.997  11.123  16.486  0.1367 -0.0236  0.3531
21744W        W39948  11.088   1.719  13.440  0.4202 -0.1537  0.1208
21745W        W39949   6.662  16.347   1.764 -0.1165 -0.1671 -0.0390
21746W        W39950  11.731   0.873   2.043  0.0414 -0.1528  0.1206
21747W        W39951  13.848   8.594   2.140  0.0205  0.1345 -0.1224
21748W        W39952  11.198   6.409   1.588  0.3461 -0.3657  0.1914
21749W        W39953   0.321  10.720   2.031  0.0847  0.0174  0.0947
21750W        W39954  10.120  13.942  17.376 -0.1633  0.1389  0.0457
21751W        W39955   8.522  16.456  13.524 -0.3444  0.2049  0.0211
21752W        W39956  13.888   5.110   0.060 -0.1734  0.0854 -0.2086
21753W        W39957  11.807   6.997   1.489 -0.0851 -0.0826 -0.0096
21754W        W39958   8.339   1.233   1.580  0.1700  0.0298 -0.1537
21755W        W39959  10.516  16.580  12.456  0.1299 -0.0276  0.1576
21756W        W39960  16.148  17.267  15.656  0.3050 -0.1810 -0.0945
21757W        W39961   7.191  13.149  13.827 -0.0997  0.0706 -0.2465
21758W        W39962   8.141   8.273   0.897 -0.1433 -0.2255 -0.2325
21759W        W39963   1.203   3.056   4.080 -0.3254 -0.0222  0.1131
21760W        W39964  16.901   2.829   3.314 -0.0959  0.2650 -0.1327
21761W        W39965   6.398   2.447   5.866  0.0652 -0.3169  0.2064
21762W        W39966   8.796  14.500   3.378  0.4288  0.3445 -0.0218
21763W        W39967   3.179   3.852  12.728  0.0188  0.0772 -0.0519
21764W        W39968   1.331   7.265   3.790 -0.3146 -0.1642 -0.0074
21765W        W39969  15.843  12.579   5.299 -0.0938  0.0977  0.1146
21766W        W39970  12.733   5.429   1.143  0.0713 -0.2792 -0.1321
21767W        W39971  14.356  13.966   1.909  0.1265  0.0556 -0.0142
21768W        W39972   8.987  13.403  16.971  0.3983  0.3793 -0.0914
21769W        W39973  11.956   1.219   1.267  0.2748  0.1597 -0.2188
21770W        W39974   4.130   9.031   1.515 -0.3824  0.1696 -0.1692
21771W        W39975  12.703   6.630  14.566  0.1078  0.2420  0.0138
21772W        W39976  11.936  14.288   4.106  0.0314  0.1629  0.3539
21773W        W39977  13.211   2.701   0.425 -0.1542 -0.1383 -0.1170
21774W        W39978   3.029  11.195   4.183  0.0058 -0.1183  0.0466
21775W        W39979   1.156  12.259  16.773  0.0015  0.0103  0.2095
21776W        W39980  16.840  14.924  15.241  0.0543  0.0964 -0.0746
21777W        W39981   5.219  14.443   2.032  0.1078 -0.0305  0.0107
21778W        W39982   3.220   4.839  13.344 -0.0910 -0.0044 -0.0803
21779W        W39983  12.166   2.866   3.649 -0.1028  0.0710 -0.1744
21780W        W39984  15.315  10.618   5.491  0.1714 -0.1159 -0.0259
21781W        W39985  14.790  10.563  15.754 -0.3614  0.2183 -0.3248
21782W        W39986   3.675   7.410   1.558 -0.0270  0.2611 -0.0496
21783W        W39987   8.714  12.528   0.866 -0.0007  0.1647  0.1739
21784W        W39988  11.672   1.162  16.389 -0.2681  0.2556 -0.0545
21785W        W39989   0.093   3.023  14.238 -0.1553  0.2993 -0.1617
21786W        W39990  11.284   6.638   2.774 -0.1255 -0.3920  0.0414
21787W        W39991  14.464  10.840   2.032 -0.2717 -0.2811 -0.0453
21788W        W39992   5.081  17.113  11.246 -0.1023  0.0174  0.1771
21789W        W39993  13.799  15.996   5.855  0.2601 -0.1901 -0.1278
21790W        W39994   4.605   5.134   2.316 -0.0012  0.1758  0.0588
21791W        W39995  10.558   5.596   3.608 -0.0601 -0.0406 -0.1878
21792W        W39996   6.812   8.104  14.254  0.1145 -0.0901  0.0885
21793W        W39997  11.647  17.167   0.703  0.0266 -0.3159 -0.0458
21794W        W39998   1.603  11.094   5.089  0.1662  0.1980  0.0681
21795W        W39999   1.030   9.920   2.091 -0.2615 -0.5212  0.1478
21796W        W40000  14.917   1.791   4.598 -0.2626 -0.3222 -0.0033
21797W        W40001   2.266   1.236  14.872 -0.0392 -0.1181  0.0254
21798W        W40002  11.803  10.587  14.177 -0.1718  0.1589  0.3909
21799W        W40003  10.326   1.049   3.445  0.2146 -0.3818  0.0311
21800W        W40004  17.109  13.942  15.362 -0.1121  0.1373 -0.3033
21801W        W40005   6.276  14.248   3.162  0.2247  0.1030  0.0819
21802W        W40006   5.678  10.514   0.724  0.0974 -0.0799  0.1773
21803W        W40007   9.337   6.841   4.011  0.2429 -0.0016  0.1558
21804W        W40008  14.017  13.170  17.374  0.1417 -0.0858 -0.0583
21805W        W40009  17.182   2.567   3.696 -0.2501 -0.3060  0.1436
21806W        W40010   8.510   4.900  13.994 -0.1400 -0.3053 -0.1508
21807W        W40011   8.102   6.751   1.507  0.1113 -0.0318  0.0056
21808W        W40012   8.467   3.073  14.211 -0.0044 -0.0165  0.1209
21809W        W40013   4.602   2.144  14.960  0.0461 -0.1469 -0.0250
21810W        W40014   8.425  17.252   0.654 -0.0564  0.3641  0.0170
21811W        W40015   3.760   2.077   2.905  0.2879  0.1850  0.0102
21812W        W40016   9.474   2.538   1.897 -0.0044  0.0099  0.1442
21813W        W40017  12.335   5.142  16.431  0.1701 -0.0221  0.1761
21814W        W40018  11.869   4.691  15.851  0.0052 -0.3390  0.1354
21815W        W40019   6.637   0.464   5.186 -0.0968  0.0981  0.4591
21816W        W40020  13.659   9.209   3.876  0.1317 -0.3078 -0.3071
21817W        W40021   3.712  12.817   5.022  0.0555 -0.0862 -0.3116
21818W        W40022   0.102  10.170  12.425 -0.1087 -0.0501  0.0858
21819W        W40023  15.613   2.143   3.756  0.1975  0.2363  0.3440
21820W        W40024   2.851  16.562   5.095 -0.0477  0.2199 -0.1401
21821W        W40025  10.348   5.141   3.726  0.3387 -0.2981  0.3369
21822W        W40026   8.923   9.923  12.775  0.2179 -0.1990  0.0444
21823W        W40027   5.719   1.115   3.821  0.0690  0.1752  0.0346
21824W        W40028   1.115  10.740  12.505  0.0124 -0.3507 -0.1680
21825W        W40029   3.020  17.204  14.014  0.1978 -0.1578  0.1192
21826W        W40030  10.491   9.178  15.377  0.0977  0.2345  0.1913
21827W        W40031   6.572  14.857   1.709  0.0402 -0.0497 -0.2265
21828W        W40032  11.278   1.540  16.249 -0.0045 -0.0790  0.0702
21829W        W40033  14.588   8.406   2.111  0.1192 -0.2524 -0.0316
21830W        W40034   8.853   6.742   0.254 -0.2677  0.0122  0.3872
21831W        W40035   7.753   3.924   2.432 -0.1225  0.3981  0.1525
21832W        W40036   2.878  16.361   2.638 -0.1250 -0.1072  0.0505
21833W        W40037   8.276   9.086  14.891 -0.2583 -0.2070 -0.0715
21834W        W40038  14.282   2.158   3.399  0.1586  0.0797 -0.0669
21835W        W40039   0.985   3.921  17.003 -0.2563  0.0192  0.1746
21836W        W40040   0.249   4.544  13.210  0.0594  0.1185  0.0418
21837W        W40041  11.718   4.064   1.802 -0.0535 -0.1339  0.0293
21838W        W40042   7.460   8.176   4.432  0.0925  0.2456 -0.0901
21839W        W40043  12.203   2.048   2.595  0.2021  0.2024 -0.0099
21840W        W40044  15.198  10.259  15.727  0.1376 -0.3018 -0.1276
21841W        W40045   0.225  15.917  14.002 -0.2567 -0.2086  0.0879
21842W        W40046   0.382   1.156   0.318  0.2452  0.1067  0.1360
21843W        W40047  15.880   0.938   1.212  0.1215 -0.0992 -0.0124
21844W        W40048   3.285  12.367  12.142  0.2302 -0.2481 -0.4467
21845W        W40049   2.821  10.050  17.484  0.0517 -0.1281 -0.1319
21846W        W40050  10.382  10.526   2.653 -0.1900 -0.3068 -0.1048
21847W        W40051   8.280  15.006   3.240  0.0179 -0.2039  0.0321
21848W        W40052   9.739   8.781  13.335  0.0335 -0.1275 -0.0720
21849W        W40053  15.751   1.309   4.937  0.0580 -0.2456  0.1422
21850W        W40054  16.994  16.158   1.432  0.0376  0.1821 -0.1498
21851W        W40055   4.562   3.262   5.256 -0.1501  0.0621  0.2327
21852W        W40056   0.369   9.144  15.083 -0.0161  0.0319 -0.3753
21853W        W40057   3.898   8.911  16.843  0.0836 -0.2027 -0.0385
21854W        W40058  11.635  10.811   3.810 -0.1229  0.0684  0.1276
21855W        W40059   3.761  13.001   2.980 -0.1378 -0.2823 -0.0187
21856W        W40060  13.382   7.159   2.858 -0.2052  0.1761 -0.1935
21857W        W40061  17.077   9.501  13.295 -0.1603  0.0139 -0.0477
21858W        W40062  14.683   3.807  13.520 -0.3276 -0.2579  0.0062
21859W        W40063   3.488  16.660   0.949  0.0045 -0.0701 -0.1939
21860W        W40064   0.946   9.852   4.537 -0.2038  0.3025  0.2357
21861W        W40065   6.219   8.920   2.153  0.0548 -0.1667 -0.2268
21862W        W40066   1.624   8.810   3.859 -0.1846  0.1533  0.0404
21863W        W40067  10.307  12.229  13.226 -0.3452 -0.0135 -0.3692
21864W        W40068  12.102  13.964   1.418 -0.0785  0.2013 -0.1549
21865W        W40069  16.862   9.111   3.678 -0.0515  0.2351  0.1906
21866W        W40070   3.001   5.836   3.678 -0.2397  0.0024  0.0235
21867W        W40071  11.791  13.676   1.918  0.0068 -0.0422 -0.0388
21868W        W40072  15.599  15.386  15.918  0.0319  0.1888  0.1011
21869W        W40073   5.081  15.580   4.380 -0.1859 -0.1222  0.0205
21870W        W40074   1.621   1.341  16.207  0.0050  0.0070  0.0961
21871W        W40075   7.238   7.858   1.179 -0.0898  0.1888  0.0520
21872W        W40076  10.491   0.648   4.257 -0.1531 -0.1872  0.1290
21873W        W40077   1.407  14.705  15.871  0.0987 -0.0459 -0.0448
21874W        W40078  15.279  16.890  16.434  0.2199 -0.1546  0.1196
21875W        W40079  16.853  16.818  14.475 -0.0192  0.4849 -0.0961
21876W        W40080  10.076   4.430  11.907  0.3300  0.2781 -0.1881
21877W        W40081  10.273  12.015   0.147 -0.0187 -0.3461 -0.1012
21878W        W40082   2.701  14.009  13.287 -0.3669 -0.0951 -0.2840
21879W        W40083   2.023   4.845  14.440 -0.0941  0.4291  0.0274
21880W        W40084   1.151  15.278  17.142 -0.0314 -0.1978 -0.0964
21881W        W40085  16.975   7.485   4.158 -0.1432 -0.1798 -0.0030
21882W        W40086  15.908  14.779  13.568  0.0583  0.2910  0.0164
21883W        W40087   9.927  13.119   1.818 -0.4411 -0.1240  0.1074
21884W        W40088   9.468  10.102  16.812  0.0501 -0.3027  0.0464
21885W        W40089   6.211   7.701  16.026  0.0989  0.0689  0.3103
21886W        W40090  14.918   6.155  16.262  0.0496 -0.0497  0.0921
21887W        W40091   6.737   0.159  16.741 -0.0986 -0.0169 -0.0505
21888W        W40092  11.887   8.145   1.415 -0.3222 -0.1058  0.2212
21889W        W40093  14.175  15.088  16.062  0.1367  0.2701  0.0997
21890W        W40094  15.995  10.944   4.144 -0.0154 -0.0702 -0.2787
21891W        W40095   4.380  15.681   4.034 -0.1273 -0.0949 -0.2836
21892W        W40096   5.808   3.583   0.722  0.2110  0.1346 -0.1552
21893W        W40097  11.814   5.458   4.843 -0.2228 -0.1240  0.2067
21894W        W40098   0.098  16.063   4.622 -0.0671 -0.1238  0.1329
21895W        W40099  14.475   8.130   3.482 -0.0757 -0.0169 -0.0174
21896W        W40100  14.311   3.888  15.437  0.1348  0.0857 -0.2198
21897W        W40101   1.383   9.008   4.284 -0.3274  0.1396 -0.1003
21898W        W40102  14.198   7.233  13.197  0.1435  0.0833  0.1616
21899W        W40103   4.456   4.588  15.100 -0.1018  0.0385 -0.4239
21900W        W40104   1.403  10.986   4.035 -0.0468  0.1064 -0.0973
21901W        W40105  14.519  11.626  16.089  0.2457  0.0790  0.0251
21902W        W40106  10.514  12.098  14.879 -0.1093 -0.1039 -0.1846
21903W        W40107   9.543   8.832   0.678  0.1736 -0.0587 -0.2896
21904W        W40108   4.495   1.168   5.216 -0.2269 -0.0856  0.0294
21905W        W40109   1.637  12.460  14.801  0.0281 -0.1310  0.0091
21906W        W40110  12.220   3.492  11.785 -0.0112  0.2964 -0.1310
21907W        W40111   5.071   6.655  13.996  0.1289 -0.0765 -0.0816
21908W        W40112  15.010   5.059  14.245  0.0266  0.0230 -0.2045
21909W        W40113  14.402  12.336  14.023  0.1560  0.0579 -0.1536
21910W        W40114   8.996   1.458  16.703  0.1636 -0.0665 -0.1292
21911W        W40115  13.062  14.441   0.772 -0.2215 -0.0390 -0.1988
21912W        W40116   3.612  16.524  16.661 -0.0098  0.0141 -0.2649
21913W        W40117  14.874   5.755  15.472 -0.1516  0.0162  0.0749
21914W        W40118   2.662   7.998  16.731 -0.0423  0.0432  0.1375
21915W        W40119  14.933  11.572   3.194  0.1682  0.1444 -0.0683
21916W        W40120   7.552   9.583  16.525 -0.1432  0.2800  0.2043
21917W        W40121   0.000  14.979   5.155 -0.0245  0.0720 -0.0102
21918W        W40122   3.581   2.834   4.673 -0.1435  0.1062  0.1882
21919W        W40123   6.195  14.819   5.228  0.1647 -0.0985 -0.0469
21920W        W40124   9.418   8.366   4.014  0.1410 -0.0814  0.0456
21921W        W40125   8.224   9.758   0.169 -0.0990  0.0124 -0.2619
21922W        W40126  16.548   1.446   4.907  0.1014  0.3789 -0.0144
21923W        W40127   4.548  12.997  15.205  0.1410 -0.0579 -0.0526
21924W        W40128  16.969  14.520  13.558 -0.1674 -0.0119 -0.0080
21925W        W40129  15.379   4.831  13.946 -0.2427  0.1543  0.1724
21926W        W40130   0.249  11.401   0.709  0.1187  0.0687 -0.0453
21927W        W40131   3.844   6.845  13.324 -0.3642  0.0708  0.2015
21928W        W40132   0.684  16.132   1.466  0.0581  0.3231 -0.2624
21929W        W40133  17.249   0.677   1.109  0.2156 -0.2614 -0.1729
21930W        W40134  12.619   5.551  17.282  0.1708 -0.0530 -0.1195
21931W        W40135   2.477   4.707   4.850 -0.0123  0.1434  0.0465
21932W        W40136  10.501  15.323  13.304 -0.1359 -0.3234  0.0795
21933W        W40137   4.427  11.984   5.756  0.1390  0.0639 -0.1047
21934W        W40138   2.935   6.407   4.746  0.1006  0.3955 -0.0742
21935W        W40139  13.260   8.067  14.255  0.0730 -0.0660  0.1779
21936W        W40140   5.787  14.204  14.657 -0.1547 -0.1565 -0.0909
21937W        W40141   5.284  12.901   2.342 -0.2431  0.1132  0.1507
21938W        W40142   6.806   9.465  15.437  0.1097 -0.0196  0.2608
21939W        W40143  13.605   2.499  16.304  0.0803  0.1211 -0.0425
21940W        W40144   6.379   0.775  15.158  0.1315 -0.0424 -0.1257
21941W        W40145  11.775  12.828  15.412 -0.0994  0.0114  0.3123
21942W        W40146  10.675   5.752  15.830  0.2371 -0.1473 -0.1591
21943W        W40147   3.953   2.476   1.461 -0.2830 -0.1099  0.2202
21944W        W40148   1.851   1.899  16.899 -0.0398  0.1180  0.1020
21945W        W40149  15.255   0.994  12.805 -0.0919  0.0161 -0.1394
21946W        W40150   9.953  14.097   5.166 -0.4022 -0.1026 -0.0683
21947W        W40151   7.415   6.224   3.714 -0.0227  0.0146 -0.2424
21948W        W40152   0.724  15.492  17.061  0.0831  0.2585 -0.0452
21949W        W40153  10.694   9.771  12.507  0.1194  0.0228  0.0065
21950W        W40154   9.186   4.087   1.039  0.0352  0.2486  0.0425
21951W        W40155  13.198   7.618  16.694 -0.1727 -0.1653 -0.0156
21952W        W40156   9.374   6.867   1.917 -0.1114  0.2333  0.1123
21953W        W40157  13.332   8.470  15.120  0.3607 -0.1951 -0.0207
21954W        W40158  12.114   4.673  12.996  0.2683 -0.1092  0.1607
21955W        W40159  12.387   8.455   3.237  0.0876 -0.0332  0.5152
21956W        W40160  15.722  16.658  14.559 -0.0495  0.4840 -0.0254
21957W        W40161  11.292  13.165   4.334  0.0941  0.0548 -0.0476
21958W        W40162  13.557   4.735  16.801  0.1086 -0.1028  0.0827
21959W        W40163  12.271  17.210   0.004  0.0396  0.3607  0.1237
21960W        W40164  16.865   4.342  16.122  0.3578  0.1128 -0.1733
21961W        W40165   9.435   5.559   0.320 -0.2172 -0.1646 -0.1476
21962W        W40166   2.200  14.198   3.168  0.0395  0.2319  0.0317
21963W        W40167   6.182   2.530  16.880  0.0476 -0.1818  0.1387
21964W        W40168  12.419  14.359  12.457 -0.2122  0.3939 -0.2164
21965W        W40169   4.976  16.688  15.524  0.0819 -0.3755  0.0141
21966W        W40170  16.659   1.803  13.755  0.0955  0.1877  0.2321
21967W        W40171  12.353   3.985   0.987 -0.2991 -0.2725 -0.0091
21968W        W40172  13.134   6.217  14.589 -0.0909  0.4078 -0.0425
21969W        W40173  15.502  12.158  13.063 -0.4857 -0.0217 -0.2286
21970W        W40174   0.841   2.866   0.595 -0.1307  0.1338  0.0146
21971W        W40175   0.944  14.473  14.039  0.0208 -0.0054  0.0234
21972W        W40176   5.232   1.494   2.184  0.0204  0.2433 -0.0725
21973W        W40177   8.818   0.042   0.330  0.1038 -0.1181  0.0789
21974W        W40178   7.936   9.889   1.353  0.0030 -0.0524 -0.2340
21975W        W40179  15.035   4.528   0.748 -0.0012  0.0451 -0.2689
21976W        W40180  13.436   0.309   1.760 -0.2205 -0.1287 -0.2433
21977W        W40181   7.697  15.618   1.436 -0.0240  0.0363 -0.0601
21978W        W40182   8.985   4.543  13.909 -0.0312 -0.3093  0.1409
21979W        W40183  11.766  16.235   3.325 -0.0247  0.0522  0.2124
21980W        W40184   3.235  12.035  16.960  0.1666 -0.0849  0.2118
21981W        W40185  16.098   7.169   4.245 -0.0427  0.0392 -0.0185
21982W        W40186   5.230   7.231  15.276 -0.2028  0.0102  0.0179
21983W        W40187   4.307   9.951  16.226  0.1530 -0.1222 -0.0498
21984W        W40188  15.010   6.750  16.807  0.1041  0.4156 -0.0516
21985W        W40189   5.481   2.589  14.406  0.1576 -0.3156  0.3383
21986W        W40190  11.146   0.249   2.233  0.0319 -0.1757  0.6456
21987W        W40191   9.028  11.677   2.339  0.3015  0.3084  0.1024
21988W        W40192  12.227  10.499  12.541 -0.0156 -0.2367  0.0483
21989W        W40193   2.597  15.833  16.561  0.1116 -0.3606 -0.3298
21990W        W40194   0.767   3.897  17.450 -0.2912  0.1547  0.0884
21991W        W40195   7.722  12.378   1.476 -0.0634 -0.1714 -0.1857
21992W        W40196   9.475   3.361  15.919  0.0038  0.2816 -0.0089
21993W        W40197   4.905  14.581  12.349 -0.1956 -0.1089  0.3019
21994W        W40198   5.034   7.067   4.190 -0.0911  0.0063  0.0294
21995W        W40199   2.992   2.900  16.815 -0.0987 -0.1018  0.1412
21996W        W40200   9.051  14.890   3.493 -0.3120  0.0654 -0.2386
21997W        W40201   5.248  13.720   1.258  0.2306 -0.2103 -0.1959
21998W        W40202  12.571   4.113  15.771 -0.0008 -0.1982  0.0082
21999W        W40203   7.211   6.459   1.343 -0.1527 -0.1263  0.1283
22000W        W40204  15.216   4.523  16.704  0.0077  0.1104 -0.2960
22001W        W40205  13.649  12.343   4.529 -0.2222 -0.1070 -0.0855
22002W        W40206  12.137   2.492  11.283  0.0481  0.0574 -0.1490
22003W        W40207   6.080  13.663   4.338  0.5532  0.1366  0.1104
22004W        W40208  10.180  15.906  13.154  0.0069  0.3382 -0.0634
22005W        W40209   5.031   1.280   3.034 -0.3657  0.1769 -0.1859
22006W        W40210   8.551  13.787  14.586 -0.1031 -0.0029 -0.1935
22007W        W40211   2.028   1.569  12.762  0.0451  0.1811 -0.0212
22008W        W40212   6.207   9.736   3.432  0.2111  0.1905 -0.0881
22009W        W40213   1.045   8.789   3.598  0.0030 -0.0072 -0.0059
22010W        W40214  12.702   1.256  17.047  0.1350 -0.1845 -0.1738
22011W        W40215   1.275  13.840  12.573 -0.1907  0.0599  0.0741
22012W        W40216   2.990   0.111   5.070  0.0360  0.2570  0.0553
22013W        W40217   8.193   8.006   4.066 -0.1252 -0.0686 -0.1899
22014W        W40218   0.246   4.450   0.892 -0.1887 -0.1954  0.2945
22015W        W40219   3.705   4.818  12.095  0.1069  0.1146  0.1313
22016W        W40220   2.586  14.117   5.698  0.0127 -0.3213  0.1923
22017W        W40221   2.131  16.014  16.370 -0.2433  0.1942  0.0019
22018W        W40222   9.253   5.151  15.392  0.0956 -0.2256  0.0868
22019W        W40223  10.076   3.318  13.695 -0.1399 -0.0373 -0.2319
22020W        W40224  16.455  12.398   2.896 -0.1393 -0.1547  0.1343
22021W        W40225   9.822   0.048  12.712  0.1680 -0.2581 -0.0629
22022W        W40226   7.197  14.397   0.493 -0.2101  0.2056 -0.0451
22023W        W40227  13.786   5.699   1.257 -0.1359  0.1155  0.0442
22024W        W40228   1.531  11.579  15.005 -0.3664 -0.0533  0.0525
22025W        W40229  11.141  14.189  13.458  0.1327 -0.0381  0.1027
22026W        W40230   9.666  15.202   5.254  0.1745 -0.1306 -0.1128
22027W        W40231   3.502   1.135   2.008  0.0729  0.0583  0.1090
22028W        W40232  10.210  17.180   4.625 -0.0825  0.1448 -0.1275
22029W        W40233   8.795  16.690   0.931 -0.1877  0.0775 -0.0357
22030W        W40234   8.524  11.271  16.489  0.3392 -0.0616 -0.0337
22031W        W40235   9.111   6.339  11.611 -0.1375  0.1953  0.0607
22032W        W40236  12.958   5.018  13.355 -0.1537  0.0978 -0.3016
22033W        W40237  14.555   8.935  17.064  0.1386  0.0845 -0.1633
22034W        W40238  16.368   1.093   3.973 -0.1361 -0.0097 -0.0924
22035W        W40239   1.912  14.733  16.063 -0.3534  0.1823 -0.2576
22036W        W40240   7.666  10.410   4.003  0.3139  0.0762 -0.0688
22037W        W40241  12.201   7.779   1.904 -0.3903 -0.0978  0.1353
22038W        W40242   5.179   1.750  16.204 -0.1680 -0.3251 -0.2343
22039W        W40243   5.705   7.143  13.659  0.0982  0.0161  0.0059
22040W        W40244  10.597   9.374   1.053 -0.2992  0.0183  0.1409
22041W        W40245   9.436   5.127  14.428 -0.1345  0.1784 -0.3153
22042W        W40246  17.024  11.296  14.681 -0.0857  0.0298  0.0151
22043W        W40247   3.315   3.779  16.691  0.1691  0.0145 -0.2392
22044W        W40248  14.028  16.873   5.445 -0.1676 -0.0324  0.0105
22045W        W40249  15.947  13.449   5.416  0.1648 -0.2250  0.0874
22046W        W40250  17.255   5.615   5.550 -0.0793  0.1557 -0.1156
22047W        W40251   3.615   4.632  11.621 -0.0231  0.0298  0.2281
22048W        W40252  13.931  16.820   0.242  0.2503 -0.0828  0.1977
22049W        W40253   5.912   5.602   2.161  0.1468  0.1410  0.0216
22050W        W40254  11.107   1.894  12.219  0.0453  0.2813 -0.1777
22051W        W40255  16.224   2.030  15.685  0.2324  0.0624  0.3009
22052W        W40256  16.507   0.586  16.416  0.0869  0.1960  0.0294
22053W        W40257  16.551  14.473   0.545  0.0177  0.0914 -0.2123
22054W        W40258   9.537  13.412  12.851  0.0716 -0.1031  0.2284
22055W        W40259   6.214  16.640  16.909 -0.4432 -0.0339 -0.0031
22056W        W40260  15.509   9.979  14.352  0.1705  0.2146 -0.0185
22057W        W40261   6.626   9.717   2.638  0.1860  0.1185  0.0821
22058W        W40262  17.235   3.187  17.418  0.1633 -0.2512 -0.1448
22059W        W40263  10.491   1.978   0.020  0.1917  0.0729  0.1417
22060W        W40264  13.201   4.831  12.902 -0.1486 -0.3680 -0.0509
22061W        W40265   2.896  10.081  13.637  0.1536  0.2578 -0.0922
22062W        W40266  17.025   9.157   3.158  0.3661 -0.0928 -0.2642
22063W        W40267   7.855   5.133  17.227  0.1169 -0.4175 -0.1443
22064W        W40268   6.237   6.727   2.124  0.2040 -0.0895 -0.3240
22065W        W40269   3.130   7.133   4.502 -0.3673 -0.2418  0.0974
22066W        W40270  11.070  11.076  14.009 -0.3019 -0.1344 -0.2347
22067W        W40271   4.673   1.820   0.776  0.0385 -0.1467 -0.0388
22068W        W40272  14.244   9.771   2.409  0.0112  0.1512  0.1543
22069W        W40273   7.113   0.233  15.090 -0.1051  0.3475 -0.0719
22070W        W40274   9.751  16.293   2.251  0.0365  0.3756  0.0299
22071W        W40275   5.490   5.251   1.108  0.2400  0.1673 -0.3796
22072W        W40276  13.636   8.324   3.956  0.2344  0.0114  0.0006
22073W        W40277   3.945   9.863   1.207 -0.1372 -0.1925  0.0343
22074W        W40278  15.776  15.995   0.847  0.0830 -0.0114  0.0628
22075W        W40279  12.205  11.869  16.825 -0.2792  0.0140 -0.0092
22076W        W40280  14.457  12.222   0.774 -0.4263  0.1959 -0.1708
22077W        W40281  15.608   1.210   0.740  0.2889 -0.0265  0.1482
22078W        W40282  11.687   8.181  16.906 -0.3517 -0.1992 -0.1344
22079W        W40283   0.637   3.819  14.465 -0.0057 -0.1204  0.3408
22080W        W40284  13.240   6.820   3.792  0.2841  0.2929  0.2500
22081W        W40285  11.046   5.016   4.358  0.1219  0.0992  0.0610
22082W        W40286  11.917  10.769   4.226  0.0054 -0.0854 -0.1431
22083W        W40287   8.231   6.603   1.021  0.1329 -0.0712  0.2167
22084W        W40288   8.016   7.652   0.289 -0.4358 -0.0729 -0.0283
22085W        W40289   8.103  16.664   4.136 -0.1769 -0.1367  0.3735
22086W        W40290   7.374  12.611   4.067 -0.0787  0.0252 -0.0036
22087W        W40291  15.449   6.681  13.296 -0.2129 -0.2966  0.1270
22088W        W40292   4.221  14.725   3.327  0.2146  0.3079  0.2575
22089W        W40293   0.166  15.347  16.493 -0.1120 -0.2476 -0.4978
22090W        W40294   7.621   5.054  15.419  0.0407  0.0400 -0.0858
22091W        W40295  14.844   9.025   0.737 -0.1561 -0.0489 -0.3182
22092W        W40296  11.226  14.275   1.281  0.1542 -0.1423 -0.1664
22093W        W40297   4.304  13.094   3.104 -0.0118 -0.0086  0.1627
22094W        W40298   7.028  12.046   3.515  0.1402  0.2227 -0.1104
22095W        W40299  11.041  13.810   3.848  0.2466  0.1482 -0.1233
22096W        W40300  10.690  15.274   1.851 -0.0156  0.1390  0.0871
22097W        W40301  12.028  15.255  17.248  0.1610  0.2548  0.1093
22098W        W40302   0.213   7.233  16.578 -0.1450 -0.0440 -0.0939
22099W        W40303  10.777  15.831  16.789 -0.0709 -0.4318  0.4164
22100W        W40304  12.802   2.352   4.030  0.1035 -0.1680  0.2841
22101W        W40305   8.256  11.545   0.410 -0.2186 -0.1150  0.0783
22102W        W40306  16.410  16.024  13.417  0.0269  0.1180 -0.2057
22103W        W40307  14.671   6.276  15.535  0.3313 -0.1218 -0.1801
22104W        W40308  10.067   3.833  13.037 -0.2733  0.0802 -0.1143
22105W        W40309  10.442   9.246   0.167 -0.1179 -0.2701 -0.1103
22106W        W40310  13.311   3.121  12.788 -0.1178 -0.0607 -0.1140
22107W        W40311  10.794  10.738   1.132  0.0309 -0.2913  0.0531
22108W        W40312   0.375   7.330  16.026 -0.2239  0.0801  0.2001
22109W        W40313  16.479  16.144   3.620  0.1424  0.2820 -0.0423
22110W        W40314   8.478  17.197   3.148  0.0524  0.2950 -0.0733
22111W        W40315   0.343   6.915  13.591  0.0869 -0.2000 -0.0564
22112W        W40316   7.026  11.379  14.203 -0.1467 -0.1633  0.0644
22113W        W40317  15.803   5.780  17.127  0.0296 -0.0455 -0.1585
22114W        W40318   3.808   6.368  16.731 -0.1438  0.0435  0.1156
22115W        W40319  13.943  10.241  14.775 -0.0168 -0.2946  0.0093
22116W        W40320   2.753  11.351   3.226  0.0715 -0.2581 -0.3055
22117W        W40321   8.203   4.596  12.864  0.3728 -0.0189 -0.0682
22118W        W40322   2.670   9.385  15.677  0.2739 -0.2771 -0.2708
22119W        W40323   8.861  12.767  16.345  0.1817  0.0779  0.1487
22120W        W40324   4.616  10.041  17.429 -0.1064  0.0685  0.0384
22121W        W40325  14.590   4.323  13.471 -0.1172 -0.0032  0.0668
22122W        W40326  13.760  12.538  16.155  0.0676  0.1675  0.0797
22123W        W40327   7.689   8.540  13.872 -0.0332 -0.1098 -0.1905
22124W        W40328   2.430  10.623   1.439 -0.1996  0.1071 -0.1198
22125W        W40329   1.518   7.687   2.891 -0.4024  0.0868 -0.1851
22126W        W40330   9.429   1.862   0.407 -0.0897  0.0423 -0.2974
22127W        W40331   0.202  11.714  12.414 -0.1071  0.2967 -0.3084
22128W        W40332   7.770   8.002  16.728 -0.2047 -0.1134 -0.1089
22129W        W40333   1.638  10.660  15.191 -0.1200  0.3328 -0.3384
22130W        W40334   4.016   9.534  13.449  0.1863  0.1866 -0.1263
22131W        W40335  10.696   5.257   2.119  0.1296 -0.1303 -0.0623
22132W        W40336   1.038  13.997  14.059  0.6425  0.1350  0.0891
22133W        W40337   5.223  11.238   3.842  0.0235  0.1726 -0.0226
22134W        W40338  16.806   5.326  16.104  0.0192  0.0628  0.2475
22135W        W40339  15.660  11.766  17.158 -0.0727 -0.2815  0.0414
22136W        W40340   0.880   1.020  16.552 -0.0281 -0.0495 -0.2396
22137W        W40341   9.321  10.547   4.794  0.1136 -0.2115  0.1091
22138W        W40342  15.324   5.877   0.422 -0.1086 -0.0989 -0.0408
22139W        W40343  14.999   0.025   1.876  0.0114  0.1550 -0.2753
22140W        W40344  12.736  12.099   1.400  0.0064  0.0126 -0.1626
22141W        W40345  11.306   6.977   3.136  0.0920  0.0749  0.2289
22142W        W40346  11.631   9.485  15.834 -0.1728 -0.2404 -0.1095
22143W        W40347  13.973   9.934   4.355  0.0677 -0.1547  0.1737
22144W        W40348  16.475   1.308   1.784 -0.0152  0.0070  0.0079
22145W        W40349  12.226   4.203  16.639 -0.2321 -0.1210  0.0815
22146W        W40350   2.912   8.133   4.275 -0.0920 -0.2114  0.2028
22147W        W40351   9.898  11.536  16.451 -0.0074 -0.2157  0.2231
22148W        W40352   1.808   1.910   1.251 -0.0228 -0.1836  0.0920
22149W        W40353   3.394   5.170   4.229 -0.2922  0.3747  0.1157
22150W        W40354  15.715   5.315   0.784  0.0673  0.2695  0.1225
22151W        W40355  13.656  11.087   0.837 -0.0616 -0.1117 -0.0126
22152W        W40356  10.150   8.897   3.621 -0.0645  0.0535  0.1560
22153W        W40357   3.299   1.472   5.096 -0.2873  0.1361  0.0556
22154W        W40358   2.897   0.553   3.696  0.1074  0.1077 -0.0885
22155W        W40359   8.599   5.503   2.874  0.0237 -0.0851 -0.2210
22156W        W40360   2.293   7.148   3.896 -0.3808  0.3362  0.0737
22157W        W40361  11.605   0.830   1.381  0.0223  0.1997  0.0328
22158W        W40362  10.760   9.855  14.811  0.2720 -0.3039  0.1185
22159W        W40363   6.281   2.049  14.763 -0.1839  0.0039  0.2591
22160W        W40364   6.333  16.665  12.524 -0.0944  0.0219  0.1399
22161W        W40365  10.687   1.963   2.203 -0.0751  0.0134  0.1379
22162W        W40366   5.587  15.783   2.401 -0.1499 -0.0611  0.1137
22163W        W40367   5.145   3.942   2.966  0.2532  0.3170  0.0677
22164W        W40368   5.298   2.635   3.257  0.1507  0.2376 -0.0699
22165W        W40369   9.983   7.638   3.870  0.2298 -0.0734 -0.2080
22166W        W40370   7.774   5.503   3.114 -0.0322 -0.1659 -0.3986
22167W        W40371   0.795  11.810  15.616  0.2282  0.0073  0.1126
22168W        W40372  16.542  10.102  13.689 -0.1569 -0.3249 -0.1516
22169W        W40373  10.815  13.426   1.640 -0.2135  0.2887 -0.2235
22170W        W40374  11.992  16.927  12.276 -0.0795  0.1093 -0.3641
22171W        W40375  10.922   7.199  13.588  0.0447 -0.0038  0.2652
22172W        W40376  13.407   3.016  16.243  0.0976 -0.0174  0.1898
22173W        W40377   5.249   3.132   0.252  0.1250 -0.0341 -0.3412
22174W        W40378   5.641   2.800   1.944 -0.1025  0.2001  0.0507
22175W        W40379  16.709  13.670   1.070  0.0171  0.0228 -0.2277
22176W        W40380   5.689  13.367   4.196  0.2488 -0.2602  0.1427
22177W        W40381   7.940   5.579  13.829 -0.2251  0.0199 -0.1563
22178W        W40382  13.389   6.012   5.297 -0.0910  0.0121 -0.0640
22179W        W40383  14.469   3.104  14.621 -0.1602  0.2961  0.5227
22180W        W40384  17.289   2.965   5.028 -0.0258  0.0190  0.2269
22181W        W40385  16.305   5.301   3.624  0.3310 -0.1081 -0.0293
22182W        W40386   7.940   6.169  14.526 -0.0145 -0.1909  0.0160
22183W        W40387   6.167   7.556  12.238  0.1480  0.0034  0.1180
22184W        W40388   8.170  14.833  16.683  0.0011 -0.2257 -0.1068
22185W        W40389  10.905  16.309  12.190  0.0759  0.0174 -0.1806
22186W        W40390   6.325   3.608  17.406  0.2653 -0.0528 -0.0349
22187W        W40391   4.728   6.498  16.035  0.0135  0.1668 -0.0400
22188W        W40392  11.639   0.087   2.385  0.0939 -0.1004 -0.0102
22189W        W40393   4.171   0.253   4.395 -0.1731  0.1646 -0.2386
22190W        W40394  13.385  14.963  16.961  0.0200  0.1615 -0.1941
22191W        W40395  12.645   3.830   3.053 -0.1117  0.0387  0.0158
22192W        W40396  12.869   4.521  15.802 -0.0672  0.4686  0.0656
22193W        W40397   7.480   5.145  14.863 -0.1669 -0.1804 -0.1226
22194W        W40398  12.575   4.694   1.765  0.2275 -0.4400 -0.0092
22195W        W40399   5.242   5.922  14.595  0.0676  0.4490 -0.2335
22196W        W40400  10.883  10.951   6.028 -0.1048  0.0709 -0.2839
22197W        W40401  16.282  10.481   2.288  0.1456 -0.3041  0.2677
22198W        W40402  15.619   0.693   5.629 -0.1329 -0.2814 -0.0437
22199W        W40403   3.248   9.145  13.753 -0.2797  0.2134  0.2380
22200W        W40404   1.599  14.925  17.359 -0.0596  0.4564 -0.3143
22201W        W40405   4.106  12.987  14.786  0.0372  0.2046  0.0107
22202W        W40406   2.487   0.033  12.585  0.3546  0.2442  0.1075
22203W        W40407  16.910  10.401  15.903  0.0174  0.0103 -0.0627
22204W        W40408   5.381   5.945  13.452  0.1000 -0.1910  0.0259
22205W        W40409  10.194   2.395   0.900  0.0749 -0.2983 -0.1341
22206W        W40410  11.224  17.267  15.155 -0.2401  0.1557 -0.3706
22207W        W40411  13.026   2.245  14.673  0.2055 -0.1066  0.2462
22208W        W40412  15.626  12.263  15.850  0.0650 -0.3739  0.1469
22209W        W40413  14.332   1.253   0.590 -0.0268  0.1189 -0.3291
22210W        W40414  14.387  13.396  14.401 -0.3127 -0.0234 -0.3548
22211W        W40415   8.506  12.358   2.646  0.1192  0.0188  0.0112
22212W        W40416   8.445  16.487   1.183  0.0601 -0.0082 -0.4806
22213W        W40417  10.214   6.380  12.692  0.3095  0.0937 -0.0288
22214W        W40418   0.943   7.588  16.868 -0.0354  0.2003  0.2122
22215W        W40419  16.223   2.872  12.498  0.1366 -0.0779 -0.3357
22216W        W40420  14.953   4.229   2.606  0.4076 -0.1910 -0.1072
22217W        W40421  15.411  15.165  16.855  0.0548 -0.0674  0.0843
22218W        W40422   5.764  13.874   2.556  0.4339 -0.1655 -0.0860
22219W        W40423   7.398  12.684   4.547  0.0381  0.3579 -0.1705
22220W        W40424   4.582  14.407  12.699 -0.1510 -0.1552 -0.1602
22221W        W40425   0.422   5.525  12.876 -0.2545  0.3298  0.2469
22222W        W40426  14.427   0.939   3.984  0.1436  0.1332 -0.0939
22223W        W40427   5.599   5.776   4.976 -0.1720 -0.1394 -0.0510
22224W        W40428  10.670   4.556   3.287 -0.0407 -0.0451 -0.1290
22225W        W40429   5.495   1.702  13.222  0.1589  0.0744 -0.1593
22226W        W40430   4.245  15.749  17.068 -0.1442  0.3074 -0.0935
22227W        W40431   5.816   3.814  16.078  0.1463  0.1240  0.1499
22228W        W40432   2.895   8.462  14.610 -0.3263 -0.0855  0.0554
22229W        W40433  15.842   0.235   4.378  0.2673  0.2096 -0.0216
22230W        W40434   1.889   6.558  14.159 -0.0512  0.1375  0.0230
22231W        W40435  14.587   7.180  12.763 -0.0360 -0.2328  0.0242
22232W        W40436   6.882   0.911   1.694  0.0463 -0.2159 -0.0864
22233W        W40437  15.623   5.825   4.136  0.0561  0.0300 -0.0441
22234W        W40438  14.867  16.923  14.619 -0.0649  0.1371  0.1106
22235W        W40439  12.182   8.195   3.681 -0.1104  0.4038  0.1867
22236W        W40440  14.653   5.860  15.936 -0.0214  0.1738 -0.2061
22237W        W40441   7.516   3.446   1.175  0.0036  0.0459  0.2272
22238W        W40442   4.306   2.065  11.976 -0.0618 -0.2068 -0.4806
22239W        W40443  14.812   5.419  15.086  0.0378  0.2173  0.0817
22240W        W40444   0.101   2.764   3.174 -0.1619  0.0694 -0.0298
22241W        W40445  11.552   1.042  14.554  0.0818  0.0086  0.0190
22242W        W40446   3.482   5.849  12.314 -0.1124 -0.0428 -0.0344
22243W        W40447   5.686   8.327  17.055 -0.2378  0.0024  0.2506
22244W        W40448  14.298   1.743   3.659 -0.4483  0.0459  0.2439
22245W        W40449   9.383  16.389  17.409 -0.0249 -0.1786  0.0258
22246W        W40450   0.222   1.910  13.179 -0.0600 -0.2235 -0.1515
22247W        W40451   9.328   2.488  15.544 -0.2034 -0.1087 -0.3256
22248W        W40452  11.770  10.120  15.013 -0.1455 -0.0744  0.0302
22249W        W40453  15.541  16.349   2.802  0.1243  0.1844 -0.0180
22250W        W40454   0.739  15.330   2.774 -0.1667  0.0262  0.0343
22251W        W40455   9.489   3.054  17.375 -0.0439 -0.0534 -0.0415
22252W        W40456   9.503  15.236  13.544  0.0666  0.0219 -0.3014
22253W        W40457  14.049   6.612   1.770 -0.0025 -0.0696  0.3785
22254W        W40458   8.612  13.559   2.194 -0.0512 -0.2219  0.1875
22255W        W40459   5.383   9.853   3.713  0.0679  0.0186  0.0251
22256W        W40460   1.253   4.048  16.594 -0.3241 -0.0296  0.0634
22257W        W40461   1.462  10.645   2.594  0.2150 -0.3216  0.1546
22258W        W40462   8.125  16.021   5.189 -0.1325 -0.0782  0.0862
22259W        W40463  10.189   1.313  13.867 -0.1014  0.2485 -0.0656
22260W        W40464   7.856  16.423   0.935  0.3263 -0.2754  0.1245
22261W        W40465  12.829   7.027  13.266 -0.0777  0.1520  0.1377
22262W        W40466  13.604  13.572   2.055  0.1032  0.2198 -0.0023
22263W        W40467   6.908   8.252   4.378  0.0959 -0.2327  0.2905
22264W        W40468   8.015  14.160   3.600  0.1986 -0.1225  0.0048
22265W        W40469  14.852  10.761   1.690 -0.2822 -0.1088  0.2401
22266W        W40470   0.927   1.358   2.252  0.1160 -0.2851 -0.1071
22267W        W40471  14.801   3.373   3.781 -0.0668 -0.2039 -0.1652
22268W        W40472   2.449   3.351   4.476 -0.0403  0.1405 -0.3182
22269W        W40473   5.725  13.567  12.153  0.0569 -0.0510  0.1230
22270W        W40474  10.412  16.796   2.363  0.1704  0.0393  0.1620
22271W        W40475   3.635  14.720  11.978 -0.0715 -0.3720  0.3373
22272W        W40476   4.692   2.073   4.576  0.2775 -0.1425  0.1442
22273W        W40477  16.115   0.646   4.667  0.0856  0.2927 -0.0434
22274W        W40478   9.599  10.704   2.392 -0.1822 -0.0865  0.4283
22275W        W40479   2.497   4.471   2.952 -0.0329 -0.1116 -0.0802
22276W        W40480   2.619   3.810  14.462  0.1854  0.1673 -0.0114
22277W        W40481   8.156  14.494   4.650  0.0081  0.1151 -0.1615
22278W        W40482  12.963  10.532   1.065 -0.2749  0.1043  0.0310
22279W        W40483   9.116   7.846   2.889 -0.2252 -0.3373 -0.0269
22280W        W40484  15.352   3.695   3.532 -0.0491 -0.1642 -0.1161
22281W        W40485  10.676  13.002   3.442  0.2086  0.1429  0.2251
22282W        W40486   8.544  10.981   4.822  0.1042  0.2408  0.1106
22283W        W40487  15.403  15.962  13.851 -0.0492  0.1660  0.1781
22284W        W40488   3.485  11.734  14.815 -0.0538  0.1208 -0.0032
22285W        W40489  11.760  16.754   1.071  0.2369 -0.2647 -0.1406
22286W        W40490   3.020   9.329   3.224  0.2837  0.2120 -0.1309
22287W        W40491  14.138  14.746   3.523  0.0121  0.1386 -0.1540
22288W        W40492   3.661   5.051  17.373  0.0563 -0.0337  0.0981
22289W        W40493  13.944  16.949   4.719 -0.2042 -0.1121  0.2714
22290W        W40494  13.097   1.130   1.777 -0.2455 -0.0571  0.0525
22291W        W40495   0.668  11.097   2.875 -0.1927 -0.0422 -0.2126
22292W        W40496  13.275   7.918   4.755 -0.0002 -0.1282  0.0604
22293W        W40497   5.354  10.675   5.044  0.1568 -0.2188 -0.1911
22294W        W40498   5.140  16.735   1.742  0.2871  0.0233  0.3566
22295W        W40499   3.427   5.620   4.996 -0.2665  0.0778 -0.0143
22296W        W40500  10.314  13.327   1.527  0.0940  0.3349  0.0682
22297W        W40501  12.444  13.934  12.139  0.2006 -0.0549 -0.1036
22298W        W40502   2.414  12.511  16.900  0.0358 -0.1726  0.2365
22299W        W40503   4.239  10.045   4.241  0.1614 -0.1129  0.0102
22300W        W40504  12.184   9.926   2.784 -0.2433 -0.1825  0.1381
22301W        W40505   0.893   6.928   5.188  0.0109 -0.3029  0.0363
22302W        W40506  15.027   7.041  17.222 -0.1755  0.0690 -0.1934
22303W        W40507   8.952  12.483  13.623 -0.2844  0.1974  0.1620
22304W        W40508   1.755   6.550  14.638  0.1547 -0.0223  0.0620
22305W        W40509  13.409  11.893  17.220  0.1850  0.0455 -0.1363
22306W        W40510  11.959   5.138  16.758  0.1923  0.0810  0.0627
22307W        W40511   8.793   3.250   4.848  0.0783  0.0244 -0.2459
22308W        W40512   1.782  11.201   1.733 -0.1969  0.2957  0.0693
22309W        W40513  10.764   5.626   3.158 -0.1989 -0.2002 -0.0935
22310W        W40514   6.550   1.552  13.333  0.2646 -0.2090 -0.0248
22311W        W40515   6.228   3.238  16.856  0.0262 -0.3638 -0.0492
22312W        W40516   8.637  15.531   4.558  0.2870  0.0182 -0.4347
22313W        W40517   6.123   3.299  11.770 -0.2076 -0.1798  0.2305
22314W        W40518   7.499  16.457  13.846  0.1035 -0.1022 -0.0913
22315W        W40519   4.848   2.943  14.922  0.1118 -0.2053 -0.1070
22316W        W40520   3.238   1.939  16.378 -0.0090 -0.1255 -0.0061
22317W        W40521   6.251   8.145   3.931  0.2379  0.2637  0.0458
22318W        W40522   9.311   4.716   0.761 -0.3577  0.0576  0.1602
22319W        W40523   6.517  13.757  15.983 -0.0649  0.1101  0.1200
22320W        W40524   4.916  14.432  17.363  0.1671 -0.2226 -0.0775
22321W        W40525  10.593  16.248   4.190  0.2742  0.0806  0.0199
22322W        W40526  11.412   0.192   3.103 -0.0992 -0.3594  0.0127
22323W        W40527   3.048   3.090   0.167  0.3724  0.1870 -0.1198
22324W        W40528   7.325  10.112   3.767 -0.2206  0.2967  0.1843
22325W        W40529   0.519  14.437   0.060 -0.1708 -0.0770 -0.0692
22326W        W40530   4.066  11.758   0.990  0.0366 -0.3818  0.0043
22327W        W40531  16.264  12.024   2.058 -0.1835 -0.0763 -0.2871
22328W        W40532  13.431   6.311  16.272  0.0433 -0.3236 -0.0101
22329W        W40533   1.501   2.419  15.862 -0.1608  0.1954 -0.0080
22330W        W40534   9.376   3.623   1.390 -0.3067 -0.4911 -0.0372
22331W        W40535  15.704  14.489   2.408  0.1459  0.0699 -0.0022
22332W        W40536  11.028   7.444   4.484  0.3012  0.3646 -0.0185
22333W        W40537   4.094   7.262  15.870 -0.1925 -0.1713 -0.2643
22334W        W40538  14.635  10.862   0.886  0.0412 -0.2277  0.0700
22335W        W40539   8.537  10.479  13.793 -0.3443  0.1732 -0.0661
22336W        W40540  14.423  16.915   2.411 -0.0586  0.1796  0.4139
22337W        W40541  17.050   8.709   3.378  0.1764 -0.0093 -0.1944
22338W        W40542  11.400   2.068   0.372  0.0490  0.0671 -0.1547
22339W        W40543  11.462   9.583   2.565 -0.3200  0.0526 -0.1034
22340W        W40544  16.350   7.169  13.327 -0.1795  0.2638  0.0505
22341W        W40545   5.021   4.971   2.809  0.2573  0.1522 -0.4248
22342W        W40546   6.053  12.279  16.244  0.0154 -0.1037 -0.4949
22343W        W40547   4.214   2.679   2.210  0.1860 -0.3043 -0.1753
22344W        W40548  12.261  12.948  15.725  0.0728  0.2432  0.0018
22345W        W40549   3.257  12.171   1.182 -0.1176 -0.0142 -0.2800
22346W        W40550  16.600  11.181  17.072  0.4906 -0.0571 -0.1882
22347W        W40551   7.517  10.926  16.313 -0.1178  0.4310 -0.0939
22348W        W40552   6.145   7.685  16.507  0.0773 -0.1272  0.0129
22349W        W40553   9.959   3.477   1.927 -0.1740  0.0497 -0.2420
22350W        W40554  15.986  10.042  12.856 -0.1806 -0.1560 -0.2130
22351W        W40555   0.599   4.092   3.452 -0.1544 -0.0409 -0.0101
22352W        W40556   5.112   4.856  15.445  0.1338  0.1638  0.2455
22353W        W40557   2.537   2.722   0.155 -0.3097 -0.4397 -0.2030
22354W        W40558  17.246  17.249   0.417 -0.2761  0.0723  0.0039
22355W        W40559  16.616  11.479   3.765 -0.1147 -0.0312  0.1640
22356W        W40560  14.825   2.076   0.909  0.2177 -0.1661  0.0791
22357W        W40561  12.639   2.143   3.446 -0.1803 -0.0793  0.1971
22358W        W40562  11.777   2.872  12.838  0.0074 -0.1116 -0.1449
22359W        W40563  10.600   2.856  15.855  0.1042 -0.0912 -0.1122
22360W        W40564   0.520  10.996  14.436 -0.2975 -0.0839  0.1131
22361W        W40565   6.313   1.982  12.714 -0.2881 -0.1231  0.0151
22362W        W40566   3.597   2.542   4.115  0.1596  0.0469 -0.3260
22363W        W40567  10.483  10.472  12.674  0.2415 -0.0399 -0.1317
22364W        W40568   1.828  12.864  15.086  0.0305 -0.1599 -0.0581
22365W        W40569   0.732  13.407  16.072  0.1183  0.0828  0.0825
22366W        W40570   8.666  14.909   0.622  0.2614  0.0716 -0.1249
22367W        W40571   5.192   9.541   2.780 -0.2112  0.2230 -0.2838
22368W        W40572   1.956   0.809   3.274  0.1708 -0.1248  0.0241
22369W        W40573   3.508  11.336  14.047  0.0640 -0.0188  0.0064
22370W        W40574   5.369  13.074  14.016  0.0392  0.0465  0.1469
22371W        W40575   3.757   9.894  15.396 -0.2122 -0.0068 -0.2221
22372W        W40576   0.148   7.156  14.160 -0.0037 -0.1180  0.1771
22373W        W40577  10.648  17.074   0.929  0.0303 -0.3167 -0.0485
22374W        W40578  11.056   1.271   0.982  0.1616  0.2348 -0.1613
22375W        W40579   0.484   2.974  15.871 -0.1226  0.0923 -0.0527
22376W        W40580   6.288  13.498  13.082 -0.1066  0.1381  0.2433
22377W        W40581  14.057   4.311   3.359  0.1932 -0.0836 -0.0550
22378W        W40582   0.799  10.241   3.450 -0.0446 -0.2917 -0.0191
22379W        W40583   4.876   2.965   4.390  0.0465 -0.1455  0.2551
22380W        W40584  13.546   5.158  17.176  0.2789 -0.0029  0.0157
22381W        W40585   0.671  14.319   3.090  0.0609 -0.1562 -0.1287
22382W        W40586   8.784   4.804   4.525  0.0275  0.1216  0.1019
22383W        W40587   7.968   2.155   4.970  0.1404 -0.3167  0.2162
22384W        W40588  11.440  14.463   2.627  0.0942  0.1488  0.2578
22385W        W40589   5.748  13.514  15.249 -0.0877 -0.2553  0.0555
22386W        W40590   3.553  13.166   3.938  0.0787 -0.1736 -0.2217
22387W        W40591   5.179  12.095   1.550  0.2371  0.1490  0.2335
22388W        W40592   3.994   0.941   5.706 -0.0854  0.1221 -0.2367
22389W        W40593  14.722   3.363  17.423 -0.1092  0.2040  0.2871
22390W        W40594   2.297   0.866   4.694  0.0772 -0.1979  0.0006
22391W        W40595   6.991   3.572  15.624  0.0140  0.2165  0.0209
22392W        W40596   4.378  12.292  16.615 -0.1646  0.0307 -0.2910
22393W        W40597   3.325  13.517  13.627 -0.2262 -0.0171 -0.0562
22394W        W40598   3.511  14.685   4.670 -0.2235  0.2164 -0.2240
22395W        W40599   0.291   7.786  13.017 -0.1460  0.1485 -0.0404
22396W        W40600   9.165   0.624  15.085 -0.0863 -0.2136 -0.1528
22397W        W40601   2.483   3.201  13.024 -0.1892 -0.1612  0.0163
22398W        W40602   1.379  10.040   4.552  0.2630  0.1004 -0.0903
22399W        W40603   3.418   1.418   1.184  0.0533 -0.3362  0.2130
22400W        W40604   6.713  13.202  17.108  0.0882  0.2283 -0.0858
22401W        W40605  15.558  15.131  14.984  0.1251  0.1543  0.0223
22402W        W40606   7.263  16.965   2.467 -0.3244  0.0270  0.3235
22403W        W40607  12.922   0.502   0.518  0.1608 -0.2128  0.4053
22404W        W40608  16.718   9.723  15.213  0.1093  0.1001  0.2284
22405W        W40609   0.565  11.043   4.224 -0.0306  0.1202 -0.1795
22406W        W40610   7.371  11.637   4.311 -0.2710 -0.0547 -0.0889
22407W        W40611   9.773  12.010   1.776  0.0435  0.0487 -0.0360
22408W        W40612   8.572   9.184  16.202 -0.1066 -0.1804  0.2985
22409W        W40613  13.467   0.624  14.609  0.0971  0.0337 -0.0159
22410W        W40614   0.085   6.072   0.705  0.2317 -0.1988 -0.2019
22411W        W40615   6.291  12.507  14.363 -0.0827 -0.2950 -0.2380
22412W        W40616   9.144  12.311  12.458 -0.0798  0.0423  0.0633
22413W        W40617   9.690  10.032  13.250  0.1032  0.1938  0.2262
22414W        W40618   3.423   3.169  14.032  0.1221  0.1476  0.3937
22415W        W40619   5.231   5.380   3.524 -0.0021 -0.0576  0.1275
22416W        W40620   6.132   9.161  14.152 -0.0420  0.2326  0.0761
22417W        W40621   6.817   5.545   2.805  0.0827  0.0173  0.0038
22418W        W40622   4.989  16.191   1.049 -0.1825 -0.1579 -0.2643
22419W        W40623   0.724   5.640  14.420 -0.2576  0.0571 -0.2987
22420W        W40624  15.648   5.492   4.732 -0.0834 -0.1278 -0.1098
22421W        W40625  14.471   3.268   1.298  0.1190 -0.0250 -0.3627
22422W        W40626  16.310  12.353  14.701 -0.1006  0.0145 -0.1153
22423W        W40627   5.059   5.717  16.944  0.1516  0.1344  0.0352
22424W        W40628  15.900   6.654   0.638 -0.3112 -0.2581 -0.1459
22425W        W40629   6.740   1.752   0.573 -0.2579  0.2719 -0.1330
22426W        W40630  15.972   4.346   4.513  0.0576 -0.0495 -0.0022
22427W        W40631   6.079   3.954   4.041  0.1747 -0.2388  0.0927
22428W        W40632  10.790   0.994  12.819 -0.3262 -0.1078 -0.0990
22429W        W40633   0.283  11.723  16.864 -0.0385  0.3423 -0.1353
22430W        W40634  11.954  10.376   2.865  0.1010 -0.0615 -0.2274
22431W        W40635   1.739  15.940  16.061  0.0860  0.2901 -0.0523
22432W        W40636   5.619   0.806  16.573  0.1122 -0.2409 -0.0812
22433W        W40637   3.395   7.991   4.188 -0.1068  0.0313 -0.1084
22434W        W40638   6.797   3.983  15.268  0.0050 -0.1712 -0.1139
22435W        W40639   8.795   2.351   0.823  0.1423  0.0882 -0.2025
22436W        W40640  15.028  12.423  14.918  0.0180  0.1455 -0.2983
22437W        W40641   2.250   4.258   4.910 -0.0229 -0.0582  0.1202
22438W        W40642  13.272   5.846   2.197  0.1038 -0.2092  0.2101
22439W        W40643   4.612   4.178   4.802  0.0390 -0.0196 -0.1809
22440W        W40644   2.191   2.937   1.918  0.3502 -0.2546 -0.1581
22441W        W40645  15.026   2.286  12.996 -0.2051  0.1750 -0.4154
22442W        W40646  11.896   3.574   1.739  0.2159 -0.3033 -0.1853
22443W        W40647  11.083   9.754   5.198  0.0207  0.1991 -0.0664
22444W        W40648   8.159  16.307   1.608  0.0948  0.1104 -0.0090
22445W        W40649  10.241   8.788  13.386  0.0423 -0.0711  0.3348
22446W        W40650   1.397   3.954  12.703  0.2147  0.1609  0.1647
22447W        W40651   4.864   9.235  15.645 -0.2498  0.1172 -0.0062
22448W        W40652   2.323   1.212  12.520  0.3641 -0.1325  0.0544
22449W        W40653   2.093   5.805   0.761 -0.1134 -0.0627  0.4273
22450W        W40654   5.775   3.964   1.911  0.1413  0.2644 -0.1017
22451W        W40655   0.975  15.990  13.688 -0.2220  0.0775 -0.1011
22452W        W40656   5.887  15.722  17.450 -0.2209 -0.0477  0.1458
22453W        W40657   4.591   5.800  13.788  0.0048 -0.0226 -0.0197
22454W        W40658  16.543   1.099  16.012 -0.2527  0.0576 -0.0366
22455W        W40659  16.601   6.315  15.159  0.0754 -0.1680  0.1421
22456W        W40660  11.147   0.962   0.505  0.1380 -0.1305  0.0574
22457W        W40661   9.862   5.255   2.985  0.1862 -0.2464  0.1291
22458W        W40662   1.319   4.759  17.429 -0.0641  0.0678 -0.0107
22459W        W40663   7.181  12.306   1.670 -0.3119 -0.2076 -0.0990
22460W        W40664  10.164  14.613  16.194 -0.1772 -0.3781 -0.1745
22461W        W40665  10.989  11.670   2.968 -0.0769 -0.2619 -0.1726
22462W        W40666   5.613   3.746   3.045 -0.2788 -0.1368 -0.0662
22463W        W40667  14.377   8.031  16.660  0.1871 -0.1328  0.1000
22464W        W40668   5.409  12.083   3.876 -0.1028  0.0779 -0.0966
22465W        W40669   5.889   5.249   0.403  0.0887 -0.0387 -0.2792
22466W        W40670   2.301   8.062   4.887 -0.0555  0.0102 -0.1982
22467W        W40671  17.297  16.525  12.882 -0.0921  0.2557 -0.2100
22468W        W40672   8.065  14.123  12.485  0.1780 -0.0570  0.0616
22469W        W40673   5.645   3.551   3.533  0.0582  0.1597 -0.1235
22470W        W40674   2.799   2.008  12.293  0.3531  0.1087 -0.0148
22471W        W40675  15.295  11.512   2.175  0.4825 -0.1128 -0.0726
22472W        W40676  16.154  14.720   0.293 -0.0368 -0.2403  0.0982
22473W        W40677   3.169  16.399  14.250 -0.3163  0.3448 -0.2075
22474W        W40678  15.043  12.411   4.571 -0.0461 -0.0705  0.0269
22475W        W40679  12.279  16.381   3.623  0.2442 -0.1609 -0.1750
22476W        W40680   5.921  12.707  17.382 -0.0238 -0.0762 -0.1004
22477W        W40681   4.563  13.872  15.775 -0.0504 -0.3358  0.0148
22478W        W40682   8.906   4.082  15.032  0.0413 -0.1352  0.1395
22479W        W40683   9.405   1.078   3.908  0.2141  0.0025  0.2319
22480W        W40684   1.438   4.041  13.461  0.3198 -0.2973  0.0082
22481W        W40685   6.977   5.752  14.520  0.1681 -0.3519 -0.1595
22482W        W40686   8.235  10.301  12.329 -0.0996 -0.3854 -0.1294
22483W        W40687  10.794  14.195   4.078 -0.0248  0.1100  0.2028
22484W        W40688   5.603  10.811   4.605  0.2340  0.2771  0.0367
22485W        W40689  16.453   1.097  17.153 -0.0499  0.1358 -0.1016
22486W        W40690   2.368  12.730   2.408 -0.1204  0.5385 -0.0952
22487W        W40691   9.192   0.150   4.103  0.0252  0.1084 -0.0477
22488W        W40692   9.812   2.646   5.108  0.0899 -0.1980  0.0837
22489W        W40693   3.458   0.413   0.567 -0.2202  0.0122 -0.3834
22490W        W40694  16.302  16.451   4.010  0.0699 -0.1840  0.2276
22491W        W40695   0.173   5.931  16.798 -0.1267  0.0315 -0.1475
22492W        W40696  11.728   4.212  17.126 -0.6284  0.1354 -0.0181
22493W        W40697   0.246   8.074   0.563  0.1621 -0.0070  0.0025
22494W        W40698   0.781  10.824   1.758  0.1866  0.0715  0.0234
22495W        W40699   0.294  13.756   2.983  0.0887 -0.0630  0.0295
22496W        W40700  13.542   4.406   3.499  0.3180 -0.0290 -0.2188
22497W        W40701  10.527   9.095  13.648  0.0446  0.2713 -0.3964
22498W        W40702  16.775   1.333  12.773  0.0372  0.0328  0.0451
22499W        W40703  10.055   6.650   3.252  0.1475  0.0116 -0.0014
22500W        W40704   7.998  10.225  12.803 -0.0550 -0.0621 -0.1230
22501W        W40705  14.661  15.834   4.943 -0.1603  0.1194  0.3401
22502W        W40706  14.810  14.358  12.461 -0.0867  0.0101 -0.1737
22503W        W40707  15.375  16.827   4.926  0.5882  0.2179 -0.5496
22504W        W40708  13.400   2.733   1.987 -0.1903  0.1949 -0.1646
22505W        W40709   6.248   0.692   0.909  0.0247 -0.0179 -0.0414
22506W        W40710  14.910  10.216  15.029  0.0894 -0.0264 -0.2114
22507W        W40711  16.994  11.727  13.783  0.1678  0.1989  0.3000
22508W        W40712   5.046  11.439  14.094  0.2519 -0.2611 -0.0447
22509W        W40713   9.494  13.969  14.246  0.1276  0.1808  0.0810
22510W        W40714  12.181   8.390   0.510 -0.2887  0.2489 -0.1345
22511W        W40715  15.201   6.459   5.703 -0.1940  0.1220 -0.0652
22512W        W40716  14.893  11.285  15.910  0.0804 -0.1357 -0.2784
22513W        W40717  14.252  14.148  16.086 -0.0197 -0.0719  0.2705
22514W        W40718   9.099   3.736   2.198 -0.0821 -0.0698  0.1242
22515W        W40719  17.083  13.382   2.360  0.1034 -0.1072 -0.1691
22516W        W40720  12.766   2.813  13.513  0.1626  0.1341 -0.0959
22517W        W40721   9.728   9.277  13.230 -0.2927  0.0470  0.3464
22518W        W40722   6.266   4.032   4.625 -0.0196  0.1463 -0.1790
22519W        W40723   8.715  15.134   1.986  0.0850 -0.1616 -0.3196
22520W        W40724  10.866  14.334   1.660  0.0885  0.0765 -0.0078
22521W        W40725   9.172  16.535  13.739 -0.2430 -0.1107  0.1161
22522W        W40726   7.096  10.260   2.669 -0.0620  0.1379  0.0363
22523W        W40727   4.647  12.605  17.047  0.2481  0.0615  0.1537
22524W        W40728   6.174  15.971  14.074 -0.1258 -0.0637  0.2037
22525W        W40729   1.474   0.707   1.909  0.3169 -0.0345 -0.1582
22526W        W40730  16.951  11.583   5.410  0.1700 -0.0715  0.0743
22527W        W40731   6.587   4.038   0.091  0.1604 -0.1528 -0.0239
22528W        W40732   6.723   8.527   2.511 -0.1173 -0.0663  0.0821
22529W        W40733   3.486   2.373  15.369  0.3433  0.1281 -0.0806
22530W        W40734   3.311  10.699  17.159 -0.0375 -0.3367  0.1663
22531W        W40735   0.853   8.557  14.625 -0.0782 -0.0568 -0.0730
22532W        W40736  12.328  15.061   3.209  0.1236 -0.0662 -0.0616
22533W        W40737   3.251   9.603  12.921 -0.0103  0.1492  0.1583
22534W        W40738  16.228  15.996   1.834 -0.1976  0.0579  0.2027
22535W        W40739   1.819   9.645   2.347 -0.1445  0.0083 -0.1104
22536W        W40740  15.940  10.634  16.743 -0.1412 -0.1057  0.1776
22537W        W40741  12.857  11.758  12.770  0.0150  0.4824 -0.1929
22538W        W40742  14.022   8.509  15.111 -0.1140 -0.0807 -0.0976
22539W        W40743   9.387  14.820  13.717 -0.0013  0.1938  0.0465
22540W        W40744   8.615   1.784  16.649 -0.1201  0.1585  0.2979
22541W        W40745  11.828   7.299  16.246  0.2223  0.0958 -0.0350
22542W        W40746  17.181  12.121  15.746  0.0344  0.0961  0.1487
22543W        W40747   7.164  15.742  13.813 -0.1306  0.0116  0.1785
22544W        W40748  11.816   3.255   4.679  0.0816 -0.0612  0.1850
22545W        W40749  13.866  17.162  12.626  0.0262  0.2009 -0.2754
22546W        W40750  17.029  15.506  15.217  0.3441 -0.3677  0.0217
22547W        W40751   9.860   2.668   2.205 -0.1504 -0.1141 -0.2136
22548W        W40752   3.622   4.105   1.044  0.3022 -0.1491 -0.0409
22549W        W40753   8.370   0.427   2.561 -0.2361 -0.0058 -0.1209
22550W        W40754   2.765   6.986   4.175 -0.3072 -0.1939  0.1192
22551W        W40755  12.830  15.890   1.339 -0.2560 -0.1762 -0.1415
22552W        W40756  11.934   5.750  15.052  0.1067 -0.1681 -0.0710
22553W        W40757   8.055  12.256  16.700 -0.1301  0.1259  0.0188
22554W        W40758   8.038  10.268  14.090 -0.2728 -0.0912  0.2699
22555W        W40759  10.651  15.945  13.209 -0.3656 -0.0361 -0.1213
22556W        W40760   7.512   7.592  14.915 -0.2043  0.0117  0.0062
22557W        W40761   2.291   0.300  12.994 -0.0216 -0.0193 -0.1021
22558W        W40762  13.080  15.087   3.688 -0.1410 -0.0251 -0.2984
22559W        W40763   1.402  14.377   3.528 -0.1107 -0.0114 -0.2810
22560W        W40764  14.215  12.871   1.900  0.0347 -0.0560 -0.0803
22561W        W40765  11.161  13.250  13.751 -0.1832 -0.0165  0.0477
22562W        W40766  13.104   8.826  15.681  0.2189 -0.0960 -0.0863
22563W        W40767   6.564   3.836  14.010 -0.2064 -0.2445  0.2762
22564W        W40768  13.928   2.310  13.130 -0.1230  0.0393 -0.1082
22565W        W40769   8.258  14.433   0.335  0.0702  0.2144 -0.0160
22566W        W40770  14.813   1.176  14.228 -0.1549 -0.0966 -0.0430
22567W        W40771   8.389   4.361   3.937  0.3760  0.0092 -0.0193
22568W        W40772   5.316  15.011  17.510  0.0199  0.0335 -0.2076
22569W        W40773  16.236   3.303  15.680  0.1022 -0.0198 -0.1408
22570W        W40774   7.380  15.298  14.046 -0.1165  0.1713  0.0636
22571W        W40775   7.486  13.880   2.403  0.0145 -0.2700  0.0635
22572W        W40776  10.781  16.564   3.817  0.1124 -0.0305  0.2093
22573W        W40777   8.799   2.767   3.078 -0.2702 -0.0912 -0.2405
22574W        W40778  17.199  10.180   1.039  0.2841  0.0990  0.0959
22575W        W40779   4.701  16.139  12.607  0.2272  0.0176 -0.1645
22576W        W40780   7.524  13.211  16.397  0.0074  0.1268  0.1411
22577W        W40781  16.961   1.714   3.689  0.0244 -0.0474  0.1401
22578W        W40782   6.796   0.496   3.055  0.0376 -0.1115  0.0415
22579W        W40783   3.473  12.375   4.997 -0.3125 -0.0751  0.1042
22580W        W40784   9.784   1.508   4.167 -0.1507 -0.3384  0.0069
22581W        W40785  15.205  12.664  16.608  0.2585  0.1887  0.0415
22582W        W40786  15.087   3.601  13.242 -0.2950  0.1536 -0.0311
22583W        W40787   0.740  15.488   0.783 -0.3085 -0.3127 -0.3123
22584W        W40788  14.416  12.598   2.409 -0.1775 -0.0248  0.0856
22585W        W40789  12.413  13.881   5.066 -0.2806  0.0824  0.1614
22586W        W40790  10.349  14.054   0.426  0.2500 -0.0031 -0.0867
22587W        W40791  15.634   7.377  12.682  0.2019 -0.0090 -0.0105
22588W        W40792  10.315   2.266   1.374 -0.0703  0.0190  0.0828
22589W        W40793   1.860  10.952  13.711 -0.1446 -0.0649 -0.0469
22590W        W40794   6.315   0.280  12.317 -0.2340 -0.0909  0.1540
22591W        W40795   8.803  16.514   2.217 -0.0308 -0.0752  0.3487
22592W        W40796  12.877   6.653  13.632  0.1158 -0.0955 -0.1070
22593W        W40797   2.384   2.778   4.988  0.2210  0.1873 -0.1408
22594W        W40798   7.305  12.772   1.375 -0.2740  0.1687  0.0372
22595W        W40799   5.503  16.723  12.856 -0.1118  0.0781  0.1204
22596W        W40800  14.334  11.604   0.791  0.0175  0.0571  0.1588
22597W        W40801   1.503   4.891  14.623 -0.1620  0.1432 -0.2835
22598W        W40802  15.786   2.724   5.339 -0.0965  0.0374  0.1516
22599W        W40803   5.767  14.740   4.429 -0.0839 -0.1847 -0.0011
22600W        W40804  16.115   5.242   1.463  0.1423 -0.0686 -0.0626
22601W        W40805   1.898  17.008   0.427  0.1874  0.4918  0.0483
22602W        W40806   1.580  13.552  12.254  0.0329 -0.1479  0.1533
22603W        W40807   3.719   6.227   0.179 -0.0777 -0.1872  0.1642
22604W        W40808   0.219   2.015  16.233  0.0460  0.0962  0.1542
22605W        W40809   2.094  11.820  13.916 -0.0401 -0.0679  0.2213
22606W        W40810   8.605   5.663  14.650 -0.0930 -0.0935 -0.0815
22607W        W40811   8.609   2.383  14.246 -0.4339  0.0422  0.0194
22608W        W40812   2.002   4.565   1.721 -0.1481 -0.1773 -0.2053
22609W        W40813  10.997   9.930   3.478  0.1135 -0.1131  0.1577
22610W        W40814  11.016   0.676  13.867 -0.2716 -0.0906 -0.0325
22611W        W40815  11.676   0.994  16.980  0.0140 -0.0508  0.1528
22612W        W40816   2.157   0.386  15.360  0.1707 -0.2453  0.2102
22613W        W40817   2.300   2.057   3.974 -0.0074  0.3289 -0.3073
22614W        W40818  15.490  13.477  17.023  0.1256 -0.1496 -0.2042
22615W        W40819  17.111   7.183   0.159 -0.2125  0.1982 -0.0829
22616W        W40820  17.155  12.505   3.693  0.0020 -0.3676  0.1271
22617W        W40821   8.517   6.740  13.709 -0.0196 -0.2502 -0.1908
22618W        W40822   8.559  10.593   2.785  0.0855  0.1829  0.1714
22619W        W40823   7.221  13.196   0.464  0.2911 -0.0254  0.0239
22620W        W40824   0.674  12.958   2.873  0.1797  0.1008  0.0531
22621W        W40825  16.046   7.127  12.482 -0.1050 -0.3950 -0.1823
22622W        W40826  16.261  10.850  13.357 -0.1871  0.0376 -0.1302
22623W        W40827   8.296   3.013   4.652  0.0364 -0.3745 -0.2090
22624W        W40828   7.709   1.542   0.390  0.3606  0.0283  0.0001
22625W        W40829  16.086   9.025   4.850 -0.1630 -0.0416 -0.1627
22626W        W40830   9.399  11.083   3.702  0.2442  0.1505  0.0989
22627W        W40831   5.524   8.191   0.062  0.1935 -0.2798  0.0687
22628W        W40832  15.361   5.065   4.517 -0.1823  0.2696  0.0884
22629W        W40833  12.005  11.094  13.495 -0.1388  0.0982  0.3464
22630W        W40834  11.639   7.516   3.035  0.2317 -0.1354  0.2474
22631W        W40835   2.617  10.098  13.112 -0.0602  0.3239 -0.0636
22632W        W40836   7.492  16.647   4.787  0.0936  0.0499 -0.0941
22633W        W40837   9.677   6.903   0.548  0.0913  0.2215  0.0385
22634W        W40838  16.283   9.369   6.227 -0.1996 -0.0296 -0.1091
22635W        W40839   8.380  13.638  15.161  0.2425  0.2808 -0.1377
22636W        W40840   7.639   8.615  14.573 -0.1655  0.0688  0.3474
22637W        W40841  15.149   4.061   1.784  0.1754  0.0241  0.1617
22638W        W40842   7.315   2.227   0.129 -0.1436  0.1934 -0.2804
22639W        W40843  10.938  11.661   1.615 -0.0837 -0.0581  0.0766
22640W        W40844   4.440  12.090  13.260 -0.2534 -0.1007 -0.4298
22641W        W40845   8.703   2.323  16.739  0.2329  0.3699 -0.4128
22642W        W40846  12.374   5.166   3.894  0.0408  0.1234 -0.0612
22643W        W40847   4.704   9.195  15.156  0.1054  0.1867  0.0681
22644W        W40848  12.777  10.448  12.524  0.3436  0.0247  0.0099
22645W        W40849  13.820   9.146  15.834  0.1373  0.1213 -0.0983
22646W        W40850   6.685  16.941   4.144 -0.5396  0.0185 -0.2532
22647W        W40851  16.910  16.451   3.422  0.2069  0.0540  0.1572
22648W        W40852   1.600  16.981   0.033  0.0540  0.0548  0.2753
22649W        W40853   0.578  11.747   3.013 -0.1170  0.0491  0.0682
22650W        W40854  10.443   4.308   1.509  0.0169 -0.1479  0.0381
22651W        W40855   5.988   2.764  15.393  0.0352 -0.0153  0.2343
22652W        W40856   7.489  13.724  15.051  0.1511  0.0758 -0.0656
22653W        W40857  10.617   4.847  12.501  0.1585 -0.4436  0.2224
22654W        W40858   9.827   9.338   3.506  0.0544 -0.0759  0.2244
22655W        W40859  16.134   6.007   3.633 -0.0608 -0.2072 -0.1468
22656W        W40860   7.544   4.341   4.839  0.1766 -0.3323 -0.0233
22657W        W40861  13.142   1.425   1.042 -0.0975  0.1218 -0.0067
22658W        W40862   1.218  15.768   4.057  0.4496 -0.1588 -0.0483
22659W        W40863  11.765   1.484  16.072  0.0134 -0.0359  0.0951
22660W        W40864  13.864   4.371   5.358 -0.3616 -0.3425  0.4669
22661W        W40865  10.317  12.597  16.861  0.2283 -0.0316  0.2002
22662W        W40866   0.912  14.609  15.914  0.1923 -0.0783 -0.2581
22663W        W40867   0.964   6.040  16.130 -0.0862 -0.3739  0.0992
22664W        W40868  16.626   0.889  14.635  0.0689  0.0156  0.1131
22665W        W40869   2.071  15.684   1.228 -0.0847  0.1718 -0.1162
22666W        W40870  16.644   1.881   2.473  0.0749 -0.0698 -0.2319
22667W        W40871  14.042  13.170  12.355  0.2160 -0.1116  0.1510
22668W        W40872   6.830   2.969   0.942  0.1835 -0.0655 -0.0077
22669W        W40873   7.555  10.380   0.174 -0.2906  0.0407 -0.0634
22670W        W40874   1.197  17.138   0.986  0.0236 -0.0968  0.1758
22671W        W40875   8.198  10.820  14.873  0.0009  0.0473 -0.0233
22672W        W40876   5.466   0.906  13.599  0.2722 -0.1981 -0.1192
22673W        W40877  11.844  16.875  17.401 -0.3325  0.0087  0.0295
22674W        W40878  12.716  16.975  13.037 -0.4270  0.1125  0.1611
22675W        W40879   7.410   3.582  12.420 -0.0963  0.0251 -0.1381
22676W        W40880  14.137  10.105  17.332 -0.1080  0.0736  0.1072
22677W        W40881   2.330  14.361  16.992  0.3412 -0.1189  0.1793
22678W        W40882  10.500   7.208   1.693 -0.1644 -0.2233  0.1491
22679W        W40883   6.052   6.178   4.343  0.0798  0.1636  0.2826
22680W        W40884   4.246  10.959   0.349  0.1686 -0.1905 -0.1489
22681W        W40885   2.386   2.369  16.357 -0.0009  0.0416  0.0231
22682W        W40886   8.396   6.753  17.052  0.0721  0.2621  0.0037
22683W        W40887  11.642  16.741   2.949 -0.1340 -0.1909 -0.0184
22684W        W40888   8.483   4.220  12.644 -0.0036  0.2600  0.1894
22685W        W40889   8.923  16.503   4.414  0.2416 -0.0295  0.0623
22686W        W40890   9.556   1.503   1.277  0.0665  0.1534  0.1074
22687W        W40891  12.338  13.589   4.599  0.1042  0.0452 -0.0120
22688W        W40892   8.259   3.394  13.437  0.0047 -0.2115  0.0271
22689W        W40893  10.844   7.263   0.446 -0.1142 -0.1600 -0.1307
22690W        W40894   9.472  15.900  14.372 -0.2622  0.3257  0.0503
22691W        W40895   7.977  15.881  13.939  0.1516  0.0849  0.1101
22692W        W40896   0.321  13.495   2.229  0.2191  0.0650 -0.0839
22693W        W40897   0.552   8.258  15.733 -0.1194  0.1709  0.5268
22694W        W40898   7.760   9.212   2.948  0.3055 -0.2110 -0.1654
22695W        W40899   9.224   0.465  14.270 -0.2497 -0.1280 -0.0973
22696W        W40900   2.098  14.648   4.987 -0.1966  0.0791 -0.2440
22697W        W40901  15.310   0.478  15.723  0.2390 -0.1624  0.1584
22698W        W40902  17.179   1.183  11.541 -0.0363  0.0252  0.1160
22699W        W40903  15.840   1.285  17.233  0.1032  0.0313 -0.0313
22700W        W40904  12.668   1.613   1.062 -0.0835 -0.1218  0.0658
22701W        W40905  15.324   2.773   0.289 -0.1978 -0.0826  0.0975
22702W        W40906   0.604   7.454  12.769 -0.1879  0.1110  0.1664
22703W        W40907  10.717  12.426  14.618 -0.2794  0.0615  0.1945
22704W        W40908  13.381   9.109   3.323  0.0782  0.0861  0.3285
22705W        W40909   1.297   8.232   3.720 -0.0234 -0.2035 -0.1763
22706W        W40910   6.115   6.551  12.478  0.0004  0.3901  0.2865
22707W        W40911   6.642   7.589   0.518  0.1057  0.3001 -0.0357
22708W        W40912   7.319   6.724   3.656  0.1178  0.3015 -0.1806
22709W        W40913  16.946   4.882  14.853 -0.0629  0.0760  0.0291
22710W        W40914   5.115  11.009  14.358 -0.0109  0.0546  0.0218
22711W        W40915  11.848  11.223   1.785  0.0699  0.0665  0.1718
22712W        W40916  15.974   7.715  16.534 -0.0965 -0.0534 -0.4362
22713W        W40917   8.932   6.838   2.137  0.2241 -0.2040 -0.3745
22714W        W40918   6.304  17.295  16.931  0.0136 -0.0552 -0.0589
22715W        W40919  16.700   3.013   1.130  0.1771 -0.1197 -0.0009
22716W        W40920   0.554   5.374  12.179  0.2049  0.0362 -0.1454
22717W        W40921  16.864   2.773  16.623 -0.0355  0.1056 -0.2123
22718W        W40922  10.840  14.594   1.184 -0.1769  0.2694 -0.0497
22719W        W40923   3.039  10.074   2.170  0.0822 -0.1284  0.0342
22720W        W40924   8.967   0.373  14.682 -0.2677 -0.0872 -0.0377
22721W        W40925   4.078   4.378   2.439 -0.0890  0.0171 -0.0012
22722W        W40926   1.444   6.957  14.775  0.1733  0.2072 -0.2254
22723W        W40927   3.455  12.742   5.441 -0.1506  0.0418 -0.0611
22724W        W40928   7.452  17.246   3.466 -0.2074 -0.1602 -0.2848
22725W        W40929  12.955   1.912   2.536  0.3106  0.3229  0.1077
22726W        W40930   1.616  10.556   5.223 -0.2013  0.2279  0.0231
22727W        W40931   1.204   3.200  17.435  0.2073  0.1539  0.1695
22728W        W40932  17.269  13.413  16.849 -0.1971  0.0549 -0.0196
22729W        W40933  16.430   4.437   1.948  0.0220 -0.0294 -0.3756
22730W        W40934   0.817   5.821  15.697  0.1367 -0.1156 -0.0444
22731W        W40935   6.071   2.876   0.587  0.0583 -0.1142 -0.1573
22732W        W40936  14.782   5.906   4.128  0.0940 -0.0692  0.2998
22733W        W40937  15.814   9.493  16.890 -0.2687 -0.0550 -0.1462
22734W        W40938   6.814  14.498  16.888  0.3927 -0.0370  0.1132
22735W        W40939   8.628  12.647   1.379 -0.1595  0.1267  0.0302
22736W        W40940   7.070   8.032  13.295  0.2706  0.2101  0.0396
22737W        W40941  12.547   7.627   1.571  0.3084  0.4034  0.0306
22738W        W40942   7.356   3.974   1.934 -0.2225  0.0729  0.0461
22739W        W40943  11.313  17.302  16.274 -0.2871  0.3384 -0.0936
22740W        W40944  16.835  11.141   4.064  0.0225  0.1136 -0.1579
22741W        W40945   4.354  10.980   2.078 -0.1479  0.2875  0.0364
22742W        W40946  10.221  13.358  15.330 -0.0239 -0.2658 -0.2421
22743W        W40947  14.939   8.333  17.331 -0.0702 -0.0199 -0.2190
22744W        W40948  13.949  13.702   1.704 -0.2118 -0.2126 -0.0303
22745W        W40949   8.338   8.059  16.412 -0.2050 -0.0617 -0.0609
22746W        W40950  15.521   1.599  13.590  0.4001  0.0359 -0.0065
22747W        W40951   1.760  15.730   0.129  0.1474 -0.0958 -0.1341
22748W        W40952   7.734   7.520  17.446 -0.1159  0.2906 -0.0582
22749W        W40953  12.361  11.280   1.708 -0.0694  0.0819  0.0325
22750W        W40954  14.870   2.027  16.669  0.1656 -0.2006  0.1661
22751W        W40955  11.075  12.895  14.714  0.0704 -0.1898 -0.0176
22752W        W40956   9.505   7.953  13.754 -0.1306 -0.0904 -0.1710
22753W        W40957   7.937   5.244   2.021 -0.0008 -0.1463 -0.0946
22754W        W40958   1.392   1.926   5.318 -0.0742  0.0486 -0.2651
22755W        W40959   9.811   8.400  15.898 -0.1233 -0.1718  0.2219
22756W        W40960   5.051  14.397  14.188 -0.1457  0.1521  0.0243
22757W        W40961   1.001  11.860  14.171  0.3281 -0.1697  0.0932
22758W        W40962   2.892   3.363  16.716  0.0789  0.3813  0.0199
22759W        W40963   8.619   3.875   4.910  0.0766  0.1948  0.1055
22760W        W40964  10.939  12.932   1.646  0.0254 -0.4364 -0.1409
22761W        W40965   8.478   8.551  16.205  0.0500  0.2144 -0.1043
22762W        W40966   8.801   9.038  14.811  0.1902  0.4038 -0.2801
22763W        W40967   6.727   8.457   1.526  0.0624 -0.1969 -0.2047
22764W        W40968   1.422   9.074  14.101  0.0666 -0.1236 -0.0455
22765W        W40969   4.550   5.679   4.037 -0.0959  0.1850  0.1282
22766W        W40970  16.505   4.486  15.029  0.0027  0.2192 -0.1341
22767W        W40971   4.589   2.473   2.497  0.0931 -0.2104  0.0326
22768W        W40972   0.453   3.237   3.171  0.0882  0.1420  0.0723
22769W        W40973   5.612   0.038  13.422 -0.1610  0.0299 -0.2884
22770W        W40974   5.546  17.244   0.957  0.0130  0.3065  0.0824
22771W        W40975   7.663  11.026   2.804  0.1263  0.0365  0.1372
22772W        W40976   1.699  10.312   3.209  0.0434  0.3933 -0.1707
22773W        W40977   9.405  11.013   0.922 -0.0047 -0.2136  0.0742
22774W        W40978   6.413   8.467  15.546  0.0039  0.2008  0.1840
22775W        W40979   5.422   3.555  15.289  0.1155  0.0375 -0.3173
22776W        W40980  14.547  15.288   3.949  0.1741 -0.0798  0.1889
22777W        W40981   0.661  14.594   2.653 -0.0994  0.0687  0.1196
22778W        W40982   0.053   5.181  12.119  0.0494  0.0491 -0.3091
22779W        W40983  16.725   0.348   1.796 -0.1846 -0.0528 -0.2464
22780W        W40984   9.918   2.464  14.607  0.0125 -0.1331 -0.1646
22781W        W40985   7.881  13.732  15.367  0.0467  0.2082 -0.3040
22782W        W40986  11.857  16.832  14.649 -0.0693 -0.0975  0.2654
22783W        W40987  15.145   8.990   5.475  0.4108 -0.0398 -0.1349
22784W        W40988  11.709   8.243   4.265  0.0666 -0.0450 -0.2818
22785W        W40989   5.335  16.196   3.068  0.0585 -0.0961  0.0250
22786W        W40990  14.962  12.855   0.441 -0.0660  0.2457  0.1280
22787W        W40991   2.946  10.878   5.661 -0.1503  0.1516  0.0697
22788W        W40992  14.235  14.192  14.595 -0.1676  0.0713  0.1215
22789W        W40993   2.118  10.745   1.817  0.0768  0.0180 -0.0629
22790W        W40994   5.622  16.567  15.077 -0.0502  0.1311 -0.0753
22791W        W40995   7.649  15.811   3.518  0.0688  0.0362 -0.1194
22792W        W40996   5.806   4.226   4.434  0.1449  0.1668  0.2366
22793W        W40997  11.189  12.058   1.772  0.0905 -0.0202  0.0825
22794W        W40998  13.694  16.194  17.390 -0.0394 -0.1908 -0.3442
22795W        W40999   4.655   0.223   3.429  0.1560 -0.0319  0.1231
22796W        W41000  16.740   1.489  13.296 -0.0547 -0.3542 -0.0125
22797W        W41001  15.874  10.424  17.327 -0.0779 -0.1733  0.0319
22798W        W41002   8.063   8.668  14.190  0.0563 -0.1692  0.0016
22799W        W41003  15.780  15.740   1.722 -0.0268 -0.0437 -0.2718
22800W        W41004  13.252   1.423  15.110 -0.1166  0.0333 -0.4004
22801W        W41005   7.630  15.283   4.328  0.3449  0.2290 -0.2722
22802W        W41006   1.059   0.192  13.303  0.0130  0.3084  0.2587
22803W        W41007   5.306   8.594  17.258  0.0920 -0.1616  0.1135
22804W        W41008   6.094   1.575  14.516  0.1930 -0.0911  0.1609
22805W        W41009  12.937   9.916  14.722  0.0629  0.2098 -0.0937
22806W        W41010  14.645  12.751   4.561  0.0914  0.0516 -0.0470
22807W        W41011   8.652   7.620  13.062  0.0755  0.0522  0.2657
22808W        W41012   9.474   9.748  16.165 -0.1849 -0.0318  0.0124
22809W        W41013   1.048  14.362   5.040 -0.0778  0.1264 -0.0283
22810W        W41014  12.178  10.541   5.244 -0.4145 -0.0762 -0.1618
22811W        W41015   8.629  13.437   1.355 -0.2913  0.1357  0.0462
22812W        W41016   9.610  14.910  15.622  0.2041 -0.1258  0.1884
22813W        W41017   9.897   9.698  13.575  0.1303 -0.0681  0.0967
22814W        W41018   8.668  16.710  14.740  0.2136  0.0461  0.2320
22815W        W41019   8.045  16.745   4.618 -0.4006  0.1195 -0.1355
22816W        W41020   5.920  16.544  15.946 -0.1048  0.1253  0.0273
22817W        W41021   4.741   5.347   3.284 -0.0002 -0.1796  0.1049
22818W        W41022   8.589   5.885  13.259 -0.0358 -0.0415  0.1108
22819W        W41023   1.274  12.732   5.733 -0.0834  0.2741 -0.4143
22820W        W41024   9.945   3.677  15.562  0.2016  0.0525  0.2087
22821W        W41025  10.440  13.221  16.375  0.0393 -0.1243 -0.2215
22822W        W41026   0.020   3.014  16.936 -0.1682 -0.1895  0.1910
22823W        W41027   6.428   2.820   2.929  0.0312  0.0867 -0.0097
22824W        W41028  16.419  10.049   1.418 -0.1267  0.0675  0.2387
22825W        W41029   1.282  14.615   2.588  0.0314 -0.1061 -0.3615
22826W        W41030   3.065   7.059  14.854  0.0646  0.0264  0.2206
22827W        W41031   7.597   5.295   4.928 -0.0623  0.1162  0.1384
22828W        W41032  16.152   9.162  12.652  0.0346  0.0764  0.2140
22829W        W41033  14.254  11.727  13.340 -0.0470 -0.0545  0.0281
22830W        W41034   5.457  10.185   1.673 -0.0335 -0.0345 -0.0369
22831W        W41035  11.420  11.908  12.388  0.1182  0.2157 -0.0474
22832W        W41036  11.074  10.666  13.253 -0.2922  0.0826 -0.0892
22833W        W41037   7.655  14.222  12.786  0.0109 -0.3970 -0.2326
22834W        W41038   9.616   4.411   1.778 -0.1580  0.0194  0.0794
22835W        W41039  14.796  10.122   1.056  0.2860  0.0469  0.2240
22836W        W41040   5.644   4.606  12.860  0.0072 -0.1667  0.1617
22837W        W41041  12.206   0.066  12.497 -0.0096  0.3815 -0.1432
22838W        W41042   0.760   3.720  16.511  0.0673  0.0046  0.1690
22839W        W41043   3.179   0.186  17.351 -0.0423  0.1663  0.0116
22840W        W41044   0.523  10.132  16.811 -0.3459 -0.1717  0.1938
22841W        W41045   9.110  14.386   0.968  0.3929  0.0916 -0.0415
22842W        W41046   2.608   6.545  15.990  0.0966  0.0289 -0.0310
22843W        W41047   2.809   4.930   2.922  0.2897 -0.0873 -0.0609
22844W        W41048  10.906   0.213  15.410  0.0212 -0.1634 -0.0596
22845W        W41049   1.869  11.759   0.854 -0.0248  0.1716  0.0999
22846W        W41050   1.022   3.587   1.659 -0.1364 -0.2836 -0.0295
22847W        W41051  12.059   5.678   1.555  0.2303  0.1825 -0.2394
22848W        W41052   3.114  16.981  13.140 -0.2026 -0.0728  0.0598
22849W        W41053   3.477   7.151  14.532 -0.0805  0.1121 -0.1640
22850W        W41054  11.283  16.181  14.380 -0.0404  0.1064 -0.0806
22851W        W41055   1.704   4.455  17.432 -0.4183  0.4057 -0.0764
22852W        W41056  12.121   5.636   2.889 -0.1922  0.0496  0.0278
22853W        W41057  14.687   5.997  14.430 -0.0528  0.0472 -0.0551
22854W        W41058  17.262   4.122  13.281  0.0303 -0.0857  0.0699
22855W        W41059  13.665  14.297   4.087 -0.1410  0.0397  0.2557
22856W        W41060  12.630  14.143  15.949 -0.0375 -0.2080 -0.2350
22857W        W41061  14.066  15.481  16.443  0.1200  0.0129  0.2397
22858W        W41062  11.481   6.792  17.167 -0.1400  0.1250 -0.0594
22859W        W41063   6.692   7.501  17.390 -0.0654  0.1325  0.0008
22860W        W41064   1.419   8.431   0.320  0.6271 -0.0864  0.2242
22861W        W41065  16.787   8.579   3.799 -0.0101 -0.0066  0.0119
22862W        W41066   6.876   9.537   4.769  0.1473 -0.0825 -0.1276
22863W        W41067   0.119   4.759  15.622  0.0052 -0.1387 -0.3222
22864W        W41068  12.634   2.136   0.970  0.0299  0.0413  0.0655
22865W        W41069  12.911   2.976  16.370  0.2866  0.0234  0.0549
22866W        W41070   0.900   8.868  17.066 -0.0555 -0.0846  0.1300
22867W        W41071   9.914  15.358  16.665  0.2290 -0.1182 -0.1147
22868W        W41072   4.946  12.126   3.501  0.0281  0.1367 -0.0287
22869W        W41073   9.935   4.035  16.375  0.0850 -0.1736  0.1100
22870W        W41074  10.691   7.143  12.525 -0.4727 -0.0634  0.1211
22871W        W41075  13.125  11.392   4.683  0.1017 -0.0052  0.1318
22872W        W41076   5.603  16.543   3.568  0.0683  0.0297 -0.0809
22873W        W41077  11.614  10.514   4.547 -0.1130 -0.2332 -0.0782
22874W        W41078   1.564   8.437  16.496  0.1938  0.1520  0.1037
22875W        W41079  15.767   8.040  16.149 -0.1007  0.1858 -0.0854
22876W        W41080  17.189   3.707   3.517 -0.0983  0.1894  0.0274
22877W        W41081   4.914   0.583   1.330 -0.0159  0.1273 -0.1848
22878W        W41082   0.710  16.221  12.420  0.2439 -0.0558 -0.3819
22879W        W41083   8.799  16.888  17.447 -0.0259  0.3540  0.1627
22880W        W41084   4.335  16.274  17.129  0.0354 -0.0573  0.0959
22881W        W41085   2.157   5.137   0.304 -0.2028 -0.1423 -0.2400
22882W        W41086  10.562   6.871   0.630  0.0050 -0.1842  0.0427
22883W        W41087   2.716  11.724  11.706  0.1441 -0.1756 -0.1493
22884W        W41088   5.140  16.649   5.665  0.0751 -0.0331 -0.3981
22885W        W41089  15.893  10.204   1.338  0.2949 -0.1410  0.1432
22886W        W41090   7.601   6.644  16.929  0.0888 -0.1952 -0.0614
22887W        W41091   7.031   9.638  15.871  0.2312 -0.2205  0.0039
22888W        W41092  11.111  12.433   0.657 -0.0868 -0.1157 -0.2589
22889W        W41093  16.756   2.056   4.541 -0.1425  0.0850 -0.1694
22890W        W41094   1.802   6.055  12.963 -0.1360  0.0813  0.2160
22891W        W41095   8.156   0.918   4.597  0.1206  0.0245 -0.1610
22892W        W41096   3.876  10.450  16.322 -0.2492 -0.0590  0.1973
22893W        W41097  13.872   1.254  13.836 -0.3521  0.0649  0.2772
22894W        W41098  13.550   2.904   0.038 -0.1780 -0.1506 -0.0904
22895W        W41099  13.612   4.137  12.600 -0.1136  0.4310  0.1843
22896W        W41100   2.326   5.859  16.295 -0.2627  0.0643  0.1149
22897W        W41101   0.176   7.152   2.764  0.0569 -0.2760 -0.1999
22898W        W41102  13.052   5.301   0.764 -0.2110  0.0693 -0.2935
22899W        W41103  16.590  12.474   2.086  0.2386  0.0175  0.0706
22900W        W41104   5.535   0.091  15.614 -0.4290 -0.0239 -0.0025
22901W        W41105  13.352   0.792   1.143  0.0302 -0.1111 -0.0697
22902W        W41106  11.690   8.995  15.131  0.1943  0.0577 -0.1742
22903W        W41107   6.451  12.201   4.863 -0.0364  0.1641 -0.1811
22904W        W41108  14.843  12.892  16.936  0.0133  0.0971  0.1766
22905W        W41109  13.791  14.227  15.735 -0.0240  0.0451 -0.0572
22906W        W41110   0.412   0.625   4.870 -0.2715  0.1236 -0.0552
22907W        W41111  13.865  13.331   1.100  0.1210 -0.2027  0.0077
22908W        W41112  12.207   7.761  13.410  0.1052  0.0459 -0.1815
22909W        W41113   0.459  16.132  16.546  0.0276  0.1132  0.0417
22910W        W41114   8.249   5.671  12.769 -0.2138 -0.2232  0.1255
22911W        W41115   7.614  10.718   5.291 -0.0981  0.1218  0.2270
22912W        W41116  12.420  14.566  15.800 -0.0243  0.2723 -0.0628
22913W        W41117  14.187   1.181  17.143 -0.0563  0.0649  0.0981
22914W        W41118  15.629  11.489   5.118 -0.0246  0.0797  0.1132
22915W        W41119   7.348   4.745  12.626 -0.1834 -0.0383 -0.0645
22916W        W41120  12.027  14.515   3.359 -0.0234  0.1316  0.0087
22917W        W41121   1.275   0.750  16.444 -0.1764  0.0840  0.0678
22918W        W41122   4.668  15.737   4.765 -0.0496 -0.0916  0.2712
22919W        W41123   6.387  14.403   1.468  0.2019  0.2200  0.1255
22920W        W41124  14.114  12.124  13.634  0.0052 -0.1574 -0.2598
22921W        W41125   8.047  15.811  12.774  0.2280  0.0238 -0.1994
22922W        W41126   7.918   4.338   4.520  0.0346  0.0061 -0.0076
22923W        W41127   1.167  16.045  14.812  0.2989 -0.1419 -0.0249
22924W        W41128   1.394   4.324   2.284 -0.0935  0.1107 -0.2249
22925W        W41129  14.346  15.886   1.493 -0.0570 -0.0307  0.0495
22926W        W41130   6.547  14.280  12.870  0.1261  0.0598  0.0585
22927W        W41131  15.582  10.383  12.787  0.0405 -0.0911 -0.0557
22928W        W41132  15.920   7.937   6.000 -0.1531  0.2589  0.0187
22929W        W41133   1.012   5.466  16.995 -0.1426 -0.1463  0.0073
22930W        W41134  14.254  14.760   3.050  0.0659  0.0050 -0.0698
22931W        W41135  14.735  14.320  15.539  0.1970 -0.0514  0.1462
22932W        W41136   9.088  16.012   1.378 -0.1948  0.1813  0.1792
22933W        W41137   6.628  11.183   0.879 -0.0867  0.4842 -0.0361
22934W        W41138   3.361   9.505   4.701  0.0114  0.1466 -0.1057
22935W        W41139  14.834   6.508   4.245 -0.0061 -0.2286 -0.1863
22936W        W41140   4.278   7.507   0.426  0.1558 -0.0978  0.1414
22937W        W41141   4.694   5.026   0.583 -0.1738 -0.1281 -0.1261
22938W        W41142  13.370   5.307  16.207 -0.1796 -0.1858 -0.1408
22939W        W41143  14.597  12.002   1.597 -0.0078  0.0415  0.0408
22940W        W41144  10.743   2.073  13.541  0.1460 -0.0577  0.0352
22941W        W41145  15.077  14.518  11.392 -0.0424 -0.0843 -0.2600
22942W        W41146  14.654  12.927  14.846  0.1000 -0.1538 -0.1105
22943W        W41147   2.822  12.488   4.449 -0.1426  0.0455  0.0112
22944W        W41148  15.453   8.987  14.518 -0.0280  0.0759 -0.5396
22945W        W41149   6.322   4.246   3.685 -0.1113  0.5243  0.1006
22946W        W41150   8.652   8.150  17.251 -0.1406 -0.2457 -0.2648
22947W        W41151   1.343   0.905  15.356 -0.2042  0.0850 -0.0358
22948W        W41152  12.873  13.298  12.669  0.0305  0.0600 -0.0906
22949W        W41153  11.275   9.910   0.860 -0.2185 -0.1622 -0.1123
22950W        W41154  16.834  11.118   3.529  0.0547  0.2074  0.0620
22951W        W41155   5.444   9.785  16.932  0.1172  0.2138  0.0896
22952W        W41156  16.028  16.038  12.505 -0.2295  0.0794 -0.2250
22953W        W41157   0.789   1.479  16.913  0.2434 -0.1516  0.1549
22954W        W41158  11.411   7.122  13.513  0.0376  0.1886 -0.1131
22955W        W41159   7.687   5.010   5.332  0.1160  0.1135  0.3475
22956W        W41160   1.384   0.804   4.625 -0.1825 -0.1127  0.0714
22957W        W41161   1.247   0.342  14.179 -0.1408 -0.2304  0.2056
22958W        W41162   6.094  10.914   2.625 -0.2313 -0.2728 -0.0232
22959W        W41163   9.414   9.088  14.907  0.0055 -0.4354  0.1774
22960W        W41164   2.955  14.764  15.216 -0.0368 -0.1506  0.2431
22961W        W41165   3.080  14.826   1.726  0.0406  0.2685  0.1430
22962W        W41166   4.979  13.642  16.725 -0.1338 -0.3363 -0.0093
22963W        W41167   7.163   7.795  15.962  0.1794  0.1322  0.1286
22964W        W41168   8.366   9.088   1.898  0.0061  0.0308 -0.0658
22965W        W41169  13.497  16.620   1.006 -0.1898  0.1390 -0.2704
22966W        W41170   2.517  17.192  14.279 -0.2544 -0.0778  0.3410
22967W        W41171  12.962  15.476  13.505  0.1012 -0.0227  0.3855
22968W        W41172  14.360   6.048   3.776  0.2596  0.2031 -0.1691
22969W        W41173  10.213   7.351   0.295 -0.0127  0.1098 -0.0933
22970W        W41174   2.003   6.621   3.110  0.3282  0.1058 -0.1377
22971W        W41175   5.475   6.337  16.302  0.2327 -0.1347 -0.0028
22972W        W41176  13.065   8.058  16.444  0.0809  0.0267 -0.1306
22973W        W41177  12.639   1.340   1.904  0.0867  0.0631 -0.2247
22974W        W41178  17.086   4.291   0.204  0.1575  0.1630  0.2347
22975W        W41179   3.915   0.555   1.275 -0.0976  0.2036 -0.1948
22976W        W41180   0.038  11.127   4.138  0.1820 -0.0096  0.0816
22977W        W41181   9.569  12.408  13.005 -0.0082 -0.3079 -0.0067
22978W        W41182   8.071  14.796   3.670 -0.0469  0.2736  0.0812
22979W        W41183  11.368  10.414  15.132 -0.1042  0.2468 -0.2950
22980W        W41184  16.783  15.400  12.195  0.3164 -0.0061  0.0580
22981W        W41185   9.049  11.485   3.756  0.0293  0.0855  0.1646
22982W        W41186   7.133  10.221  16.800 -0.3223 -0.3070  0.1540
22983W        W41187  16.486   6.275   2.039 -0.5216  0.0637 -0.0001
22984W        W41188  14.480  13.268  17.313  0.1727 -0.1152  0.1090
22985W        W41189  10.544   0.556   2.228 -0.0961 -0.1063 -0.2589
22986W        W41190  12.128   0.013  13.671 -0.0123  0.1350 -0.1514
22987W        W41191  11.010  10.343   3.113  0.0396  0.0899 -0.2611
22988W        W41192  14.140  13.373   2.083  0.0192 -0.0233 -0.1848
22989W        W41193  16.552   9.378  14.010  0.3164 -0.0758 -0.0960
22990W        W41194  12.707   6.883  15.393  0.1943  0.1646 -0.2008
22991W        W41195  11.562   6.601   4.903 -0.3199  0.1656  0.0048
22992W        W41196   7.061  14.507  12.827  0.2863  0.2050  0.1012
22993W        W41197  11.073  16.875  13.166 -0.4135 -0.2818 -0.0234
22994W        W41198   4.713   1.460  12.651 -0.3330 -0.1276  0.2765
22995W        W41199  12.239   2.616  12.665  0.0356 -0.1668  0.0237
22996W        W41200   7.832   2.903  11.877  0.3566  0.1467 -0.0563
22997W        W41201  16.072   9.301   2.359  0.0546  0.2114 -0.1269
22998W        W41202  12.016  13.480  13.573  0.0195 -0.1533 -0.1805
22999W        W41203   0.355   8.757  17.112 -0.0536 -0.2394  0.0320
23000W        W41204   1.843   2.530   1.947  0.0467  0.1898  0.4874
23001W        W41205  11.583  17.028  13.206 -0.0360  0.0845 -0.0709
23002W        W41206   3.843   8.041   1.336 -0.0405  0.3181 -0.0466
23003W        W41207  11.217  14.664   3.082  0.1198 -0.0630  0.4950
23004W        W41208   8.055   0.076   6.077  0.0713  0.0416 -0.1212
23005W        W41209   7.795  13.954   4.389  0.2249 -0.0741  0.0853
23006W        W41210  11.829  15.828   5.252 -0.1915  0.0736  0.2971
23007W        W41211  16.016  16.343  13.317 -0.0057 -0.1236 -0.0571
23008W        W41212   7.558  14.056   0.655  0.1544 -0.0821  0.1597
23009W        W41213  12.974   6.788  14.973 -0.0873 -0.2892  0.1926
23010W        W41214  11.042  15.214  14.557 -0.1229 -0.1710 -0.0031
23011W        W41215  11.017   6.289   0.191 -0.0454 -0.0082  0.0873
23012W        W41216   9.913   0.376  11.620  0.1746 -0.0612  0.1712
23013W        W41217  10.200   9.517  12.612 -0.0102  0.0302 -0.1015
23014W        W41218   1.351  17.048  13.094  0.0422  0.1360  0.2628
23015W        W41219   5.012   7.710  16.800  0.0393  0.0186  0.0888
23016W        W41220   0.574  10.100   2.514 -0.1958  0.1526 -0.1488
23017W        W41221  11.253   3.731   2.507  0.0351  0.2001  0.0014
23018W        W41222   5.811  11.646   1.985 -0.0229 -0.0596  0.0545
23019W        W41223  10.272   7.473   4.994 -0.1029  0.2092 -0.0038
23020W        W41224   0.690  10.381   1.272 -0.0520 -0.1489  0.0437
23021W        W41225   6.305  10.638  16.303 -0.2052 -0.1740  0.3154
23022W        W41226   9.859   1.345   3.684  0.0731  0.3077  0.1514
23023W        W41227  12.958  10.429   3.588 -0.0880  0.0151 -0.0947
23024W        W41228  13.626  12.835   4.573  0.0225  0.2579  0.1112
23025W        W41229   6.676  14.230   3.523  0.2432  0.0678  0.0833
23026W        W41230   5.373   8.170  12.335  0.0020  0.0859  0.0651
23027W        W41231   7.771   9.192  15.820 -0.0106 -0.0262 -0.2684
23028W        W41232   3.029   2.245  12.971 -0.3415 -0.2008 -0.1852
23029W        W41233  12.067   2.497   1.506 -0.3012  0.3756  0.0062
23030W        W41234   0.298  17.119   3.107 -0.0916  0.1542  0.0684
23031W        W41235   3.924  16.387   0.272  0.1519 -0.1070 -0.0765
23032W        W41236   9.499   5.058   1.691  0.1226  0.1133  0.0250
23033W        W41237   9.162  10.161   0.350 -0.0289  0.0790 -0.0804
23034W        W41238   4.806   3.711  14.614 -0.1359 -0.2641 -0.0538
23035W        W41239   6.920   9.325   2.802 -0.2282  0.0709  0.1821
23036W        W41240   6.909   1.330   4.145  0.1008  0.2010 -0.0043
23037W        W41241   9.313  13.614   0.532  0.1106 -0.0219  0.1971
23038W        W41242   1.655  15.248   1.886 -0.0529  0.2175  0.3621
23039W        W41243   9.152  12.831   4.861 -0.3173  0.1026  0.2701
23040W        W41244   9.007  11.886  16.751  0.2550 -0.1180 -0.3000
23041W        W41245   0.660   1.845   5.084 -0.0744 -0.3620 -0.1029
23042W        W41246   9.336  10.255  17.396 -0.2583 -0.0303 -0.2408
23043W        W41247   8.368  11.808   4.174 -0.2327 -0.1002  0.0715
23044W        W41248  13.968  16.440   0.693 -0.1784 -0.0017  0.0290
23045W        W41249  15.169   0.176  16.111 -0.0069 -0.1172  0.4940
23046W        W41250   5.355   4.448  15.510 -0.2178  0.1681 -0.1978
23047W        W41251   0.727  13.576   0.637 -0.3671  0.0849 -0.2186
23048W        W41252   9.989  10.293  13.608  0.2144  0.0427  0.0372
23049W        W41253   4.361   9.752  14.774  0.0726 -0.1241  0.0942
23050W        W41254   9.407   5.195  12.874 -0.0826  0.0358  0.1008
23051W        W41255   4.721  12.534  13.391  0.0447 -0.3150  0.2304
23052W        W41256   7.283   4.848  12.132 -0.1818 -0.1138 -0.1126
23053W        W41257   4.741   8.154   2.385  0.4090 -0.1697  0.1215
23054W        W41258  12.080   1.651   1.616  0.1337 -0.1139 -0.0930
23055W        W41259   2.817  16.093  17.061  0.0243 -0.1584  0.0000
23056W        W41260   7.688   6.271   0.070  0.1356 -0.1733 -0.0635
23057W        W41261  10.751  11.060   6.486 -0.0665 -0.4131  0.0657
23058W        W41262  14.202   6.560   2.665  0.1498 -0.1786  0.1767
23059W        W41263  10.944  11.029   4.621  0.2689 -0.1233  0.1720
23060W        W41264  14.813  11.063   5.344 -0.1623  0.0497 -0.1288
23061W        W41265  15.653  11.316  12.766 -0.1919  0.2381 -0.0246
23062W        W41266  13.087   4.857   5.162  0.3377  0.0477  0.0241
23063W        W41267   5.126   1.704  12.440  0.0953 -0.3314  0.3020
23064W        W41268   0.269  11.035  14.044  0.0421 -0.0509 -0.1108
23065W        W41269   1.845  11.078  13.225  0.0102  0.1614  0.0521
23066W        W41270  16.127   5.222   2.080  0.1958 -0.0887  0.0673
23067W        W41271   9.832  13.205  14.143  0.0148 -0.4522  0.0487
23068W        W41272  10.709   3.414  12.658  0.1726  0.0907  0.0965
23069W        W41273  10.180   2.806   3.820  0.2140 -0.1085  0.1947
23070W        W41274  14.527   3.785   3.945  0.1739 -0.3229  0.0483
23071W        W41275  15.787   1.775  17.506  0.0567  0.1031  0.1359
23072W        W41276   2.003  16.902   1.255 -0.1388  0.0269 -0.0905
23073W        W41277  11.229   8.849  16.436  0.1757  0.0066  0.0633
23074W        W41278   9.036   2.763  15.037 -0.0990  0.0002  0.1253
23075W        W41279   2.974  14.440  13.465 -0.3050  0.4312  0.1179
23076W        W41280  15.096   1.420   2.516  0.0903  0.0903 -0.1634
23077W        W41281   8.846  11.021   5.166  0.0703 -0.1821 -0.2144
23078W        W41282   4.977   6.492   3.307 -0.1540 -0.1089  0.0103
23079W        W41283   8.800  17.255  12.116 -0.2437 -0.0911 -0.2887
23080W        W41284   4.129   2.394   4.044  0.2987  0.1462 -0.1275
23081W        W41285   0.012   9.966   1.651  0.1311  0.0400 -0.1666
23082W        W41286   3.503  14.848   3.576 -0.1593 -0.2156 -0.2540
23083W        W41287  17.155   6.679   0.364  0.1069 -0.1872  0.0007
23084W        W41288   5.617  11.505   2.396  0.1179 -0.1865  0.3386
23085W        W41289  15.072   4.787   1.235  0.3657  0.1070 -0.0492
23086W        W41290   6.234  15.526   1.908  0.0257  0.1239  0.2329
23087W        W41291  16.821  10.650  14.661  0.0012  0.0511 -0.3483
23088W        W41292   9.488   5.657  13.186 -0.0932  0.0109  0.2161
23089W        W41293   5.728   4.127  12.790 -0.2003  0.0243  0.1235
23090W        W41294   9.942  11.742  15.980  0.1520  0.0519 -0.1750
23091W        W41295   5.779   6.840   0.961  0.0913  0.3433 -0.2330
23092W        W41296  11.832   5.624   1.976 -0.0436 -0.0360  0.0916
23093W        W41297   9.867  15.590  14.284  0.1621  0.0281  0.2483
23094W        W41298  16.889   1.812  12.842  0.0403  0.2166  0.2269
23095W        W41299  16.493   1.765   1.652 -0.1102  0.2218 -0.1323
23096W        W41300   0.042  14.321   4.068 -0.0616  0.4456 -0.2104
23097W        W41301  13.731   5.578  16.991 -0.1236 -0.1779 -0.1865
23098W        W41302  15.530   4.907   5.050  0.1714  0.0192 -0.0359
23099W        W41303  12.949  15.816  16.133 -0.0074  0.1351  0.0531
23100W        W41304   0.332  16.178  12.741  0.0429 -0.2955  0.1664
23101W        W41305  17.297   0.881  16.670 -0.2199  0.3944  0.0690
23102W        W41306   5.580   8.676   3.299 -0.0250  0.2720 -0.0067
23103W        W41307  13.163  17.148   5.025  0.0224  0.2314  0.4854
23104W        W41308   6.271   4.560   4.494  0.0187  0.2219  0.1662
23105W        W41309   0.857   7.251  17.225 -0.0102 -0.0988 -0.1802
23106W        W41310  15.681  11.974  15.413 -0.2699 -0.0181 -0.0982
23107W        W41311   6.602  12.129  16.455 -0.1194  0.2243 -0.1127
23108W        W41312   0.606  12.478   4.384  0.1278 -0.3046  0.0203
23109W        W41313  10.054   5.844   2.414 -0.0375 -0.1906  0.0204
23110W        W41314   2.588  10.077   0.908 -0.1705  0.0821  0.0234
23111W        W41315   4.080  12.459   0.404 -0.1250  0.3997  0.4239
23112W        W41316   5.542   9.776   2.415 -0.0255 -0.0036 -0.1843
23113W        W41317   1.928  15.391   2.307  0.0815 -0.1422  0.2468
23114W        W41318   9.347   7.855   4.453 -0.0078 -0.0773 -0.0935
23115W        W41319  12.818   1.766   3.086 -0.0724  0.1220 -0.1630
23116W        W41320   9.825   9.428  14.845 -0.1533  0.1493 -0.2127
23117W        W41321   1.631   3.356   0.179  0.0175  0.5554  0.0449
23118W        W41322   5.240  17.274  12.030 -0.1485 -0.0437  0.0116
23119W        W41323  11.535   7.694  17.241  0.0020 -0.2526  0.2602
23120W        W41324   4.387  12.845   4.214  0.0173 -0.1615  0.0895
23121W        W41325   6.835   4.934   1.756  0.2225  0.1161 -0.0710
23122W        W41326   9.911   0.177   0.638  0.3352 -0.2404  0.1636
23123W        W41327   3.380   0.778   3.397 -0.2065  0.2059 -0.3270
23124W        W41328  10.817   8.157   3.741 -0.3758  0.0440  0.0771
23125W        W41329  13.137  12.174  14.167 -0.1636 -0.2471 -0.0292
23126W        W41330   5.546  15.244   4.156  0.2927  0.0092  0.1067
23127W        W41331  11.980   6.299   4.133  0.1543  0.0206  0.3589
23128W        W41332  13.960  12.237   5.166  0.1329 -0.0691 -0.0604
23129W        W41333  13.322  15.827   6.017 -0.0977 -0.0747  0.0910
23130W        W41334  11.103   9.489   1.142 -0.0366  0.3257 -0.1403
23131W        W41335  15.834   6.878   3.550 -0.1738  0.0300 -0.2386
23132W        W41336  10.556   7.948  15.794 -0.1396  0.1283 -0.6481
23133W        W41337   0.828   3.350  16.233  0.4225 -0.1144 -0.0273
23134W        W41338   1.553   5.382  13.814 -0.0426 -0.1566 -0.0631
23135W        W41339  10.182  10.488  13.108 -0.0557  0.0267 -0.1271
23136W        W41340  17.047   6.390  14.288 -0.0142  0.2606  0.0631
23137W        W41341  16.297  15.349   0.400 -0.1674 -0.0899  0.2476
23138W        W41342   7.938  14.526   2.845  0.1627  0.0101  0.1855
23139W        W41343   5.966   0.150   2.420  0.0801 -0.3289 -0.0248
23140W        W41344  16.263   3.125   2.585 -0.2443 -0.0806 -0.1503
23141W        W41345  11.761   6.040  16.549  0.0655 -0.1375  0.2400
23142W        W41346  15.699  13.206   1.701  0.1481 -0.0694  0.2119
23143W        W41347   8.012   2.134  14.778  0.2921 -0.2397  0.2376
23144W        W41348  13.232  10.435   4.291 -0.1213 -0.0507 -0.0931
23145W        W41349  11.891  16.134  15.566 -0.1115 -0.0873  0.1567
23146W        W41350  14.862   3.182  12.957 -0.0269 -0.3984  0.0115
23147W        W41351  14.430   6.524   0.414 -0.2261  0.2134  0.3610
23148W        W41352   0.057   5.778   0.244 -0.1492  0.0016  0.0188
23149W        W41353   3.037   8.952   0.488  0.1962  0.1275  0.1947
23150W        W41354  11.444  14.234  15.114  0.1250  0.2865  0.2203
23151W        W41355  16.553  14.823   3.866  0.3386 -0.1727  0.1959
23152W        W41356  15.576  13.959   3.469  0.0163  0.0232  0.0003
23153W        W41357  10.049  13.415   2.267  0.0161  0.0047 -0.1657
23154W        W41358   4.259  16.842  13.756 -0.1535 -0.1654 -0.5345
23155W        W41359  10.789  10.080  16.708 -0.1242  0.0436 -0.2587
23156W        W41360  10.090   3.372  13.157 -0.3175 -0.0130  0.0460
23157W        W41361  13.455  13.666   5.350 -0.2281 -0.2512 -0.0452
23158W        W41362  10.934   1.486  16.748 -0.2036 -0.0478  0.0312
23159W        W41363   1.810   6.749  16.933  0.0683  0.2159  0.3332
23160W        W41364   3.619   4.863   4.577 -0.1983 -0.0881 -0.3055
23161W        W41365   2.547   9.406   1.529 -0.0614  0.0167 -0.0612
23162W        W41366  15.828  15.018   5.189  0.1834 -0.1383 -0.0422
23163W        W41367   7.016   9.992   5.322 -0.2342 -0.1766 -0.2262
23164W        W41368   4.102   9.390   3.227  0.1416  0.0013  0.2922
23165W        W41369   1.871   9.706   1.049 -0.2442  0.0066 -0.2290
23166W        W41370   7.619   3.423  14.183 -0.2494 -0.1509  0.1458
23167W        W41371   2.846   3.062  13.320  0.0430 -0.2649 -0.0603
23168W        W41372  16.704  12.608  14.467 -0.1449 -0.0452 -0.2416
23169W        W41373   5.032   0.285  15.696  0.1317 -0.1156  0.0958
23170W        W41374   9.412  12.070  16.899  0.1035  0.0091 -0.2362
23171W        W41375  12.067  15.902  14.471  0.3128 -0.2397 -0.1519
23172W        W41376  13.232   4.027   2.139  0.0180 -0.1053 -0.0007
23173W        W41377  16.218   4.357   1.063 -0.2623  0.2034 -0.1054
23174W        W41378   9.435   6.294  12.021  0.1787  0.2813  0.0559
23175W        W41379  13.224   9.977   0.407  0.1555 -0.0747 -0.2231
23176W        W41380   0.926   1.355   4.312 -0.2001  0.0156 -0.0027
23177W        W41381   6.320   4.080  15.413  0.3259 -0.1706 -0.1268
23178W        W41382   1.073   6.469  13.581  0.2230 -0.0765 -0.0181
23179W        W41383   8.729  11.075  12.222  0.2752  0.0085  0.0453
23180W        W41384  10.708  14.323   3.071 -0.0165  0.0435  0.3751
23181W        W41385  11.304   4.741   1.287 -0.2462  0.0713 -0.0367
23182W        W41386  15.221   3.431   5.226  0.0077  0.0895  0.0803
23183W        W41387  10.935  15.663   2.075 -0.0847 -0.0248  0.3703
23184W        W41388  10.728   9.638   2.126  0.2359 -0.0074  0.2333
23185W        W41389  13.864   2.920   2.310 -0.0919  0.0678  0.0735
23186W        W41390  15.209   9.553  15.291  0.0104  0.0721 -0.0305
23187W        W41391  12.114   7.272   4.219 -0.5039 -0.0842  0.2024
23188W        W41392   3.793   0.709   4.672 -0.0981  0.0461  0.0622
23189W        W41393  15.107  10.552  15.352  0.0774 -0.0906  0.1920
23190W        W41394   1.806   0.372  13.898 -0.2332 -0.1350 -0.0841
23191W        W41395  14.074   3.006  13.613 -0.0306 -0.1761 -0.3749
23192W        W41396   2.316   0.659  13.317  0.0796  0.1874  0.3897
23193W        W41397  16.028  15.278  13.253  0.0145 -0.0673  0.0662
23194W        W41398   7.838   6.560  14.119 -0.1727 -0.0219  0.1286
23195W        W41399  16.469  16.742  15.628  0.0960 -0.0515  0.0454
23196W        W41400  14.480   1.230   5.335 -0.4739 -0.1348 -0.3230
23197W        W41401  17.109   5.149  15.258  0.2773  0.1787  0.2716
23198W        W41402   1.036  10.840  16.114 -0.1086  0.0932  0.1794
23199W        W41403   9.628  10.083   1.249  0.0915  0.2711 -0.1718
23200W        W41404   0.718   3.727  13.399  0.4699 -0.1689  0.1086
23201W        W41405  12.829  13.517   0.256 -0.1035  0.3069 -0.1573
23202W        W41406   1.178   9.333   1.362  0.0935  0.3212 -0.0547
23203W        W41407  11.699   9.897  14.038  0.0547 -0.2091 -0.1988
23204W        W41408   8.144   0.198   0.314  0.1394  0.2589 -0.2633
23205W        W41409  16.524   2.864  16.973  0.2722 -0.0073 -0.1878
23206W        W41410   7.990   1.323   0.784  0.0224 -0.4400  0.0181
23207W        W41411  13.477  15.465   5.505 -0.2625 -0.2613 -0.3487
23208W        W41412  14.802   9.232   2.998 -0.0404 -0.0472  0.0076
23209W        W41413  11.078  10.347   1.588  0.1993  0.3784 -0.0441
23210W        W41414   2.720  14.920  15.690 -0.0257 -0.0408  0.2159
23211W        W41415   5.764   4.545  11.956  0.2674 -0.2008  0.1925
23212W        W41416   7.440   4.660  13.239 -0.3758 -0.0134 -0.1698
23213W        W41417  16.113   0.178  16.253 -0.0265  0.1934 -0.1994
23214W        W41418  15.991  12.419  15.235 -0.2240 -0.1070  0.1959
23215W        W41419  12.071  17.213   0.975  0.0884  0.1076  0.2601
23216W        W41420   7.364  16.746  14.709  0.3801 -0.1087 -0.0229
23217W        W41421   0.353   4.957  16.046 -0.0059  0.2968 -0.1979
23218W        W41422   5.873   6.838  12.062  0.3612 -0.0124  0.0880
23219W        W41423  15.096  15.247   0.873  0.2230 -0.1777  0.1701
23220W        W41424  14.080  13.754  14.294 -0.2453 -0.0586 -0.0439
23221W        W41425   9.700  14.981  13.183 -0.1734 -0.0665 -0.2432
23222W        W41426   5.716  15.885  13.843 -0.0975  0.1429  0.0947
23223W        W41427   4.098  17.127  15.515 -0.0103 -0.4245  0.2271
23224W        W41428  10.571   7.671   0.362  0.0045  0.1048  0.1117
23225W        W41429   5.965  17.249   4.187 -0.0662 -0.1762 -0.0419
23226W        W41430  12.727   7.676   0.437  0.1436 -0.0185  0.0996
23227W        W41431   3.848   6.493   3.223  0.1665  0.1034 -0.0643
23228W        W41432   8.242  12.849   1.684  0.0519 -0.0556  0.2414
23229W        W41433   1.620   8.676  14.309 -0.2889 -0.2988 -0.2760
23230W        W41434  16.381  16.321   5.571 -0.0476  0.0457  0.0340
23231W        W41435   8.997  14.232  15.335  0.0514  0.3072  0.2489
23232W        W41436  14.543   7.611  13.113 -0.0789 -0.0634 -0.0546
23233W        W41437  10.053  10.605   0.315 -0.0807  0.0028  0.3916
23234W        W41438  15.618   0.616  12.688  0.0302  0.0419 -0.0496
23235W        W41439   1.985   4.162  16.717 -0.0598 -0.0071 -0.0560
23236W        W41440  10.285  11.295   5.380  0.0306 -0.3008  0.0917
23237W        W41441  13.395  16.052  16.451  0.2679  0.0775  0.0600
23238W        W41442   7.439   5.022  16.205 -0.0067  0.0680  0.1545
23239W        W41443  14.008   6.897  15.655  0.2649 -0.1940  0.1367
23240W        W41444   5.168  12.919   1.037  0.1202 -0.1197 -0.1262
23241W        W41445  12.162   0.149  16.800 -0.1241 -0.1894 -0.1153
23242W        W41446   0.449   0.115   3.939  0.2094 -0.0669 -0.0604
23243W        W41447   7.050   4.453   2.034 -0.0349 -0.1158  0.1454
23244W        W41448   3.450  15.355   5.295  0.0786  0.0751  0.0218
23245W        W41449   4.235   1.934   2.977 -0.0767 -0.1584  0.1317
23246W        W41450  17.034   2.189   2.377  0.0416 -0.1032 -0.1341
23247W        W41451   0.135   2.829  13.364 -0.0937  0.2260  0.0395
23248W        W41452   1.725  13.269  13.884 -0.2395 -0.0791 -0.2346
23249W        W41453  16.599  15.673   3.549 -0.1766  0.3265 -0.0918
23250W        W41454  16.678   6.933  16.200 -0.0534 -0.2388 -0.3586
23251W        W41455  10.986   2.183   1.919  0.1115 -0.3009 -0.3175
23252W        W41456  13.530   6.896   0.544  0.1286 -0.0373 -0.0289
23253W        W41457  16.656   2.958   1.644 -0.2013 -0.1387  0.0048
23254W        W41458   8.430   1.069   0.687  0.0570 -0.3879  0.1101
23255W        W41459   8.000   9.862  17.239 -0.2488 -0.4013 -0.0255
23256W        W41460   8.372   2.008   1.798 -0.0876 -0.0424 -0.1609
23257W        W41461   5.865  12.130   1.067  0.4258  0.2638  0.0600
23258W        W41462   3.495   8.616  15.959 -0.2461 -0.1326 -0.1075
23259W        W41463   2.405   1.212  16.347 -0.0186 -0.2298 -0.0016
23260W        W41464  16.223   8.080   2.607  0.1638  0.1174  0.4593
23261W        W41465  14.628  16.102   1.845  0.0794 -0.0563 -0.0492
23262W        W41466  11.442  16.584   3.442 -0.0560  0.3960 -0.1261
23263W        W41467   3.203   0.962  16.468  0.0767 -0.1817  0.0464
23264W        W41468   9.576   8.607   2.494  0.3952  0.1283 -0.0656
23265W        W41469  13.671  14.165  16.523 -0.0729  0.0378  0.3092
23266W        W41470  10.039   6.183  11.796 -0.0334 -0.1265 -0.1859
23267W        W41471   8.237   3.371  16.163 -0.3685  0.1055  0.2002
23268W        W41472  10.016   9.981   4.543  0.1729 -0.0605 -0.3457
23269W        W41473   2.838   7.508   5.021  0.1557 -0.5557  0.0495
23270W        W41474   5.902   0.255   0.807 -0.1247 -0.4463 -0.0053
23271W        W41475   2.632  14.184  16.164 -0.0001 -0.1697  0.2196
23272W        W41476   9.475   0.657   1.806 -0.0879  0.2587 -0.0708
23273W        W41477  10.798   2.653   3.788  0.0995 -0.0742  0.1072
23274W        W41478   6.298  12.659  12.097 -0.2159  0.2411 -0.0628
23275W        W41479   9.504  11.211  16.300  0.4059 -0.0098  0.2104
23276W        W41480  14.361  17.185   3.268 -0.2307  0.3021  0.0656
23277W        W41481   2.718  17.243  13.028  0.2930 -0.0490 -0.4338
23278W        W41482   8.231   9.720  14.059 -0.0345  0.1778  0.2541
23279W        W41483   9.899  10.584   5.773  0.0228  0.0835 -0.0506
23280W        W41484   2.928   1.091   5.414  0.0466  0.1469  0.2369
23281W        W41485  15.864   3.896   2.425  0.1153  0.1145  0.2213
23282W        W41486   3.548   1.677  16.838 -0.0925 -0.1339 -0.1512
23283W        W41487   5.978  15.390   1.419  0.0339 -0.0252  0.3550
23284W        W41488   3.051  14.634   4.879 -0.3135 -0.0422  0.1626
23285W        W41489  11.739   5.790  12.581 -0.3406  0.1794 -0.1021
23286W        W41490  16.355   9.224   5.262 -0.1512 -0.1579  0.3874
23287W        W41491  15.788   4.394   2.584  0.0769  0.1257 -0.0941
23288W        W41492   7.022  11.231   1.113 -0.2073 -0.0895  0.0956
23289W        W41493  13.886  15.437   1.994  0.2274  0.1289 -0.0415
23290W        W41494  17.203  14.968   3.323 -0.1547  0.3935  0.2447
23291W        W41495   4.958   5.105   4.639  0.0458 -0.1081 -0.0428
23292W        W41496  10.575  11.773   3.292 -0.2020  0.1287  0.1661
23293W        W41497  10.212   8.259  13.208 -0.3579 -0.3064 -0.0874
23294W        W41498   4.338   6.673   4.818 -0.0960  0.0407 -0.0591
23295W        W41499  10.032   5.257   4.060 -0.0256 -0.1707  0.4095
23296W        W41500   2.288  15.824   4.125 -0.0151  0.0562 -0.1358
23297W        W41501   9.742   0.595  17.088  0.3662 -0.0529  0.1955
23298W        W41502   7.055   7.907  17.044  0.1939  0.3123  0.1966
23299W        W41503   5.217   6.689   1.006  0.0331 -0.0412  0.4559
23300W        W41504   0.473   5.478   1.996  0.0786 -0.1499  0.0071
23301W        W41505  12.072  10.410  14.828 -0.0118  0.0590 -0.0279
23302W        W41506   3.749   6.238  13.803 -0.3375  0.2708 -0.0391
23303W        W41507  12.540  15.231   2.091  0.0292 -0.1749  0.1780
23304W        W41508   1.463  11.797  13.801 -0.0219  0.0995 -0.2597
23305W        W41509  14.202   3.277   2.740  0.2158  0.1464  0.0185
23306W        W41510  17.212   2.921   0.517 -0.0611 -0.0772 -0.0068
23307W        W41511   5.719   4.776  15.235  0.0038  0.0814  0.0096
23308W        W41512   6.815   9.761   1.451 -0.2003 -0.2026  0.0725
23309W        W41513  10.967   3.870  12.487 -0.3077  0.4410  0.4472
23310W        W41514  14.868  17.160   4.928  0.0442 -0.0887  0.1086
23311W        W41515  13.097   1.322   0.259  0.1935 -0.0746 -0.2741
23312W        W41516   7.776  12.331   4.255  0.2557  0.1363 -0.1833
23313W        W41517   6.375   6.953   1.664 -0.3442  0.2866 -0.2268
23314W        W41518   6.068   9.119   1.315  0.2769  0.1806  0.0951
23315W        W41519   4.645   6.833  16.819  0.1090 -0.0503  0.1691
23316W        W41520   5.628   8.642  12.563  0.1309  0.1241  0.3284
23317W        W41521  14.415  11.387  15.472  0.2933  0.3633 -0.2338
23318W        W41522   9.022  11.497  16.314  0.0700  0.3545 -0.3068
23319W        W41523   3.563   5.328  16.670 -0.2291 -0.1191  0.1598
23320W        W41524   1.354   3.582  16.280  0.1211 -0.0943  0.0460
23321W        W41525  13.147   6.423  17.438  0.1153 -0.1477 -0.0064
23322W        W41526  11.330  12.806  15.714 -0.0870  0.0463  0.0397
23323W        W41527   4.772   9.778   2.743  0.3420  0.0328  0.0052
23324W        W41528   8.503  17.169  15.225  0.0742  0.1760 -0.1278
23325W        W41529  16.395  11.168  12.132  0.3384 -0.2007 -0.3105
23326W        W41530   1.150   8.981  16.547  0.2032  0.1288  0.1229
23327W        W41531  13.392   1.528   1.832 -0.0832 -0.2360  0.2911
23328W        W41532   7.158   1.930  14.698  0.0696  0.1634 -0.0837
23329W        W41533   2.546   1.880  13.928 -0.3173 -0.0621  0.3042
23330W        W41534  10.481   9.855   4.511 -0.0068  0.1204  0.0219
23331W        W41535   8.179  11.127   4.169 -0.1685  0.3118  0.1426
23332W        W41536   8.353   8.723  13.048  0.1438  0.2569  0.1736
23333W        W41537   8.456   3.812  14.297  0.3270 -0.1366 -0.4522
23334W        W41538   5.631   7.285   1.014  0.0562 -0.3114 -0.0424
23335W        W41539  10.829   9.066  16.782 -0.1546  0.0779 -0.1366
23336W        W41540  13.238   0.563   5.394  0.1161  0.0641 -0.1061
23337W        W41541  11.200   6.587  14.393 -0.2390  0.1504  0.2421
23338W        W41542  12.654  16.502  14.044  0.0085 -0.1292  0.1102
23339W        W41543  15.391   3.993   2.412  0.0720 -0.1306  0.1393
23340W        W41544   5.343   9.817   4.805  0.0404 -0.1181  0.0028
23341W        W41545  12.527   6.011  12.400  0.0094  0.2049  0.0024
23342W        W41546   0.725   4.005  15.491 -0.1553  0.0158  0.3037
23343W        W41547   4.327  11.323  13.624 -0.0016  0.2012 -0.0075
23344W        W41548   1.535   1.230   2.998  0.1940 -0.1877  0.2145
23345W        W41549  16.124   4.297   4.014  0.0666  0.1217 -0.2111
23346W        W41550  11.085  10.579   4.356 -0.0283  0.2046  0.3023
23347W        W41551  15.544   7.202  13.165 -0.0741  0.1438  0.0551
23348W        W41552   1.389   3.469   6.386 -0.1124  0.0887 -0.0765
23349W        W41553   1.900   4.933   2.078 -0.1368  0.2128 -0.0618
23350W        W41554  15.789  15.100   4.279 -0.0177  0.4908  0.0866
23351W        W41555   5.315  13.848  17.416 -0.1454  0.2320  0.4181
23352W        W41556   2.285   3.664   4.882 -0.0778  0.1702  0.1882
23353W        W41557   6.130  14.838   2.730 -0.0216 -0.1702 -0.0843
23354W        W41558  13.932   5.129  16.811  0.0015  0.2815 -0.0928
23355W        W41559   2.567   2.902  17.047 -0.1104 -0.1311  0.1467
23356W        W41560   4.459   1.429   2.695  0.0089 -0.0331  0.2508
23357W        W41561  11.258   1.904  12.671 -0.2044 -0.1686 -0.0814
23358W        W41562   5.260  15.140   3.682  0.0792 -0.3400  0.1258
23359W        W41563  12.668  10.668   0.092  0.1666 -0.0680  0.0951
23360W        W41564   2.987   4.391  16.141 -0.0553  0.0982  0.2722
23361W        W41565   2.480  11.536   0.287 -0.0575  0.1177 -0.1520
23362W        W41566   1.559   3.577  13.495 -0.3359  0.2590  0.0675
23363W        W41567   7.151   6.727  14.898 -0.0096 -0.0848  0.2104
23364W        W41568   1.205  10.577   5.599  0.0244 -0.1014  0.1744
23365W        W41569   9.564  10.507  12.521  0.3530  0.1305 -0.1071
23366W        W41570   8.293  12.928  13.241  0.4503  0.0339  0.0714
23367W        W41571   9.302  13.805  15.082 -0.0463 -0.1328  0.3473
23368W        W41572  10.700  10.893   3.666 -0.1372  0.3755 -0.2223
23369W        W41573  16.908   5.108  12.663 -0.4314 -0.2412  0.1342
23370W        W41574  16.857   0.830   0.759 -0.3020 -0.2794 -0.0535
23371W        W41575   7.650   8.637   2.847  0.1152  0.3941  0.1943
23372W        W41576   9.041   7.447   3.287  0.0142 -0.1232  0.0338
23373W        W41577   3.872  14.577  14.838  0.1433  0.1719 -0.3323
23374W        W41578   5.184  14.607   2.876 -0.1701  0.0127 -0.5696
23375W        W41579   4.997  13.897  14.495 -0.1361  0.0387 -0.3118
23376W        W41580   5.779  15.828   1.047  0.2764  0.2513  0.2475
23377W        W41581  11.400  13.238   3.793  0.0954 -0.0801  0.0095
23378W        W41582   2.263  14.651  15.752  0.1495  0.1047  0.1555
23379W        W41583  10.309   5.990   3.789 -0.0853 -0.2466 -0.0030
23380W        W41584   3.191   8.210  15.999  0.0033 -0.0789  0.1104
23381W        W41585  12.581   5.617   0.706 -0.0399  0.1450 -0.0724
23382W        W41586  16.928  16.058   6.205 -0.2644 -0.0775  0.0519
23383W        W41587   7.246   8.770  17.456 -0.2046  0.0106 -0.1905
23384W        W41588   4.158  11.789  17.168 -0.3976 -0.0788 -0.2040
23385W        W41589   4.159  15.717   0.881  0.1267  0.1463 -0.1814
23386W        W41590   6.093  15.500  13.901  0.1610 -0.3156 -0.1151
23387W        W41591  13.819   9.357  13.650 -0.0921  0.1589  0.1140
23388W        W41592   0.174   0.031  12.350  0.0885  0.4447  0.1401
23389W        W41593   1.158   7.453  14.987  0.2165  0.3073  0.0574
23390W        W41594  12.290  13.918   2.318  0.1876  0.3454  0.0396
23391W        W41595  14.006  14.417  12.843 -0.0668 -0.1508 -0.0002
23392W        W41596   6.920  14.190   4.006  0.0724  0.0376 -0.1220
23393W        W41597   8.220  16.620  14.455  0.0271  0.1037  0.2764
23394W        W41598  14.569   5.172  13.903 -0.0516 -0.2518  0.1118
23395W        W41599   9.980   2.701   0.093  0.0938  0.0809  0.2461
23396W        W41600   3.945   0.676  14.415  0.0398  0.1696 -0.2060
23397W        W41601   8.411   1.187  14.329 -0.0825 -0.1890  0.0294
23398W        W41602   5.812  10.532   1.652 -0.0374 -0.1396  0.0327
23399W        W41603  13.690   0.383   4.431  0.0936  0.0226  0.1319
23400W        W41604   2.102   4.228  15.118  0.0377  0.1974 -0.0685
23401W        W41605   3.322   7.066  13.399 -0.1614 -0.0660  0.2156
23402W        W41606   7.354   6.112  16.189 -0.0860  0.0799 -0.0819
23403W        W41607  16.176  10.517  14.829  0.1479  0.1232 -0.1703
23404W        W41608   5.126   8.556   4.922 -0.0974  0.2067 -0.0226
23405W        W41609   3.954  15.124   2.048  0.2568 -0.1700  0.0682
23406W        W41610   9.429  11.933   1.425 -0.2381  0.0255 -0.0887
23407W        W41611   7.040   7.708   0.785  0.1282  0.0234 -0.0095
23408W        W41612  15.040   0.177  13.079  0.2979  0.0909  0.0197
23409W        W41613   3.373   5.211  12.450  0.4051  0.1038 -0.1049
23410W        W41614  16.297   3.237   0.261  0.2442  0.0781 -0.0332
23411W        W41615  12.582  12.265   5.372 -0.2404 -0.1619 -0.1106
23412W        W41616   8.754   9.766  13.910  0.0493  0.2148  0.0349
23413W        W41617   4.668  16.760   3.171 -0.0864  0.1720 -0.1284
23414W        W41618   0.230  10.642   4.123 -0.2998 -0.1481 -0.0431
23415W        W41619   6.313   5.315  16.109 -0.1777  0.1552  0.0129
23416W        W41620   0.118  13.554   5.405  0.2395 -0.1395 -0.1959
23417W        W41621   0.576   7.349  14.896 -0.0537 -0.3041  0.1883
23418W        W41622  10.942   0.691   4.511 -0.0149 -0.2508 -0.0457
23419W        W41623  13.319  10.389   3.244  0.0625  0.1376  0.0649
23420W        W41624  13.859   3.311  13.254 -0.2406  0.0154  0.0311
23421W        W41625   3.836   0.056   1.422 -0.3434 -0.1457  0.0854
23422W        W41626  12.241   2.926   2.956 -0.2677  0.2311 -0.0363
23423W        W41627  10.745  11.315  16.924  0.1599 -0.0838  0.1973
23424W        W41628   5.758   9.423  15.174  0.0537 -0.1315  0.1309
23425W        W41629   0.057   1.465   1.997  0.1767  0.0646 -0.0616
23426W        W41630  17.302   5.598  15.204  0.0290 -0.1219  0.0344
23427W        W41631  15.315   2.056   0.246  0.1229  0.2261 -0.0676
23428W        W41632   5.931   8.075  14.753 -0.0284 -0.1282  0.1473
23429W        W41633   2.337  17.178  13.315  0.1583 -0.0823  0.1063
23430W        W41634  11.042   4.066  12.033  0.1127  0.1858  0.2237
23431W        W41635   3.567  11.631   3.215  0.1116 -0.1125 -0.2356
23432W        W41636  10.355   3.821   1.402  0.0678  0.1153  0.0337
23433W        W41637   9.970  12.375   1.443  0.1545 -0.0471  0.1485
23434W        W41638   4.474   7.082   2.018  0.1271  0.0720  0.0752
23435W        W41639   3.384   9.691   4.162 -0.0414  0.2849  0.0684
23436W        W41640   0.062  12.536  13.883  0.1085  0.2395 -0.0327
23437W        W41641   0.363   0.083  17.192 -0.1445  0.1532 -0.0666
23438W        W41642  10.913  15.024   0.189 -0.0173  0.2268  0.0606
23439W        W41643   5.960   6.274   0.292  0.0438 -0.1016  0.1206
23440W        W41644  14.212  15.005   2.065  0.1175 -0.1464  0.3390
23441W        W41645   1.133   7.452  12.644 -0.0334 -0.0419  0.0159
23442W        W41646  13.060   5.502   1.786  0.1058  0.0124  0.0752
23443W        W41647   8.314   7.721  14.526  0.1259  0.0120  0.2371
23444W        W41648  10.891   7.255   3.050 -0.0592  0.3186 -0.2459
23445W        W41649   5.453  14.527  17.418 -0.0075 -0.2186 -0.5809
23446W        W41650   3.942   7.259  15.383 -0.1292 -0.0497  0.2804
23447W        W41651  10.479   3.519  12.161 -0.2401 -0.1023  0.0625
23448W        W41652   8.830  11.076   3.536  0.1779 -0.2166 -0.1593
23449W        W41653   5.997  13.216   1.474 -0.2282  0.0444  0.1553
23450W        W41654  11.436   4.828  17.265 -0.0414 -0.1899 -0.0340
23451W        W41655  11.966  13.590   4.965  0.3298  0.0860 -0.0356
23452W        W41656   0.658  16.635   2.690 -0.0217 -0.1997 -0.0923
23453W        W41657  16.247   9.716  14.457  0.2695  0.5343  0.3862
23454W        W41658  12.239   0.631   2.934  0.0367 -0.2210 -0.3283
23455W        W41659   9.169   9.687   0.612  0.1341 -0.0478 -0.2895
23456W        W41660  12.243  15.803  15.318  0.0608 -0.1831 -0.1407
23457W        W41661  17.047   5.312  13.939  0.0130  0.0431  0.2853
23458W        W41662   1.077   2.605  15.965 -0.1039 -0.0107  0.0172
23459W        W41663  13.881   3.608   1.143 -0.1584  0.0806 -0.0039
23460W        W41664   6.963  15.843   3.956  0.0730 -0.4333  0.0373
23461W        W41665   8.447  15.674  14.156 -0.0215 -0.0241  0.1195
23462W        W41666   7.236  13.088   3.180  0.0967 -0.1236 -0.0763
23463W        W41667   2.675  13.189   5.281  0.2692 -0.1220 -0.3494
23464W        W41668   5.621   2.291   1.105  0.0530  0.1926  0.2511
23465W        W41669   0.521   1.855   1.438  0.0017  0.1515  0.1544
23466W        W41670  16.218   2.501  12.137 -0.0530  0.0518  0.0389
23467W        W41671  15.149   0.794  15.353  0.2459  0.2488 -0.0685
23468W        W41672   9.537   8.838  15.353 -0.0950 -0.0431  0.3149
23469W        W41673   0.994  14.205   2.598  0.1208 -0.0726 -0.2083
23470W        W41674   8.514  15.648  17.015 -0.4667  0.1155  0.0830
23471W        W41675   9.750   0.862   3.568  0.0921 -0.2439 -0.1078
23472W        W41676   3.599   1.185  15.000 -0.2435  0.4184  0.2437
23473W        W41677   1.914   0.828  14.306 -0.0178  0.2502  0.1011
23474W        W41678  14.859  11.916   4.921 -0.0509 -0.0603  0.2423
23475W        W41679  17.276   4.331   2.048  0.1305  0.0871  0.1058
23476W        W41680  12.299   2.514  13.478  0.1476  0.0729  0.2039
23477W        W41681   0.310  14.325  17.140 -0.0027 -0.1436  0.2016
23478W        W41682  10.084   2.282  17.335  0.1954 -0.1232  0.2877
23479W        W41683  15.213   1.204   2.105 -0.1189  0.0001  0.0702
23480W        W41684   4.117   4.728   2.857  0.2798  0.0439 -0.0548
23481W        W41685   5.447  12.260   4.878  0.0517  0.1549  0.0332
23482W        W41686   9.835  16.319   0.688 -0.0112 -0.0350 -0.1198
23483W        W41687   4.822   2.402   1.527 -0.0057 -0.1751  0.2292
23484W        W41688  15.263  14.278  12.701 -0.1827 -0.0689  0.0302
23485W        W41689  14.249   1.424  13.574 -0.1884  0.0566  0.0464
23486W        W41690  11.200   6.486  16.024  0.0328 -0.0952 -0.1465
23487W        W41691  15.870   8.719  12.992 -0.0550 -0.0764 -0.1578
23488W        W41692  11.509  12.824   3.460 -0.1738 -0.0744  0.1558
23489W        W41693   2.978   7.655  17.503 -0.2000  0.1538  0.2656
23490W        W41694   5.513   9.253   1.746  0.1486 -0.1428 -0.0036
23491W        W41695  10.209  14.038  16.908 -0.0243  0.1899  0.1452
23492W        W41696  17.277   1.362   3.862 -0.0409 -0.0724  0.0511
23493W        W41697   1.703   2.312   0.960 -0.0398  0.1757  0.1531
23494W        W41698  13.427  15.785   4.714  0.1479  0.2294 -0.0966
23495W        W41699   0.998   5.610  13.969  0.1343 -0.0500 -0.1107
23496W        W41700  11.663  10.856   0.641 -0.2093 -0.1836 -0.1980
23497W        W41701   6.831  11.999   2.509  0.0448 -0.0788 -0.2556
23498W        W41702  13.401   0.247   0.261  0.1033  0.1105  0.1970
23499W        W41703  16.952   5.175   1.691 -0.1717 -0.1949  0.1682
23500W        W41704   4.254  12.265  17.112  0.3138 -0.2106 -0.3496
23501W        W41705   6.270   4.816   0.916 -0.1112  0.0593 -0.0639
23502W        W41706   8.825  16.993  13.134  0.1968  0.1531 -0.1075
23503W        W41707  13.894   5.990   3.421 -0.0332  0.0850  0.0972
23504W        W41708   5.923  15.179   2.399 -0.1837 -0.0710 -0.1153
23505W        W41709   1.141   7.458   4.260  0.3042 -0.0297  0.1441
23506W        W41710   1.469   0.829  16.025  0.2275 -0.1131  0.2432
23507W        W41711   0.524   8.738   3.822  0.1965  0.1054 -0.0740
23508W        W41712  10.581   4.229   6.022  0.0257 -0.0789  0.2006
23509W        W41713   9.534   9.328  14.439 -0.1997  0.1367  0.1940
23510W        W41714   6.215   9.251  16.079 -0.2139 -0.0274 -0.0652
23511W        W41715  17.018  12.282  13.518 -0.0353  0.2857 -0.0886
23512W        W41716  16.862  13.449   1.917  0.0376 -0.2255  0.0082
23513W        W41717   4.504   1.035  16.255 -0.0638  0.1369 -0.1604
23514W        W41718   4.521   8.864   5.372 -0.0874  0.0022  0.1800
23515W        W41719   1.656   1.750  15.087 -0.0336  0.1796  0.2169
23516W        W41720  14.653   9.715  15.834 -0.0552  0.3478  0.1246
23517W        W41721   2.114   6.056   4.985 -0.2574  0.1158 -0.0272
23518W        W41722   9.042  14.696  12.219 -0.3273  0.2145  0.0601
23519W        W41723   7.474   6.511  14.598 -0.1084 -0.3299 -0.0649
23520W        W41724   6.305   3.790  11.971  0.0746 -0.1943  0.1246
23521W        W41725   7.114   9.489   0.832 -0.1346 -0.3562  0.0948
23522W        W41726   1.910   5.243   4.377 -0.2133  0.0859  0.3452
23523W        W41727  10.994  17.201  17.496  0.1611 -0.0936 -0.1066
23524W        W41728   3.200   5.335   4.660  0.0600  0.3794  0.0467
23525W        W41729  13.882   9.972   1.576 -0.2085 -0.0290 -0.3719
23526W        W41730   9.860   6.440   0.491 -0.2653 -0.1255 -0.1139
23527W        W41731   8.455   8.749   4.271  0.2114 -0.2757  0.3120
23528W        W41732   4.937  16.707   3.654  0.1453 -0.2117 -0.0509
23529W        W41733   0.065   7.259   3.266 -0.2223 -0.2237 -0.1878
23530W        W41734   0.175   9.959   0.675 -0.1936 -0.3448 -0.0631
23531W        W41735  14.184  13.589  12.678  0.0622  0.1640  0.1837
23532W        W41736   6.078   3.935   3.107  0.2357 -0.0402  0.2238
23533W        W41737   7.805   3.056  12.910 -0.0177 -0.1675  0.0168
23534W        W41738   7.008   2.275   4.774 -0.1584 -0.1049  0.0783
23535W        W41739   0.625   6.164  15.291 -0.1311  0.0458  0.2847
23536W        W41740   7.166   8.556   5.165  0.2505 -0.0205  0.0292
23537W        W41741   7.589  15.972   0.888 -0.0403 -0.0859 -0.0756
23538W        W41742   0.371  16.365  13.641 -0.2918  0.3134  0.1794
23539W        W41743   5.890   3.454  17.204  0.0615  0.0549  0.0034
23540W        W41744   3.112   0.056  14.507 -0.2220 -0.0210 -0.0423
23541W        W41745  12.320   8.346   4.880  0.0531  0.1382  0.1422
23542W        W41746   6.867   5.008  12.404 -0.1115 -0.2002 -0.3113
23543W        W41747   4.934   8.982   0.617  0.0248 -0.1637  0.1888
23544W        W41748   6.487  16.216  15.313  0.0394  0.1614 -0.0578
23545W        W41749   0.872   3.643   3.331  0.0763  0.1304 -0.0382
23546W        W41750  13.704   3.803   2.259 -0.1598  0.0987  0.0047
23547W        W41751   0.730   1.427  12.786 -0.1051 -0.1077 -0.1474
23548W        W41752  12.930  14.626  15.941 -0.0461 -0.2400 -0.4623
23549W        W41753  16.089   6.152   1.767 -0.1062  0.0307  0.0181
23550W        W41754   8.503  16.917   2.101 -0.1700  0.4455  0.1557
23551W        W41755   1.371   4.893  12.254  0.0974 -0.0082  0.0542
23552W        W41756  16.347   4.436  16.293  0.2221  0.0302  0.1660
23553W        W41757   9.682  16.101   4.442 -0.2038 -0.1543  0.0918
23554W        W41758   8.697   4.785   0.625 -0.0474 -0.0712 -0.2492
23555W        W41759   3.678  13.402   3.274 -0.0112  0.3848 -0.0636
23556W        W41760  11.902   3.365  15.209 -0.1808 -0.1369  0.0449
23557W        W41761  16.921  16.921  15.283  0.2028 -0.0006  0.2362
23558W        W41762  13.320   4.102   4.456  0.2927 -0.1241  0.2120
23559W        W41763  16.324   2.459  16.837 -0.1591  0.0653 -0.0945
23560W        W41764   6.187   2.921   4.187  0.1003  0.1404  0.1618
23561W        W41765   3.218  14.724   0.830  0.1492 -0.2040  0.2320
23562W        W41766   4.201   7.600   5.284 -0.1525 -0.0603 -0.4126
23563W        W41767   4.532  14.649   0.121  0.1709  0.1473 -0.0310
23564W        W41768  12.112   5.962   0.497 -0.3398 -0.2483 -0.0298
23565W        W41769  13.445   1.000   3.156 -0.0406  0.0689 -0.1319
23566W        W41770   6.347  10.157   4.629 -0.1196  0.1823 -0.3128
23567W        W41771  13.432  10.719   5.358  0.0071  0.0886  0.0076
23568W        W41772  13.983  17.188  15.488 -0.0897 -0.0409 -0.1625
23569W        W41773  16.923  14.521   3.925  0.1918  0.4234 -0.0565
23570W        W41774   4.957  14.178  14.942  0.0994 -0.1282 -0.3279
23571W        W41775  10.376  10.971  12.865  0.0014 -0.0942  0.3902
23572W        W41776  13.810  13.651   0.121 -0.0427  0.2971  0.3231
23573W        W41777   7.017   7.106  17.459  0.1001 -0.2660 -0.1289
23574W        W41778  16.542   9.829  16.998 -0.2846  0.0540 -0.1824
23575W        W41779   0.100   7.831   3.452  0.1803 -0.2297  0.0485
23576W        W41780  15.757   2.017   0.509 -0.1608 -0.1746 -0.2496
23577W        W41781   9.433   6.651  13.144 -0.1076 -0.1264  0.2317
23578W        W41782   5.826  15.155  15.556 -0.2289 -0.0595 -0.3287
23579W        W41783   2.190  13.142  14.844  0.0839 -0.1246  0.0850
23580W        W41784   8.125   1.487   4.468  0.0984 -0.3209 -0.0981
23581W        W41785  16.611  12.206  15.521  0.0637  0.1452  0.3455
23582W        W41786   7.616  16.757   5.648  0.4479 -0.0787  0.3247
23583W        W41787  10.089   7.940   4.892  0.2027  0.1077  0.1174
23584W        W41788   1.680   7.924   0.979  0.1136 -0.0887 -0.0218
23585W        W41789   5.472  12.631  13.827 -0.2613 -0.6262  0.1833
23586W        W41790   2.807   8.441   3.415  0.2169 -0.1361 -0.0816
23587W        W41791  12.289   8.289  12.763  0.1041  0.1567  0.0258
23588W        W41792   0.383   9.505   0.973 -0.1468  0.2633 -0.1729
23589W        W41793   0.483   6.469   4.898 -0.1971 -0.1511  0.0918
23590W        W41794   6.203   4.209  15.928  0.1108 -0.2022  0.0665
23591W        W41795   0.643   2.421   2.257 -0.0164  0.2702  0.1039
23592W        W41796  13.040   0.353  13.313 -0.0495  0.0842  0.1410
23593W        W41797  14.664  15.200  14.858 -0.3292 -0.1351 -0.0473
23594W        W41798   3.006  12.436   5.470 -0.1848  0.2593  0.1839
23595W        W41799   6.846  10.515   3.028  0.1581 -0.0191 -0.0872
23596W        W41800   3.176   1.491  12.401 -0.2746  0.2525  0.1341
23597W        W41801   2.834  12.847   3.433  0.0895  0.0683  0.0923
23598W        W41802   1.717   0.707   2.322 -0.0973  0.4509 -0.0178
23599W        W41803   2.468  15.821  14.033 -0.1407  0.0221  0.0709
23600W        W41804   5.275   5.272  16.078  0.1244 -0.0059  0.3020
23601W        W41805   5.320   5.122   4.982  0.0436  0.0397  0.0769
23602W        W41806   1.622   6.424  16.156 -0.6539  0.1800 -0.2371
23603W        W41807   6.338  11.786  17.115  0.0490 -0.0533  0.0464
23604W        W41808  11.896  10.480   2.012 -0.0582  0.0775 -0.1063
23605W        W41809   9.199   1.356  17.139 -0.0853  0.3095  0.1048
23606W        W41810  12.482  16.436  12.960  0.0709 -0.2582 -0.3332
23607W        W41811   9.911  12.836   3.097  0.3014 -0.0017  0.0410
23608W        W41812   4.223   9.533   0.663  0.0862 -0.0256  0.0799
23609W        W41813  13.213   8.333  15.670 -0.1642  0.0993  0.2427
23610W        W41814  12.961  14.417  13.911 -0.0539 -0.0828  0.0420
23611W        W41815  14.704  14.106   1.259 -0.0858  0.0317  0.0156
23612W        W41816   4.022  13.602   2.414  0.0138 -0.0463  0.0811
23613W        W41817   9.858  10.198   5.011 -0.0915 -0.3030  0.0597
23614W        W41818   1.135   4.185  14.224  0.1270 -0.0033 -0.0739
23615W        W41819   6.080  13.946  17.051  0.0378 -0.0693  0.0138
23616W        W41820   2.051  16.725   5.260 -0.0665  0.0989 -0.2562
23617W        W41821   9.634  11.172   4.728 -0.1347 -0.1007  0.0378
23618W        W41822   9.928   2.483  12.744  0.1382  0.1375 -0.2267
23619W        W41823  14.042  12.663  14.092  0.0812  0.2062  0.0992
23620W        W41824   7.490  17.287  12.461  0.1239  0.2564  0.0987
23621W        W41825   6.035   8.099   4.774 -0.0312 -0.1166 -0.1385
23622W        W41826   1.386  13.684  16.055 -0.1216 -0.0731 -0.0764
23623W        W41827   9.012   7.094   1.110 -0.0616  0.2249 -0.1260
23624W        W41828   6.860   1.780   3.885 -0.0366 -0.1905 -0.1174
23625W        W41829  16.714  10.344   0.154 -0.0173 -0.0053  0.2453
23626W        W41830   6.018   9.465  12.224 -0.0582  0.1074  0.1896
23627W        W41831  17.258   4.782  12.398 -0.1389  0.1642  0.2360
23628W        W41832   7.075  10.592  14.733  0.2427  0.0417 -0.3222
23629W        W41833  13.103  14.133  15.763  0.1278  0.2129 -0.1118
23630W        W41834   0.004   5.249   4.418  0.1813 -0.2037 -0.2307
23631W        W41835   5.502   0.632   3.680 -0.0461 -0.0083  0.2751
23632W        W41836   2.947   2.482  16.108 -0.1939 -0.2993 -0.0286
23633W        W41837  17.001  17.232  16.651  0.0367  0.1775  0.0881
23634W        W41838  14.929   8.946  13.384  0.1613  0.3275  0.3943
23635W        W41839   0.979  16.512   4.965 -0.1406  0.0608 -0.3878
23636W        W41840  10.496  12.347  14.182 -0.0711  0.1895  0.0023
23637W        W41841   3.729  17.198   4.447  0.0206 -0.2801 -0.2547
23638W        W41842   3.550   0.011  16.413 -0.4043 -0.0751 -0.2972
23639W        W41843   4.672   8.578  16.423 -0.0638 -0.2734  0.1575
23640W        W41844  13.700  16.123   3.231 -0.0699 -0.0026  0.0611
23641W        W41845   2.427   8.780   0.282 -0.0276  0.2730  0.2349
23642W        W41846   7.809   0.597   4.226  0.0771 -0.1177  0.0356
23643W        W41847  16.814  13.389   0.110  0.2073  0.0498  0.1534
23644W        W41848  16.808   5.057   3.778 -0.0978  0.0856 -0.2704
23645W        W41849   9.021   3.876  12.414 -0.3309 -0.2237 -0.2231
23646W        W41850   3.169  16.646   1.856 -0.2471  0.0400  0.0335
23647W        W41851  16.945   7.337   1.913 -0.1250  0.6111 -0.2768
23648W        W41852   3.487  15.290   3.223 -0.0225 -0.1046 -0.2355
23649W        W41853   5.786   6.006   3.031  0.0201  0.1868  0.0523
23650W        W41854   6.945   3.700  12.509  0.0437 -0.0302  0.2141
23651W        W41855  13.389   6.539   5.990  0.0474 -0.0173 -0.0517
23652W        W41856   6.447  17.121  12.453  0.2960 -0.1794 -0.0297
23653W        W41857  11.908  14.564   1.732 -0.0614 -0.1132  0.2396
23654W        W41858   9.873  11.608  13.234  0.0707 -0.0415  0.0222
23655W        W41859  17.271  17.173  13.180 -0.0443  0.1205  0.0475
23656W        W41860   9.495  17.050   2.169 -0.0009  0.0583  0.2708
23657W        W41861   5.973  13.373  12.565  0.2378  0.3460  0.0407
23658W        W41862   7.744  17.177  15.547  0.4409  0.0136  0.2921
23659W        W41863  10.474   6.170   1.650  0.1369 -0.2650 -0.0004
23660W        W41864   9.634  17.110  13.563  0.2343 -0.4542  0.2440
23661W        W41865   0.980  16.375   1.899  0.1237 -0.0191  0.0614
23662W        W41866   4.032   3.065  16.044  0.0286  0.1469  0.0560
23663W        W41867   1.672   7.326   5.102 -0.1507 -0.0053 -0.1835
23664W        W41868   3.890  16.896   4.933 -0.1368 -0.1784  0.3425
23665W        W41869   0.994   3.540   0.681  0.0509 -0.0930  0.0380
23666W        W41870  12.192  14.127  15.672  0.2596  0.1778 -0.1205
23667W        W41871   8.223   1.542   1.990  0.2312 -0.1545 -0.1256
23668W        W41872  14.485   0.001  15.480  0.0518 -0.1216 -0.2234
23669W        W41873   9.796   0.484   2.675  0.1315  0.0659 -0.0506
23670W        W41874   0.899  15.353   4.160  0.0067  0.1125  0.1779
23671W        W41875  10.771   3.024   5.991 -0.1197  0.0494  0.1201
23672W        W41876  10.666  11.576   2.232  0.1190 -0.0979 -0.1330
23673W        W41877   5.134   9.402  14.401  0.1741 -0.0620 -0.0278
23674W        W41878  16.400   9.662  16.206  0.3648 -0.3210  0.1900
23675W        W41879   7.924   1.186   1.249 -0.0718  0.0843 -0.0882
23676W        W41880  14.636  17.290  12.002  0.0587  0.1159 -0.0136
23677W        W41881   5.321   9.333   3.777 -0.1885 -0.3588 -0.1541
23678W        W41882   7.300  15.199  12.949  0.2375 -0.0427 -0.1904
23679W        W41883  13.060  15.434   4.640  0.0160  0.1938 -0.0090
23680W        W41884   7.551  13.875  14.183  0.1610  0.0352 -0.1688
23681W        W41885  17.233   6.474  12.583  0.1203  0.0962 -0.0628
23682W        W41886  14.371   9.976  16.201 -0.2389  0.0151 -0.5422
23683W        W41887   5.687  10.410  16.660  0.1446 -0.2211  0.4672
23684W        W41888   3.778   8.624   1.143 -0.0222 -0.0520  0.1003
23685W        W41889  16.752  13.955   4.086  0.1823  0.0163  0.0199
23686W        W41890  15.565  10.758   3.847 -0.1126 -0.3745  0.1899
23687W        W41891   2.506   6.676   3.895 -0.0635 -0.0357 -0.1700
23688W        W41892  13.503   2.949   3.271 -0.2416 -0.1481 -0.1904
23689W        W41893  12.331   7.349  14.303  0.0360  0.1564  0.0870
23690W        W41894  11.762   0.004   0.273  0.0503  0.1323  0.2399
23691W        W41895  16.367  14.205   5.656  0.1453  0.0646  0.1574
23692W        W41896   4.226  17.207   2.271  0.0885 -0.2065 -0.0029
23693W        W41897   1.842   0.474  15.981 -0.2714 -0.1332  0.0982
23694W        W41898   1.243  13.185   2.286  0.0562  0.1263 -0.1148
23695W        W41899   4.619  13.190   3.983  0.1835 -0.0026 -0.1863
23696W        W41900  10.540   8.204  12.758  0.1955 -0.2198 -0.1304
23697W        W41901   9.575  16.964  16.875  0.3149  0.3975  0.2139
23698W        W41902   9.016   6.574  12.146 -0.0968  0.0180  0.0276
23699W        W41903  12.942   3.067   3.253  0.0946 -0.1239 -0.2444
23700W        W41904   4.419  16.771  13.133 -0.0293  0.1647 -0.0796
23701W        W41905  13.110   7.345   3.430 -0.0796  0.0671  0.4079
23702W        W41906  13.454   0.831   1.641 -0.1952  0.2309  0.2649
23703W        W41907   0.855  14.384  17.123 -0.0808 -0.0439  0.1351
23704W        W41908   8.407   0.900   6.369  0.1880 -0.1388 -0.1166
23705W        W41909   9.244   4.951   4.570 -0.2663  0.0240 -0.0383
23706W        W41910   5.453  16.104   0.231  0.0603 -0.1392 -0.2028
23707W        W41911  10.615  11.652   1.161  0.0216  0.0745 -0.0989
23708W        W41912  10.724   1.269   0.553 -0.1286 -0.1852  0.3012
23709W        W41913   0.029   6.679   2.614  0.2486  0.0364  0.1507
23710W        W41914  17.013  13.734   3.306 -0.0582 -0.1504  0.2458
23711W        W41915   7.024   9.836   2.873  0.2974  0.1564 -0.2018
23712W        W41916   2.683   8.005   6.021  0.0055  0.1065 -0.1478
23713W        W41917   0.231   9.639   4.223  0.2608 -0.0112  0.0659
23714W        W41918   7.760  10.480   1.617  0.1879  0.5091  0.0502
23715W        W41919   1.242   4.098  17.376 -0.2150 -0.2471  0.0486
23716W        W41920   6.718  14.936   2.651  0.0165 -0.1144 -0.1008
23717W        W41921  10.583  15.870  17.235 -0.0586  0.1695 -0.1040
23718W        W41922   9.824  13.606  17.118 -0.2421 -0.2780 -0.0902
23719W        W41923  15.160  11.790  13.569  0.1936  0.0017  0.1432
23720W        W41924  10.990   6.873   4.903 -0.2178 -0.3412 -0.0759
23721W        W41925  17.104   9.538   3.464  0.0099  0.2756  0.0409
23722W        W41926  14.145   1.862  15.050 -0.0709 -0.1974  0.1201
23723W        W41927   5.345  11.060  17.153 -0.0772  0.1037 -0.1206
23724W        W41928   1.078   1.129  13.712 -0.0339 -0.2256  0.2615
23725W        W41929   6.486   7.789   0.972 -0.2527 -0.1738 -0.2300
23726W        W41930   1.674  15.785  13.125  0.0837  0.2198 -0.0011
23727W        W41931   3.115   4.196   0.989 -0.0447  0.0405  0.0191
23728W        W41932   1.561   2.545   3.169 -0.2513  0.1025 -0.1238
23729W        W41933   1.638   1.921  15.928 -0.1812 -0.0061 -0.0421
23730W        W41934  17.280  14.733   4.327 -0.0936  0.2135  0.1708
23731W        W41935  17.103   7.590   1.477  0.0071 -0.1295  0.0590
23732W        W41936  15.348   6.389   1.370  0.0393  0.0561  0.2251
23733W        W41937   3.998   6.703  13.934 -0.3281 -0.1876  0.2044
23734W        W41938  16.087   5.350  17.076  0.0538  0.0236 -0.2099
23735W        W41939  15.870  14.763  17.301  0.0967  0.1301 -0.0204
23736W        W41940   3.605   7.958  16.504 -0.1796 -0.3228  0.1697
23737W        W41941   5.502  14.301   4.712  0.3490  0.1104  0.3430
23738W        W41942   1.794  11.058   0.278  0.3467  0.2038  0.0601
23739W        W41943  14.986   2.416  16.038 -0.3289 -0.0073 -0.3639
23740W        W41944  15.009  14.965   4.569 -0.2215 -0.0254 -0.2582
23741W        W41945   8.089   1.185   2.954  0.0287 -0.0245  0.1336
23742W        W41946   0.705  13.085  17.379 -0.0775  0.0725  0.0746
23743W        W41947   9.043  10.772   1.861 -0.2966  0.2504 -0.1469
23744W        W41948   0.725   1.455  13.673  0.0096  0.0434  0.0852
23745W        W41949   2.348  10.633   4.279  0.2239  0.1004  0.0925
23746W        W41950   5.129   8.595   2.379  0.1489 -0.2839  0.0234
23747W        W41951  13.775   4.325  16.959  0.0979  0.0441  0.0654
23748W        W41952   1.227  13.867  15.298  0.2204 -0.1291 -0.3018
23749W        W41953  15.092   8.000   2.222 -0.1463  0.2979  0.0877
23750W        W41954   7.643  12.804  13.829 -0.1598  0.1801 -0.1160
23751W        W41955  10.601   5.964   4.990  0.0035  0.1181  0.0356
23752W        W41956   2.621  14.876  14.356  0.4264 -0.0716 -0.0787
23753W        W41957   6.892  13.047   1.470 -0.1535 -0.1304 -0.1081
23754W        W41958   8.533   9.131   4.607  0.0897 -0.1906 -0.1814
23755W        W41959  13.719  10.845  15.941  0.1362 -0.0085 -0.0652
23756W        W41960  16.844   8.686   2.377  0.0458 -0.2721 -0.1608
23757W        W41961  12.997  17.227   6.448 -0.1749  0.2959  0.0056
23758W        W41962   1.781  16.049  15.474  0.0275 -0.1403  0.1679
23759W        W41963   3.745   0.200  13.019  0.2837  0.0720 -0.2222
23760W        W41964  12.010  13.463   2.379  0.3001  0.2091  0.0708
23761W        W41965  17.144   5.215   5.863 -0.1374  0.1847  0.0948
23762W        W41966   2.353   7.583   3.634  0.1130 -0.1938 -0.0225
23763W        W41967   3.890   6.383   2.261  0.1832 -0.3107 -0.0979
23764W        W41968   3.673   0.451   3.125  0.0776  0.0738 -0.1688
23765W        W41969  15.529   8.207   0.132 -0.1500 -0.0888  0.2364
23766W        W41970   6.054  14.192   0.532  0.0074  0.1409  0.1301
23767W        W41971  12.157  13.622  14.022 -0.0392  0.2587  0.0457
23768W        W41972  15.997  14.490   4.496  0.1375  0.1278 -0.0321
23769W        W41973  14.637   5.613   4.524 -0.1049  0.1511 -0.2672
23770W        W41974  14.533   1.043  12.763  0.0071  0.4185 -0.1822
23771W        W41975  12.512   8.381  14.909  0.2518  0.0233  0.0996
23772W        W41976   6.138   5.195   2.642 -0.2019  0.0671  0.1174
23773W        W41977  15.675   5.383   5.220 -0.4293  0.2066  0.1573
23774W        W41978   0.748   9.878   4.085 -0.0501  0.0186  0.0973
23775W        W41979  13.362   4.730  12.432 -0.1965 -0.1079  0.0990
23776W        W41980   4.613   4.101  14.909 -0.1056  0.0940  0.0403
23777W        W41981   2.905  14.421   2.461  0.4498  0.0954  0.3566
23778W        W41982   7.244  10.300  17.324 -0.0769  0.2377 -0.0948
23779W        W41983   1.814   8.725   4.496 -0.1351  0.1364  0.0565
23780W        W41984   6.849   4.495   1.434 -0.0573 -0.3231 -0.3110
23781W        W41985   8.089   2.672   4.994 -0.1476  0.2064  0.3341
23782W        W41986  11.111   0.516  16.421  0.0603 -0.0934  0.0878
23783W        W41987   4.356   2.526   1.770 -0.1781  0.0550 -0.0007
23784W        W41988  16.620  12.692   3.609  0.1103 -0.0277  0.3623
23785W        W41989  10.901   1.844   2.653 -0.0993 -0.0170 -0.1903
23786W        W41990   1.064  11.265  13.132 -0.0477  0.0653  0.0295
23787W        W41991   4.683  10.434  13.389 -0.0465 -0.3338  0.1039
23788W        W41992  10.132   0.830   5.138  0.1488  0.1000  0.0700
23789W        W41993   6.153   2.525   3.231 -0.0569  0.2561  0.0586
23790W        W41994   5.554  10.594  15.459 -0.0548 -0.1646 -0.1179
23791W        W41995   4.197  15.877  15.804  0.2548 -0.1252 -0.0731
23792W        W41996   7.071   9.837  15.230  0.1471  0.1629 -0.0104
23793W        W41997   8.406   5.007   0.239  0.1594 -0.1126  0.0262
23794W        W41998   7.243  12.207  11.468 -0.1316  0.1334  0.1505
23795W        W41999   9.117  10.665  15.903 -0.2094  0.0648 -0.0804
23796W        W42000  17.099  14.027   3.666  0.0502  0.0163 -0.2253
23797W        W42001   4.689  13.815   0.650 -0.2167  0.0654 -0.1539
23798W        W42002   7.044   8.486   1.929  0.0821  0.3656 -0.0584
23799W        W42003  15.393   9.869  16.158  0.0911  0.0922  0.1407
23800W        W42004   1.453   4.317   0.312 -0.1471  0.3709  0.1418
23801W        W42005  13.561  10.248   4.601 -0.1414 -0.0883  0.1401
23802W        W42006  11.902  13.209   1.943 -0.1097  0.2569  0.3602
23803W        W42007   7.222  10.839  15.198 -0.2525  0.2590 -0.1263
23804W        W42008   8.397   5.930   5.230  0.0328 -0.1446  0.1392
23805W        W42009   1.315   6.148   4.310  0.2353  0.2111  0.2137
23806W        W42010   8.159   0.694   0.514  0.2258  0.1196  0.2079
23807W        W42011   1.821   2.185   3.852 -0.1632 -0.0839  0.3274
23808W        W42012  10.066   1.768   2.209  0.0411  0.0930 -0.2524
23809W        W42013   8.375   5.358  16.167  0.0050 -0.0657 -0.0477
23810W        W42014   8.253   3.568  12.903 -0.0289 -0.1270 -0.0612
23811W        W42015  13.043  15.635  14.234  0.1533 -0.1930  0.0328
23812W        W42016   2.850   2.086  14.851 -0.0507 -0.3360 -0.1688
23813W        W42017   9.957   4.782   3.920  0.1149  0.1406  0.0769
23814W        W42018  14.431  14.584  15.860  0.0935  0.1322 -0.1577
23815W        W42019  10.004   6.185  13.966 -0.2444  0.0656 -0.0460
23816W        W42020   8.815  16.912  12.524 -0.0001  0.1747  0.1904
23817W        W42021   1.316  10.952   1.592 -0.0073  0.2468 -0.0172
23818W        W42022  12.137   0.469  13.433 -0.0298  0.3417 -0.2248
23819W        W42023   4.501   9.133   1.830 -0.1219 -0.0575  0.1690
23820W        W42024   3.302   4.953   0.255  0.2141  0.3591  0.0474
23821W        W42025   0.231  13.301   4.431 -0.1466 -0.0921 -0.1424
23822W        W42026   5.790  17.191  14.293  0.0429 -0.2030 -0.0795
23823W        W42027   0.404   4.905   2.772  0.2336 -0.1569 -0.0451
23824W        W42028   5.962   0.615   0.475 -0.0768 -0.2521 -0.0545
23825W        W42029   7.896   3.804   0.280  0.0863 -0.1028 -0.2110
23826W        W42030   9.971   9.844   1.560 -0.2916  0.2532 -0.0527
23827W        W42031  11.221   1.972   5.167 -0.2309 -0.0809 -0.2601
23828W        W42032   0.466  17.025  14.736 -0.1470 -0.2166  0.2239
23829W        W42033  15.018  12.408  15.671 -0.0603  0.1495  0.0576
23830W        W42034  15.477   7.920   1.499  0.0936 -0.0297 -0.2251
23831W        W42035   3.490  11.319   2.226 -0.2946 -0.0706  0.0920
23832W        W42036   1.394   6.396   2.573 -0.1121  0.4100 -0.2137
23833W        W42037  14.415   8.910   4.277  0.0742 -0.1556  0.3120
23834W        W42038   8.860  10.132   2.732 -0.1757 -0.0382  0.2879
23835W        W42039   0.482   0.579  13.612 -0.0039 -0.0230 -0.0318
23836W        W42040   1.446  14.888   4.300  0.3993 -0.0611  0.1317
23837W        W42041   1.826   8.164  13.654 -0.1842  0.0727  0.1749
23838W        W42042   6.855  10.508   0.795  0.0276 -0.1592 -0.0259
23839W        W42043  12.730   1.844  17.109 -0.0914  0.1387 -0.0577
23840W        W42044  11.902   3.958  13.628  0.1557 -0.3478 -0.0875
23841W        W42045   2.691   4.687   3.409  0.1602 -0.1449 -0.0272
23842W        W42046  16.281   5.105   0.971  0.1410 -0.1613 -0.2939
23843W        W42047   4.059   3.241  15.077  0.1432  0.1880 -0.0656
23844W        W42048   3.055  10.722   1.539 -0.0823 -0.0255  0.2140
23845W        W42049   7.471   5.829  14.877  0.0234 -0.0237  0.0346
23846W        W42050  13.717   8.620  13.708 -0.1987 -0.3312 -0.1769
23847W        W42051  15.670  14.282  13.595  0.2055  0.2367  0.0869
23848W        W42052   7.004   1.349  13.978 -0.0717  0.0497  0.1763
23849W        W42053  15.132   4.955  15.925  0.1592  0.1811  0.0133
23850W        W42054   3.424   3.748   6.127  0.0834  0.0657 -0.1662
23851W        W42055  16.020  11.501   1.379 -0.4231  0.3465 -0.1056
23852W        W42056   1.751  11.688   4.729  0.2009 -0.0311  0.0410
23853W        W42057  13.422  11.405   1.726  0.0677 -0.3957  0.0932
23854W        W42058   1.813   4.339  12.806 -0.0393  0.1124  0.0007
23855W        W42059   6.061  16.975   1.630  0.3562 -0.4039 -0.1150
23856W        W42060   1.602   9.272   0.150  0.0971 -0.0579  0.2049
23857W        W42061   4.644   0.938   1.543 -0.1186  0.4053 -0.1135
23858W        W42062   0.198  12.281   4.693  0.0426  0.1310 -0.0252
23859W        W42063   5.275   2.200   4.681  0.0744 -0.1122  0.0977
23860W        W42064   1.504  16.067   0.563 -0.1466 -0.1987 -0.1026
23861W        W42065  12.054   0.012  12.034 -0.0635 -0.2183  0.1465
23862W        W42066   2.710   0.302  14.053 -0.0366  0.2217  0.1426
23863W        W42067   4.192   0.649  16.286  0.0788 -0.2263 -0.4259
23864W        W42068   4.019   5.819  13.562 -0.5343  0.0871 -0.0282
23865W        W42069   0.762  12.412   3.185 -0.0914 -0.0625  0.2589
23866W        W42070  16.344  10.195  14.459  0.0428 -0.1685 -0.1065
23867W        W42071  13.040  14.380  13.331  0.0031 -0.0867  0.1103
23868W        W42072   4.179   0.586  13.970 -0.0986 -0.0390 -0.0695
23869W        W42073   4.953   4.537  14.255 -0.1048  0.0862  0.2435
23870W        W42074   9.529   1.594  14.475  0.2565  0.1958 -0.0994
23871W        W42075   8.542   9.253   0.960 -0.1376 -0.3976 -0.0662
23872W        W42076  14.864   0.229  13.775  0.1054 -0.1064  0.0735
23873W        W42077   4.190   8.627   0.359  0.2024  0.0091  0.0947
23874W        W42078  11.520  12.331   4.583  0.1477  0.0649  0.0419
23875W        W42079  13.771  13.823  14.733  0.2510 -0.1325  0.3269
23876W        W42080   9.439  13.673   4.119 -0.0584 -0.2783  0.0509
23877W        W42081   9.576  15.055  17.487  0.0291 -0.2298 -0.0602
23878W        W42082   3.551   5.640  13.852  0.1701  0.1735 -0.0588
23879W        W42083  10.359  16.121  12.277 -0.3039  0.0456  0.0280
23880W        W42084   2.952   4.699   3.868  0.0441 -0.2662 -0.1453
23881W        W42085   9.964   9.776   3.281  0.0220 -0.0192 -0.3055
23882W        W42086  14.769   8.192   4.888 -0.0833  0.0860  0.4198
23883W        W42087   2.889  10.367  12.417 -0.2403 -0.1240  0.2070
23884W        W42088  15.885   8.451   0.412 -0.1178 -0.1091  0.0681
23885W        W42089   3.843  14.791   1.283  0.2940  0.1883 -0.1623
23886W        W42090   9.882   5.442  11.957  0.3446 -0.2926 -0.0702
23887W        W42091   8.085   4.111  12.931  0.1296  0.2576 -0.0223
23888W        W42092   5.091   2.909  14.472  0.1151 -0.4927  0.1078
23889W        W42093   3.041   8.128   1.601  0.3270  0.3123 -0.2812
23890W        W42094   6.942  13.685  17.347  0.2594  0.0866 -0.0840
23891W        W42095   0.551   1.389  16.257 -0.1965  0.2114  0.1087
23892W        W42096  17.004  16.478  14.176 -0.2198 -0.0419 -0.1280
23893W        W42097   3.357  10.815   4.295 -0.1851 -0.0639  0.1671
23894W        W42098  14.725   0.606  12.805  0.1580  0.3424  0.1182
23895W        W42099   6.182  10.868  14.859  0.0891 -0.2094  0.0393
23896W        W42100   1.517  13.933  14.866 -0.0911  0.2236  0.0066
23897W        W42101   4.210   5.618  12.085  0.1709 -0.3032  0.1027
23898W        W42102   3.700   6.796  17.397  0.4064  0.2193  0.1264
23899W        W42103  10.107   6.679  14.584  0.1614 -0.2247 -0.0294
23900W        W42104   2.364   2.283  14.849  0.0969  0.2753  0.0787
23901W        W42105   6.002  13.024   2.555 -0.1059 -0.0146 -0.0505
23902W        W42106  10.774  15.426  17.140 -0.0711 -0.1369  0.1323
23903W        W42107  11.735  17.239  16.972 -0.0851  0.0451  0.2201
23904W        W42108   7.893   5.871   2.332  0.0892  0.2806  0.2167
23905W        W42109   1.060   2.736   0.084 -0.2786  0.2796  0.1772
23906W        W42110  14.517  13.489  13.925 -0.0928  0.0545  0.1994
23907W        W42111   1.845   8.151  12.912 -0.1239  0.1107 -0.0543
23908W        W42112  10.148   2.895  13.930  0.0008 -0.1785  0.1360
23909W        W42113   5.052  16.715  13.217 -0.0897  0.0377  0.0818
23910W        W42114  11.434  13.469  17.363 -0.0113 -0.3342 -0.0940
23911W        W42115  16.698  12.200   1.678 -0.2264 -0.3027  0.0059
23912W        W42116   2.729   7.080  13.406  0.1588 -0.0149 -0.2395
23913W        W42117   9.536   7.570   2.982 -0.0042  0.0610  0.1925
23914W        W42118  13.572  12.986   3.706  0.2425 -0.0174 -0.0929
23915W        W42119   2.670  11.261   4.814 -0.0063  0.0176  0.1602
23916W        W42120  17.144  11.918   2.524  0.1485 -0.3747  0.0950
23917W        W42121   6.786   9.599  12.657 -0.3280 -0.1633  0.0032
23918W        W42122   0.669   7.440   5.004  0.2071  0.0152  0.0268
23919W        W42123   7.059  12.326  17.302  0.0896  0.1130  0.0054
23920W        W42124   3.032   5.620  13.734 -0.0622  0.0047 -0.0471
23921W        W42125  13.853   7.353  12.351  0.1348  0.2716 -0.1577
23922W        W42126  12.635   8.145   4.090  0.1340 -0.0220 -0.0512
23923W        W42127   4.650  15.403   2.737 -0.1291 -0.1305  0.2878
23924W        W42128   9.227  15.313   3.320 -0.1964 -0.3217  0.1476
23925W        W42129   8.504   8.609  15.112 -0.2753 -0.1100  0.1609
23926W        W42130  14.942  12.103   3.469 -0.1421 -0.1393 -0.0964
23927W        W42131   7.008   9.132  13.568  0.0500  0.1211  0.3373
23928W        W42132   7.297   4.497  14.814 -0.0976 -0.0072  0.2124
23929W        W42133   2.651   7.986   0.269 -0.2154 -0.2600  0.2443
23930W        W42134   3.052   0.954   2.231 -0.0821 -0.2411  0.3509
23931W        W42135   5.716   9.478   2.907  0.0797 -0.1816  0.3283
23932W        W42136   2.456   5.541  12.351 -0.1724  0.3303 -0.1205
23933W        W42137   0.161   7.614  17.497 -0.1045 -0.1688  0.0666
23934W        W42138   9.922   6.407  12.222  0.2464  0.0475  0.3145
23935W        W42139   2.856  10.671   2.281 -0.0362  0.1181  0.0455
23936W        W42140   8.309   6.548  14.441 -0.0664 -0.1581  0.0724
23937W        W42141   9.243   1.500  14.879  0.2065  0.0852  0.0553
23938W        W42142   0.403  13.764   4.553  0.0552 -0.0525 -0.1282
23939W        W42143   8.071   3.946   3.215 -0.2648  0.2580  0.0491
23940W        W42144  15.492  10.859   2.962 -0.1270 -0.1536  0.3512
23941W        W42145  11.392   9.599   4.792 -0.0902  0.0215  0.1879
23942W        W42146   8.308   9.418  14.496 -0.0226  0.0803 -0.0661
23943W        W42147   0.924   4.081   5.124  0.1413  0.4568 -0.1915
23944W        W42148   1.735   0.628  15.145 -0.3323 -0.0678 -0.0228
23945W        W42149  13.109   5.118   3.504  0.1218 -0.0943 -0.0433
23946W        W42150  10.388   8.995   4.100  0.1159  0.2288 -0.0167
23947W        W42151  10.101  15.894   2.150 -0.2880  0.0928 -0.1726
23948W        W42152   2.003   3.092  14.743 -0.0354 -0.1369 -0.0397
23949W        W42153   2.683  10.397   1.831 -0.3103  0.5188 -0.0301
23950W        W42154  12.769  16.192   2.393  0.1351  0.0616 -0.3646
23951W        W42155  14.883  11.419   5.643  0.0104  0.0658 -0.0910
23952W        W42156   5.388   0.571   3.199 -0.3104 -0.0517 -0.1166
23953W        W42157  15.055   3.763  17.233  0.2534 -0.3094 -0.0576
23954W        W42158  13.045  16.374   1.068 -0.1687 -0.0873 -0.0934
23955W        W42159   6.714   3.936   0.834  0.0591  0.2394  0.1327
23956W        W42160  14.343   2.106  14.109 -0.2507  0.3227 -0.1674
23957W        W42161  12.637   3.947  12.372 -0.2792 -0.1477  0.1547
23958W        W42162   1.181   5.488  13.480  0.0560 -0.2315 -0.0210
23959W        W42163   1.979   2.386   4.871  0.1265  0.0887  0.0397
23960W        W42164   9.772   5.056   2.510  0.0245  0.2061  0.0296
23961W        W42165   4.720   7.311   2.927 -0.0592  0.0491  0.0447
23962W        W42166   5.692   6.595   3.656  0.1169 -0.0866 -0.0203
23963W        W42167  11.499   9.526  12.957  0.1839 -0.0172  0.0714
23964W        W42168  14.601  16.850   1.301  0.2527 -0.1910 -0.0770
23965W        W42169   4.129  15.673   4.483  0.2174 -0.0635 -0.1553
23966W        W42170  11.682  14.394   2.154  0.4183  0.1253 -0.3057
23967W        W42171   1.648  12.175   2.654  0.3185  0.1833  0.0549
23968W        W42172  11.417   0.339   0.683  0.1660 -0.0250  0.3086
23969W        W42173   3.817  10.056   1.627  0.1284  0.0412 -0.0204
23970W        W42174  12.329   3.512  17.043  0.2292  0.1716 -0.1973
23971W        W42175   8.347  13.309  14.726  0.1867 -0.4307  0.0767
23972W        W42176  10.904  16.357   5.221  0.2263  0.1791 -0.0897
23973W        W42177  13.419   8.786   4.152 -0.0586 -0.0892 -0.2269
23974W        W42178   6.559   0.922  16.313 -0.1623  0.0713  0.0035
23975W        W42179   2.890  10.658  15.726  0.1551 -0.1344  0.1287
23976W        W42180   5.680   6.043  12.534  0.2565 -0.1505 -0.3683
23977W        W42181  14.692   8.591  12.883  0.0698  0.1720  0.0028
23978W        W42182   7.682   0.507   0.258  0.1001 -0.1632  0.0289
23979W        W42183   5.059   5.561  13.686  0.1132  0.2994  0.0848
23980W        W42184  14.187   1.363   1.136 -0.1009 -0.1180  0.0195
23981W        W42185   6.763   5.507  12.101  0.1834 -0.1137  0.2298
23982W        W42186  14.986   0.291   2.589  0.0130  0.2567  0.0991
23983W        W42187   0.769  12.328   2.145 -0.1212  0.4883 -0.1497
23984W        W42188   6.500   1.393   3.173 -0.2550  0.0002 -0.1663
23985W        W42189   7.519   1.427  12.435 -0.2423  0.1765 -0.1158
23986W        W42190   6.477  11.921   3.406 -0.1861  0.1332 -0.0605
23987W        W42191  12.244  16.719   1.368  0.4754  0.1789  0.1052
23988W        W42192   1.670   9.836  12.872 -0.1524  0.0395 -0.0705
23989W        W42193  10.439   6.148   4.230  0.0230 -0.0246  0.0181
23990W        W42194   7.225   3.347   0.688 -0.1024 -0.2486  0.1323
23991W        W42195   4.465   6.826  12.291 -0.1342  0.1331 -0.2194
23992W        W42196   0.779  16.440   0.012  0.0954  0.4048  0.3639
23993W        W42197   2.611  14.938  14.930 -0.0817 -0.3303  0.0006
23994W        W42198  11.874   5.746   1.015 -0.2868  0.0146 -0.2148
23995W        W42199   3.602   7.164   2.016  0.1583  0.1305 -0.0258
23996W        W42200  17.184  13.587  14.092 -0.2106  0.4562 -0.0023
23997W        W42201   3.204   1.514  15.944 -0.1489  0.1896 -0.1686
23998W        W42202  10.523  16.650  16.626 -0.0039 -0.2625  0.1171
23999W        W42203  12.575   3.416  13.751 -0.2112 -0.0860  0.4370
24000W        W42204   4.694   8.569   0.314  0.0196  0.0227  0.0691
24001W        W42205   8.000   7.338  13.194 -0.0401  0.2308 -0.0359
24002W        W42206   0.893  14.695  14.533 -0.0513 -0.1711  0.0761
24003W        W42207  16.238   6.866   0.968  0.1273 -0.0129  0.0403
24004W        W42208   1.479   3.368   2.324  0.0186 -0.1010 -0.1299
24005W        W42209   1.200  14.223   0.834  0.1037  0.1696 -0.1422
24006W        W42210  10.345  12.367   2.841  0.2652 -0.2423  0.1472
24007W        W42211   7.161   3.266  16.099  0.0608 -0.0747  0.0662
24008W        W42212  15.317  10.885  14.362 -0.0285 -0.0627  0.2897
24009W        W42213   4.687  10.466   3.813  0.0359 -0.1180  0.0011
24010W        W42214   3.359   5.249   2.999  0.0442 -0.0909 -0.1140
24011W        W42215  10.610   0.876  14.692 -0.0476 -0.0851  0.1192
24012W        W42216   0.165   9.538  14.134 -0.1728  0.0571 -0.0198
24013W        W42217  10.796   0.032   0.539 -0.0345  0.2156 -0.1014
24014W        W42218   0.028  12.470   2.511  0.1058 -0.2511 -0.0028
24015W        W42219  10.260  15.873   5.609 -0.0831  0.0110 -0.0730
24016W        W42220   0.805   6.175   3.969 -0.0809  0.1843  0.0976
24017W        W42221   6.688   3.437   0.905 -0.3712 -0.1491 -0.0900
24018W        W42222  14.229  15.123  15.561  0.0782  0.0762 -0.1517
24019W        W42223   4.118   7.973  14.059  0.2390  0.1962 -0.1473
24020W        W42224  16.127   9.485   4.561 -0.4308 -0.2201 -0.0027
24021W        W42225   4.907  13.156   4.509  0.1003 -0.2053  0.1330
24022W        W42226  11.189  14.154   3.059  0.1252 -0.0765  0.0304
24023W        W42227   0.692   0.299  15.884  0.2217 -0.0175  0.2182
24024W        W42228   9.022   5.853   0.384  0.0224 -0.0439  0.1725
24025W        W42229  11.881   8.461   0.131  0.0605 -0.0390  0.0225
24026W        W42230   4.182  11.696   5.063  0.3309  0.0123  0.0196
24027W        W42231   1.979  13.535   1.988 -0.0307 -0.0333  0.2778
24028W        W42232  10.371  10.013  12.755  0.3404  0.2421 -0.1523
24029W        W42233  16.976   2.716  13.647  0.2829  0.0853 -0.0625
24030W        W42234   2.580   7.151  14.653 -0.0653 -0.2367  0.0518
24031W        W42235   7.495  14.576   0.851  0.1722  0.3373  0.1557
24032W        W42236   0.378  14.804  16.234 -0.0276  0.1215  0.0129
24033W        W42237   1.511   6.554  15.113  0.0315  0.0978 -0.2149
24034W        W42238  11.374   1.255   5.690  0.1924  0.0880  0.1223
24035W        W42239   7.414   7.632   5.742 -0.1112  0.1953 -0.2089
24036W        W42240  17.021  15.091   4.679 -0.1056 -0.0449  0.2733
24037W        W42241   8.591   9.524  12.810 -0.1344  0.2569  0.2927
24038W        W42242  13.795   9.341  11.866  0.1359 -0.0680  0.0015
24039W        W42243  10.323   5.315  16.721 -0.0757  0.0815 -0.1627
24040W        W42244   3.287   1.030  15.950 -0.1026 -0.2888 -0.1647
24041W        W42245   5.486  12.726   5.672 -0.0806 -0.5150 -0.0563
24042W        W42246   0.429   3.966   2.632 -0.1631  0.0413 -0.1268
24043W        W42247  15.935  13.675   1.274 -0.1728 -0.3496 -0.1522
24044W        W42248   0.744  15.875  12.754 -0.0450  0.0492 -0.3046
24045W        W42249   2.294   9.014   1.792  0.0628 -0.1316  0.2642
24046W        W42250   4.737  16.888   1.419  0.2539 -0.2789 -0.2488
24047W        W42251  16.958   3.830  15.369 -0.0742  0.0676  0.0011
24048W        W42252  14.607  16.492  13.701  0.0982  0.0059 -0.1879
24049W        W42253   2.981   6.206  15.752  0.0559 -0.1307  0.0488
24050W        W42254   7.011   3.799  12.984 -0.0663  0.4533  0.0782
24051W        W42255   0.051  16.135  12.314 -0.1872 -0.1489 -0.1266
24052W        W42256  15.283   3.412  14.248  0.1609  0.0685  0.1518
24053W        W42257   5.045   8.204  16.161 -0.1519 -0.0093  0.1657
24054W        W42258  10.557  16.289   1.132  0.1381 -0.0889  0.0327
24055W        W42259   2.530   3.033  14.431  0.0757  0.2277  0.3171
24056W        W42260   9.068  15.448   0.243  0.2048  0.0456 -0.1086
24057W        W42261  15.451  11.134  13.169  0.0564 -0.0717  0.0655
24058W        W42262   6.756   6.771  15.490 -0.0886  0.2361 -0.0541
24059W        W42263  13.860   4.953   0.558 -0.0249  0.1191 -0.1803
24060W        W42264  14.895  10.077   5.021  0.0355 -0.0637  0.1222
24061W        W42265  16.809  14.923  13.865 -0.0074 -0.0425  0.1162
24062W        W42266   0.298   4.486   1.475 -0.1308  0.0268 -0.2611
24063W        W42267  11.544  10.545  17.036  0.0892  0.1517 -0.0553
24064W        W42268   2.692   3.038  11.842 -0.1160 -0.0488 -0.4464
24065W        W42269  12.091   5.289   1.179  0.0716  0.1731 -0.0553
24066W        W42270  16.173   0.771  13.363 -0.1979  0.0556  0.0713
24067W        W42271  10.319   4.706   4.262 -0.0318 -0.0320 -0.0571
24068W        W42272   9.062  14.161   4.020 -0.3432  0.0821 -0.1761
24069W        W42273   0.291   7.785  15.656 -0.1700 -0.0130  0.0640
24070W        W42274   3.631  10.242   0.299  0.0846  0.0150  0.0550
24071W        W42275  11.696   1.249   1.706  0.0464  0.1005  0.2177
24072W        W42276   5.752   2.746  13.194 -0.0926  0.0554 -0.2984
24073W        W42277  13.491  11.237   0.336 -0.0013  0.1262  0.0308
24074W        W42278   6.242  12.588   0.816 -0.0639 -0.3019 -0.3529
24075W        W42279  11.162  13.361   4.834  0.4226 -0.1455  0.2069
24076W        W42280  16.869  11.186  15.777 -0.5478 -0.1453  0.2654
24077W        W42281  12.494   6.021   4.821  0.1558 -0.1612  0.0883
24078W        W42282   9.318   2.792   0.361 -0.3315 -0.0109 -0.2551
24079W        W42283   8.601  14.741  13.110 -0.2874 -0.1118 -0.2426
24080W        W42284   3.537  10.013   0.759 -0.1392 -0.0908  0.0162
24081W        W42285   4.492   3.357  13.792 -0.0170 -0.1846 -0.1847
24082W        W42286   4.275   8.666  17.141  0.2320  0.0297  0.1352
24083W        W42287  14.955  16.883  12.313  0.0036 -0.0101  0.0811
24084W        W42288   7.862   0.577  14.334  0.3438 -0.0565  0.1621
24085W        W42289   8.320   2.602   5.452  0.1906 -0.3236 -0.1851
24086W        W42290  12.699   5.248  13.799  0.1740 -0.1676  0.4430
24087W        W42291   3.193   4.515   1.387 -0.1043 -0.1115  0.2348
24088W        W42292  10.281  14.253  14.930  0.0624  0.2336 -0.1425
24089W        W42293   6.766  16.536  16.600  0.2695  0.1100 -0.1998
24090W        W42294   2.395   5.164  12.044  0.0965  0.2526 -0.0167
24091W        W42295   3.374  11.913   2.621 -0.0215 -0.1911 -0.0774
24092W        W42296  15.920   8.205  12.880  0.1181  0.2809 -0.1434
24093W        W42297  16.757  16.893   3.761 -0.1831 -0.1120 -0.3297
24094W        W42298   3.239   5.934   0.074  0.0463  0.0630  0.1782
24095W        W42299  16.583   3.414   5.650 -0.1590  0.0558  0.1447
24096W        W42300   9.093  14.322  16.984  0.3203 -0.2617 -0.3200
24097W        W42301  14.477  11.254  16.446  0.0608  0.3006  0.2403
24098W        W42302   2.859  10.319  14.596 -0.1458  0.1637  0.1870
24099W        W42303   6.727   8.300   3.054 -0.0342  0.0852  0.0882
24100W        W42304   6.367   5.247   5.183 -0.0547  0.0734 -0.1304
24101W        W42305   6.334   8.396   5.044 -0.1542 -0.0275  0.0445
24102W        W42306  10.696   7.656   5.208 -0.0208 -0.2204 -0.2485
24103W        W42307  11.912  11.124   3.028  0.1001 -0.0089 -0.2106
24104W        W42308   8.341   0.403  12.689  0.1833 -0.1601 -0.0324
24105W        W42309  11.882   7.628   5.008  0.1226 -0.0687  0.1156
24106W        W42310  11.004  12.780  17.268  0.2241  0.1253 -0.0613
24107W        W42311   8.112  11.415  17.246 -0.0315  0.1416 -0.0492
24108W        W42312  17.019  10.436   4.327 -0.1517 -0.2382  0.0800
24109W        W42313  12.185  10.531  15.326  0.0511  0.3304 -0.1754
24110W        W42314  13.545   6.345  16.749  0.0783 -0.0740 -0.1480
24111W        W42315   5.775   7.474  16.289  0.0087 -0.3419  0.0391
24112W        W42316   6.626   6.039   2.659 -0.0515  0.3766 -0.2759
24113W        W42317  14.372   2.659   4.311 -0.0972 -0.0560  0.1429
24114W        W42318   4.315  11.032   4.456 -0.4443 -0.1781 -0.0279
24115W        W42319   7.668  15.187   3.730 -0.0483 -0.4158  0.2247
24116W        W42320   8.090  14.407  15.353 -0.0851 -0.0274  0.1426
24117W        W42321  16.541   1.678  15.777 -0.1054  0.0899 -0.1795
24118W        W42322  10.342   6.242   1.083 -0.2794 -0.0765  0.2324
24119W        W42323  16.086  12.671  12.385 -0.2867 -0.0185  0.2281
24120W        W42324   1.044  14.892  15.474  0.2186  0.0774  0.0518
24121W        W42325   8.301  15.721   0.836  0.2628 -0.1991  0.1656
24122W        W42326  14.851   6.184  16.764  0.0496 -0.2000 -0.1731
24123W        W42327  16.139  16.876  13.264  0.1189 -0.0880  0.1968
24124W        W42328   6.465   4.006  14.924 -0.3646 -0.1857  0.1303
24125W        W42329   4.381  14.431   3.723 -0.2532 -0.0084 -0.3318
24126W        W42330  12.134   2.998  16.070 -0.0832 -0.1353 -0.1020
24127W        W42331   5.213   2.950  12.660  0.0741  0.0539  0.1310
24128W        W42332   1.919   7.484   4.554 -0.0451 -0.0662 -0.3175
24129W        W42333   9.615   5.283   4.864  0.1034  0.0350 -0.1940
24130W        W42334   0.706  12.759   5.787 -0.0626 -0.0570  0.1233
24131W        W42335  13.904   5.059   2.848 -0.1735 -0.0308  0.0846
24132W        W42336  10.536  15.322  16.168  0.0194 -0.0458 -0.1111
24133W        W42337  15.812  14.229   0.103  0.2276  0.1967  0.0410
24134W        W42338   1.450   2.274  16.769  0.3444  0.0874 -0.0707
24135W        W42339   2.365   1.932  16.768  0.3357 -0.2120 -0.1059
24136W        W42340   4.543  13.675   2.968 -0.2172 -0.1371 -0.2130
24137W        W42341  12.052  15.989   3.706  0.1881  0.0384  0.0721
24138W        W42342  14.621   5.662   2.629 -0.0308 -0.0696 -0.0703
24139W        W42343  15.508  10.500  12.305  0.0959 -0.2465  0.2044
24140W        W42344  11.732   6.520   1.370 -0.0426 -0.0204  0.3517
24141W        W42345   0.706   7.304   3.029  0.2138 -0.0495 -0.3199
24142W        W42346  14.242   3.598  15.838  0.4020  0.0465  0.3691
24143W        W42347   4.926  16.611  13.712 -0.1900  0.0334 -0.0178
24144W        W42348  12.883  10.492  16.810 -0.1344 -0.1055  0.1590
24145W        W42349   3.504   2.750   3.691  0.0729  0.3120  0.0418
24146W        W42350  10.591   5.218   0.207  0.0444  0.0087 -0.0722
24147W        W42351  12.184  14.622   2.871  0.1135  0.1117  0.0511
24148W        W42352   4.467  17.186  12.728 -0.4296  0.2328 -0.0516
24149W        W42353   5.740   3.206  16.209 -0.2390 -0.2331 -0.0671
24150W        W42354  15.997  16.154  16.645 -0.0914 -0.1336  0.0101
24151W        W42355  15.828   6.685  14.997  0.1927  0.1489 -0.2047
24152W        W42356   2.342   8.628   4.829  0.2451 -0.3726 -0.0193
24153W        W42357  14.101   0.789  13.965  0.0201 -0.1832  0.1313
24154W        W42358   2.074  13.554  12.276 -0.3467 -0.1992  0.2125
24155W        W42359  13.416   4.252  13.584  0.1067  0.0312 -0.0370
24156W        W42360   5.968   6.175  15.550 -0.1250 -0.4091  0.0968
24157W        W42361   7.597  10.889  13.503  0.2309  0.3142 -0.0642
24158W        W42362   9.310  14.710  14.691 -0.1699 -0.1054 -0.1878
24159W        W42363   1.164   7.442   1.726 -0.2970 -0.1425  0.2516
24160W        W42364   8.828  15.784  12.412 -0.0590  0.0010 -0.0767
24161W        W42365  12.497   8.948   2.680  0.0278  0.1152 -0.1718
24162W        W42366   8.231  15.860   3.706  0.1360  0.1454  0.1518
24163W        W42367   7.843  10.685  16.786 -0.1868  0.0654 -0.0911
24164W        W42368   8.686   3.196   3.352  0.3088  0.3430 -0.0665
24165W        W42369  15.274  16.083   0.308  0.1005 -0.1387  0.0063
24166W        W42370  11.210   4.097  14.276 -0.2001 -0.1703  0.1748
24167W        W42371   3.175   8.580   1.713 -0.1059  0.1582  0.0368
24168W        W42372   1.774  15.295   4.486  0.0151  0.0486  0.0138
24169W        W42373  13.213  14.505   4.224 -0.1911 -0.0520  0.3632
24170W        W42374   6.698   0.131  15.860 -0.0754 -0.2191 -0.0402
24171W        W42375   1.691  16.016   1.429  0.2209  0.0063 -0.1304
24172W        W42376   9.942  10.192  16.985 -0.0236 -0.0670  0.0349
24173W        W42377   0.106  11.616   5.692  0.0158  0.0162  0.1033
24174W        W42378   7.081  10.952  13.405  0.3039 -0.1069  0.1559
24175W        W42379  10.986   5.015   1.769 -0.2336  0.1907 -0.0894
24176W        W42380   2.456   3.379  15.743 -0.0932 -0.2733 -0.3283
24177W        W42381  12.610   2.513   4.856  0.1199 -0.0339  0.1530
24178W        W42382  15.408  10.809   1.703  0.0624 -0.0347  0.0514
24179W        W42383  16.796  16.003   5.719  0.0480 -0.0894  0.1322
24180W        W42384  16.746  10.940  13.271  0.2265  0.0600  0.0081
24181W        W42385  15.525  10.162   3.346  0.1927  0.0331  0.0606
24182W        W42386   7.644  15.134  13.304  0.2559  0.0578  0.1691
24183W        W42387  15.146   2.457  16.878 -0.0897  0.2607  0.0038
24184W        W42388   5.397   7.147  12.685  0.0084  0.2280 -0.3211
24185W        W42389  15.942   1.275   1.594 -0.0520 -0.0583 -0.4113
24186W        W42390   1.490   0.858  13.916 -0.1683  0.0854  0.0585
24187W        W42391   5.926   1.297  11.900  0.1220  0.0390 -0.1213
24188W        W42392   6.893  13.737   4.191  0.0461 -0.1652  0.0053
24189W        W42393  12.486   1.684   3.612  0.0625 -0.0451 -0.1003
24190W        W42394  10.076   8.252   2.274 -0.3719 -0.0506  0.2266
24191W        W42395  15.291   6.804   2.565  0.1986 -0.0626 -0.0120
24192W        W42396   9.703   4.802  17.141 -0.1839  0.2686 -0.0880
24193W        W42397   2.074   0.259  13.488  0.4156  0.2201 -0.0151
24194W        W42398   4.412   0.649   3.526  0.0885 -0.0996  0.1164
24195W        W42399   3.809  13.258  15.929 -0.0238 -0.1033 -0.0430
24196W        W42400  16.440   5.878  12.565  0.1241 -0.1369 -0.0710
24197W        W42401   7.794   9.822  14.212  0.1488  0.1389 -0.0764
24198W        W42402  13.823  11.834   0.995  0.1328  0.0683  0.2364
24199W        W42403   6.157  10.922   0.203  0.0385 -0.1529  0.0200
24200W        W42404  12.266  16.248   0.644  0.1277 -0.0219 -0.2364
24201W        W42405   9.086  16.407   6.261  0.0378  0.3479 -0.1502
24202W        W42406   4.189   6.128  11.794  0.0144 -0.0846 -0.1675
24203W        W42407  13.612   8.027   0.282 -0.3958 -0.2590 -0.3221
24204W        W42408  15.408   7.609  14.791  0.1343  0.2882 -0.0077
24205W        W42409   4.129   7.872  14.971  0.0738 -0.0226  0.0065
24206W        W42410  16.075  11.442   3.838  0.0263 -0.1931  0.1164
24207W        W42411  12.421   6.277  12.850 -0.1017  0.1217 -0.1296
24208W        W42412  10.784   3.314  16.024  0.0145  0.0227 -0.1983
24209W        W42413  17.075   6.445  15.316  0.0331 -0.0293 -0.2048
24210W        W42414  12.773  12.426  14.535 -0.2580  0.0870  0.1136
24211W        W42415   0.341   4.753   5.250  0.0924  0.1061 -0.0371
24212W        W42416   9.741  13.007   2.374 -0.3221  0.2744 -0.1040
24213W        W42417  15.245   2.769   4.628  0.1030 -0.0761  0.3568
24214W        W42418  12.212  10.858  17.424 -0.1310  0.1811 -0.0737
24215W        W42419   0.408   4.262  14.359 -0.1182 -0.1970 -0.0958
24216W        W42420   9.359  16.044  13.935 -0.1402  0.1557  0.0089
24217W        W42421   1.332   0.286  16.214  0.1156 -0.0876  0.2625
24218W        W42422   3.337  16.302   2.414 -0.0877 -0.2485 -0.2659
24219W        W42423  11.990   1.116  13.306  0.2056 -0.2296  0.2927
24220W        W42424  10.999   6.773  17.355  0.0917  0.0782 -0.0327
24221W        W42425  15.394  11.600   0.154 -0.0544 -0.1299 -0.0750
24222W        W42426  11.275  10.798   0.887  0.2048 -0.1115  0.2124
24223W        W42427  13.752   5.963   5.607  0.0853 -0.2672  0.1147
24224W        W42428  11.186  17.224   2.630 -0.0074 -0.3229  0.0634
24225W        W42429   5.950  14.229   4.918  0.1646 -0.3825 -0.0688
24226W        W42430   8.444   6.047   4.686  0.0857  0.3770 -0.0680
24227W        W42431  15.261   4.277  14.026  0.2287  0.1010 -0.0954
24228W        W42432  14.459  16.885  14.329  0.3729 -0.0862  0.0072
24229W        W42433   4.117  11.518   0.115  0.1213  0.2568 -0.2434
24230W        W42434  15.455  15.489  14.120 -0.0279  0.1714 -0.1269
24231W        W42435   2.901   3.106  15.721 -0.1213  0.0009 -0.0895
24232W        W42436   0.889   5.418  13.065  0.1478  0.0294  0.6271
24233W        W42437   5.719  12.643  13.307 -0.0084 -0.1147  0.1342
24234W        W42438  10.487   7.244  13.829  0.1157 -0.3808 -0.3476
24235W        W42439  15.854   8.979  17.063 -0.0598 -0.1146  0.1807
24236W        W42440  16.673  11.989   2.329  0.1816  0.1271  0.0102
24237W        W42441  15.887  13.438   0.540  0.2032 -0.0956  0.2348
24238W        W42442   7.728   3.118  15.289 -0.1308  0.2947 -0.0290
24239W        W42443   9.562   5.373   3.692 -0.1515  0.1023  0.0144
24240W        W42444  11.218   1.580  17.135 -0.0452 -0.1152 -0.0663
24241W        W42445   3.754  16.680  14.758  0.1219 -0.0213 -0.2673
24242W        W42446   6.725   6.049  13.569 -0.0143 -0.1491 -0.0386
24243W        W42447   2.497   1.032   5.090 -0.0134 -0.0416  0.0139
24244W        W42448   2.010  15.031   0.678 -0.0069  0.2019 -0.2775
24245W        W42449   6.406   5.008  13.434  0.0661  0.0057  0.1004
24246W        W42450   0.512   8.005   3.740 -0.0842  0.2835 -0.0594
24247W        W42451   0.156   9.013  14.172  0.2503 -0.0310 -0.0462
24248W        W42452   5.482   9.074   0.400 -0.1111  0.2116  0.3678
24249W        W42453   9.981   0.737   1.602  0.0725  0.0456  0.1279
24250W        W42454  15.806   6.555   2.298 -0.0844  0.3246 -0.2188
24251W        W42455   0.451   1.947   0.647  0.1408 -0.2844 -0.0748
24252W        W42456   2.678   7.456   4.009  0.0842 -0.1495 -0.2164
24253W        W42457   4.308   6.810  15.978 -0.3295 -0.0065 -0.0073
24254W        W42458  10.419   7.437   3.777 -0.2564  0.0354  0.0637
24255W        W42459  12.511   9.711   2.152  0.2336  0.1928  0.0426
24256W        W42460   5.618  15.757  16.389 -0.0562  0.2017 -0.0927
24257W        W42461  10.090   8.316   1.804  0.1822  0.2881 -0.1833
24258W        W42462   1.869   6.895   1.778  0.0906  0.0838 -0.0400
24259W        W42463   3.144  11.817   0.254 -0.4732 -0.1546 -0.3085
24260W        W42464  11.725  10.761   1.545  0.1674  0.0900  0.1092
24261W        W42465  11.032   4.628  14.437  0.1451 -0.0592 -0.0780
24262W        W42466   8.848  15.735  17.358  0.2007  0.0802 -0.0027
24263W        W42467  16.465  12.201   4.374 -0.0610  0.1637  0.0120
24264W        W42468   5.813  16.079   2.085  0.0502  0.0192 -0.0579
24265W        W42469   5.133   1.017   3.748 -0.1302 -0.0688  0.3601
24266W        W42470   8.342  12.736  14.850 -0.1678 -0.1510  0.0976
24267W        W42471   4.206   0.243  15.786  0.0440 -0.2830 -0.3087
24268W        W42472   3.165  16.148   1.673 -0.1420  0.1981  0.0970
24269W        W42473   5.165   0.794  10.820 -0.3236 -0.0659  0.0707
24270W        W42474   2.633  10.205   2.408 -0.1347 -0.2774  0.3183
24271W        W42475  13.912   5.501  15.440  0.1659 -0.0591 -0.0259
24272W        W42476  10.436  13.638   1.955  0.1930  0.2782  0.3408
24273W        W42477  10.757   3.116   2.936 -0.2630 -0.0917 -0.0181
24274W        W42478  13.397  17.113   0.938  0.2483  0.0951  0.0700
24275W        W42479   3.682   5.192  14.144 -0.5368 -0.4093 -0.0992
24276W        W42480  10.621   0.147  12.646 -0.2265 -0.1477  0.2331
24277W        W42481  13.676  15.412   1.520  0.1997 -0.1110  0.1583
24278W        W42482   0.671   9.975   1.674  0.0887  0.0286 -0.1082
24279W        W42483  10.319  16.156  12.776 -0.0759 -0.1365  0.0368
24280W        W42484   5.271  16.225  14.614 -0.2335  0.1527 -0.2677
24281W        W42485  17.109   1.241  13.474  0.0196  0.0265  0.4078
24282W        W42486   6.841  14.722   3.794 -0.0258  0.0191  0.1015
24283W        W42487  13.318  14.477  16.226 -0.0703 -0.0316  0.0109
24284W        W42488   7.628   9.020   2.402 -0.3210  0.1157  0.0956
24285W        W42489   1.222   9.907  12.661  0.2577  0.2720  0.1698
24286W        W42490   6.504   1.345   2.262  0.0459 -0.4058  0.0297
24287W        W42491   2.018  15.775  12.259 -0.1498  0.0789  0.0103
24288W        W42492   9.648   9.434   2.516  0.3534 -0.1425  0.0341
24289W        W42493  15.952   9.863   2.683 -0.0865  0.0469  0.1789
24290W        W42494  12.255   8.422  14.389  0.0909 -0.3100  0.2035
24291W        W42495  12.673   2.606  15.358 -0.1591  0.1698  0.1200
24292W        W42496  12.124  12.534   3.211 -0.2478  0.1274 -0.2545
24293W        W42497  16.807   1.195   4.541  0.3540  0.2944 -0.0555
24294W        W42498  15.836   2.580  13.653  0.0476  0.1073 -0.2588
24295W        W42499  11.410  11.677  13.696  0.1635 -0.2035  0.1535
24296W        W42500   0.184   5.591   1.544  0.3349  0.2409 -0.4246
24297W        W42501   5.974  15.694  16.029  0.0479  0.0683 -0.2302
24298W        W42502   0.757   7.809   4.145  0.0113  0.1033  0.2536
24299W        W42503  14.046  11.491  16.272 -0.1568 -0.2933 -0.2186
24300W        W42504   9.451   2.697   1.430 -0.3091 -0.1771 -0.3487
24301W        W42505  17.301  16.980  16.930  0.0517  0.2432 -0.2487
24302W        W42506  12.169   4.147  12.807 -0.1236  0.0387 -0.3728
24303W        W42507   9.694  16.546   5.092  0.1455 -0.3220 -0.0266
24304W        W42508  13.869   9.825  13.450  0.1474  0.2368  0.1981
24305W        W42509   9.723   5.043  16.707  0.0380 -0.4418 -0.0569
24306W        W42510   9.369   3.761  14.492  0.0878 -0.1959 -0.1274
24307W        W42511   7.045  15.267   4.439  0.1253 -0.0139 -0.0590
24308W        W42512  13.203  12.174  12.809  0.2265  0.0383  0.3171
24309W        W42513  11.642   3.742  16.439 -0.4909  0.1539 -0.1975
24310W        W42514   5.652  16.751   1.409 -0.0002  0.0256 -0.1034
24311W        W42515   9.190   9.679   4.247 -0.4556  0.0923  0.1202
24312W        W42516   0.047  16.646   1.573 -0.0490 -0.0889  0.1277
24313W        W42517   6.604   2.995   2.065 -0.0141 -0.1219 -0.1492
24314W        W42518  16.265  13.970  14.091  0.0211  0.0831 -0.0201
24315W        W42519  11.889   2.362  15.596 -0.2804  0.0582 -0.2318
24316W        W42520   7.005   6.001  13.990  0.2033  0.0103  0.0931
24317W        W42521   2.498   7.692  12.517 -0.1548 -0.2525  0.1251
24318W        W42522  12.007   7.103   4.715  0.0258  0.1276 -0.0949
24319W        W42523   0.741   6.426   3.402  0.0958 -0.1404 -0.0466
24320W        W42524  10.008   9.294  15.350  0.0250 -0.1014 -0.0715
24321W        W42525   3.782  10.152  15.943  0.1389 -0.0475  0.0992
24322W        W42526  13.031  16.117   4.725 -0.0937 -0.0551  0.2129
24323W        W42527  14.581  10.508  13.602 -0.1830  0.0918  0.0467
24324W        W42528  12.098  10.666  16.384 -0.0745 -0.2052 -0.2016
24325W        W42529  16.844   3.673   4.428  0.0262 -0.0365 -0.0341
24326W        W42530   7.046  15.008  16.076  0.1034 -0.2095 -0.2179
24327W        W42531   5.942  13.498   2.845  0.0109 -0.1562 -0.1746
24328W        W42532   8.215   2.691  12.121  0.1668  0.1314 -0.1093
24329W        W42533   0.109  11.554  14.045  0.0830  0.1302  0.0624
24330W        W42534   6.265   9.301  15.525 -0.0446 -0.3166  0.2999
24331W        W42535   3.766   3.666  16.770 -0.1506  0.1024  0.0479
24332W        W42536  13.830   2.477  17.250  0.1353  0.2154 -0.2139
24333W        W42537   9.015  15.759   1.998 -0.0646 -0.0735  0.0129
24334W        W42538   4.019   0.163  17.001  0.1739  0.5072  0.0634
24335W        W42539  10.192   6.558  16.741  0.0511  0.0095  0.2131
24336W        W42540   2.959   6.662  17.042 -0.0808 -0.0296  0.1825
24337W        W42541   8.718  16.486  14.268  0.1281  0.1284 -0.3169
24338W        W42542  15.837   0.069   2.393  0.0158 -0.0113 -0.1177
24339W        W42543  14.351  12.767  16.701 -0.0826 -0.2540 -0.0716
24340W        W42544   5.044   7.990   5.225  0.0959 -0.1331 -0.0520
24341W        W42545   9.011  12.102  15.543 -0.0963  0.0578 -0.1485
24342W        W42546   4.228  14.897   3.780 -0.1440  0.0574  0.0290
24343W        W42547  14.331   1.200  15.326 -0.0848 -0.0548 -0.3226
24344W        W42548  16.123   4.696  16.703 -0.0191 -0.0226  0.1194
24345W        W42549   3.942   8.498  15.510 -0.0962  0.0782  0.4329
24346W        W42550   9.287  15.910  16.497  0.0119  0.1132  0.0652
24347W        W42551  10.388   9.875  17.016 -0.2310  0.4204 -0.3497
24348W        W42552  13.674  15.650  12.860 -0.0736  0.2158 -0.0968
24349W        W42553  10.668  16.867   3.315  0.1405  0.1560 -0.2157
24350W        W42554  12.903  16.280  16.119 -0.0796 -0.0723 -0.2521
24351W        W42555   4.820   0.713   6.025  0.0662 -0.2447 -0.0220
24352W        W42556  12.542   3.836  12.828 -0.1171 -0.0277  0.1394
24353W        W42557   8.764  12.586  12.676  0.1433 -0.1262 -0.1100
24354W        W42558   4.026   2.800   4.964  0.0283 -0.0536  0.1601
24355W        W42559  12.774  12.080  16.113  0.1715 -0.4225 -0.0442
24356W        W42560   3.429   8.320   1.358  0.0225 -0.0583  0.3059
24357W        W42561   3.644  10.450  14.150 -0.0455 -0.1516  0.2622
24358W        W42562   3.331  10.470   2.424 -0.3378 -0.2485  0.3232
24359W        W42563  12.445  13.299   2.669  0.2028  0.0928 -0.1532
24360W        W42564   3.652   8.374  12.329  0.2348  0.1217  0.0847
24361W        W42565  16.709   6.087  17.150 -0.2324 -0.3029 -0.2556
24362W        W42566   2.685  15.110  16.151  0.2104 -0.0754 -0.1074
24363W        W42567   6.206  16.523   4.870  0.0755 -0.0317 -0.1627
24364W        W42568  10.212  12.309   1.885  0.0277 -0.1440  0.2546
24365W        W42569   2.705  12.285  13.550 -0.0584  0.0903 -0.0136
24366W        W42570  14.885  10.831   0.024 -0.0338 -0.3524 -0.0034
24367W        W42571   6.499  10.008  11.154 -0.1387  0.0834  0.1100
24368W        W42572  15.929  10.908  14.627  0.1046  0.2425  0.0829
24369W        W42573   3.186  14.002  12.368 -0.0522 -0.1282  0.6169
24370W        W42574   0.086  16.715  15.939 -0.3849 -0.1608 -0.0916
24371W        W42575  16.451  14.691   2.967 -0.3791  0.2165  0.0276
24372W        W42576  10.017   7.197  15.712 -0.2222 -0.1026  0.0843
24373W        W42577  15.329  13.948   3.935 -0.3791 -0.1023  0.1082
24374W        W42578   1.035   4.187   3.774 -0.3534  0.2424 -0.1352
24375W        W42579   9.484   8.310  17.261 -0.0619 -0.1396  0.0093
24376W        W42580   2.630   1.248  14.034  0.2439  0.0844 -0.1090
24377W        W42581   3.492   3.059  15.080 -0.1488 -0.3445 -0.0711
24378W        W42582   8.041  15.184   4.073 -0.0641 -0.0197  0.0353
24379W        W42583   0.844   7.812   1.467  0.2598 -0.2013 -0.2455
24380W        W42584  13.323  11.204  14.056  0.1969 -0.2814 -0.0566
24381W        W42585  17.044   0.720   4.522 -0.2222  0.0072 -0.1424
24382W        W42586  13.587  15.085  15.578  0.4131  0.3171 -0.2592
24383W        W42587  13.286   8.509  14.530 -0.0190 -0.0535  0.0014
24384W        W42588  10.480  12.131   4.231 -0.1456 -0.0407 -0.0721
24385W        W42589   1.332  14.395   4.188 -0.0568 -0.1541  0.1907
24386W        W42590   1.230   4.378   2.769 -0.0338  0.1379  0.1444
24387W        W42591  16.114   5.693  12.215 -0.0468 -0.2444 -0.1939
24388W        W42592  12.288   2.966  14.462 -0.0258 -0.0344 -0.1110
24389W        W42593   8.482  13.917  14.047 -0.1932 -0.3817  0.0584
24390W        W42594   2.941  13.528  16.919  0.0934 -0.3308 -0.0498
24391W        W42595   5.956  12.063   4.016  0.1561  0.1209  0.2620
24392W        W42596   1.970  13.768  16.316  0.0496  0.1649  0.3602
24393W        W42597   4.003   8.963  17.429  0.1423 -0.1498 -0.0230
24394W        W42598   5.694   9.202  12.927  0.1184  0.1338 -0.1723
24395W        W42599   4.272   7.614  14.328 -0.0574  0.2603  0.0140
24396W        W42600   7.721   6.719   4.515 -0.0385  0.0048  0.3260
24397W        W42601   3.351   9.482  17.128  0.0215 -0.3061 -0.1833
24398W        W42602  10.867   6.370   4.082 -0.1225  0.1910  0.0073
24399W        W42603   4.418   2.952   3.612  0.0950  0.1506  0.2556
24400W        W42604   3.694   9.366   0.114 -0.0370  0.1012  0.2644
24401W        W42605   0.394  12.190  15.675  0.0157 -0.0852 -0.1314
24402W        W42606   6.532   6.627  13.484  0.1825  0.0027 -0.0018
24403W        W42607  13.318   7.405   4.925 -0.2986 -0.1404 -0.0724
24404W        W42608   0.078  13.423  12.684 -0.1527 -0.1737  0.1283
24405W        W42609  13.842  13.793   0.943 -0.0984 -0.1220 -0.0061
24406W        W42610  11.739   0.188  14.152 -0.1139 -0.1516 -0.0974
24407W        W42611   9.252  16.654   0.709  0.0784 -0.1101 -0.2917
24408W        W42612   2.019   4.436  14.089  0.4305  0.0846  0.1719
24409W        W42613  13.446  12.979   1.399  0.1326  0.1040 -0.1995
24410W        W42614   3.550   7.248  15.059 -0.0011 -0.1477 -0.3564
24411W        W42615  12.977  15.338  16.242 -0.2289  0.4415 -0.1424
24412W        W42616  11.278  14.727  12.454 -0.0685  0.0780  0.2392
24413W        W42617  12.021  15.227   3.820  0.1796  0.3274  0.2291
24414W        W42618  17.091   2.262   4.131  0.2362 -0.0364 -0.1526
24415W        W42619   9.936  16.951  13.168 -0.1903  0.1938 -0.0875
24416W        W42620  11.167  15.840  14.028  0.1678  0.0466 -0.0751
24417W        W42621   5.820  13.161  16.634 -0.2724 -0.1162  0.0319
24418W        W42622   8.808   0.793   1.069  0.2283  0.0117  0.1972
24419W        W42623   7.340  12.359  16.399 -0.0781  0.2302  0.0063
24420W        W42624  14.524   0.084  13.380  0.1996 -0.0261 -0.0601
24421W        W42625  16.892   3.718   2.754  0.1889  0.3187  0.1008
24422W        W42626  10.226   3.331  15.241 -0.3785 -0.0141  0.0441
24423W        W42627  17.185   2.921   1.837 -0.0326 -0.2282 -0.2015
24424W        W42628  12.436   8.144  13.778  0.3040  0.2996 -0.0970
24425W        W42629  11.844   4.909   2.449 -0.0596 -0.2893 -0.3630
24426W        W42630  14.106   1.307   2.747  0.0140  0.1147 -0.2377
24427W        W42631   6.767   3.032  16.466  0.1295 -0.1384  0.4573
24428W        W42632  11.142  11.787   2.297 -0.2171  0.1107 -0.1329
24429W        W42633   4.212   4.793   3.798  0.0214 -0.0590  0.0511
24430W        W42634   6.097  11.301   0.811  0.0195  0.1819 -0.2642
24431W        W42635   4.128  14.255   5.007  0.0571 -0.0782 -0.1004
24432W        W42636   5.717  13.648  16.578  0.2586 -0.4788 -0.0420
24433W        W42637   1.833   2.655   3.587  0.1622  0.0271 -0.1400
24434W        W42638   7.104  13.857   2.700  0.0669  0.0812 -0.0879
24435W        W42639   9.775   8.082   3.758  0.1098 -0.1714  0.1963
24436W        W42640   6.885  12.471  16.612  0.0290 -0.2077  0.0657
24437W        W42641   0.946   0.700   2.680 -0.2881 -0.1656 -0.0246
24438W        W42642   3.950  16.969  14.226 -0.2607 -0.3170  0.1852
24439W        W42643   2.486  15.347   5.353  0.1105 -0.1595  0.1176
24440W        W42644  13.400  13.381  15.817  0.1118 -0.0630 -0.0876
24441W        W42645   6.819   4.229   3.669 -0.2470 -0.2225 -0.0744
24442W        W42646  11.689  14.198  15.611  0.0214  0.0039 -0.0444
24443W        W42647  11.282   6.666   1.089 -0.3122  0.1629 -0.2706
24444W        W42648   5.178   4.854   0.601 -0.3892  0.0553 -0.1277
24445W        W42649   3.359   0.074  15.869 -0.1527  0.2605 -0.0245
24446W        W42650   5.853   5.639   1.418  0.1238 -0.1856  0.3442
24447W        W42651   9.806  16.167  12.528 -0.3138  0.0655  0.0044
24448W        W42652  11.805   0.216   4.607  0.1996 -0.0269 -0.2892
24449W        W42653  17.076  10.725   3.910 -0.0770 -0.0653  0.0774
24450W        W42654  13.585   6.413  13.274 -0.1339 -0.1778  0.0450
24451W        W42655   6.756  13.280   3.392 -0.0849  0.1586 -0.0027
24452W        W42656   2.094  12.900   4.565  0.0021  0.0628  0.2375
24453W        W42657   3.376  15.229   2.659 -0.4483  0.0837  0.1348
24454W        W42658   5.927  15.080   3.153  0.2742  0.0880  0.1809
24455W        W42659   8.836   5.997  15.082 -0.0408 -0.0055  0.2341
24456W        W42660   1.578  12.539  15.698  0.1069  0.1361  0.0829
24457W        W42661  15.466   9.922  17.012  0.0767 -0.1528 -0.0140
24458W        W42662  10.090   2.744  15.977  0.1581  0.2200  0.0678
24459W        W42663   5.178  15.833  15.588 -0.3274 -0.1054  0.4314
24460W        W42664  12.728   4.970  14.214  0.0601 -0.2062  0.0508
24461W        W42665  17.140   6.954   5.184  0.0715 -0.2095  0.0131
24462W        W42666  16.571   4.010  15.154  0.1217 -0.0057 -0.3092
24463W        W42667   8.661   3.550  17.084  0.0681  0.2570 -0.0398
24464W        W42668   7.507  13.111  14.938 -0.1036 -0.0470  0.0337
24465W        W42669  16.311  13.426   0.984  0.0777 -0.1823  0.3638
24466W        W42670  15.397  12.786   2.986 -0.0230 -0.0571  0.1766
24467W        W42671  12.925   7.399   4.235  0.0086  0.1989 -0.1119
24468W        W42672   4.331  13.877   0.246 -0.1864 -0.0685 -0.1534
24469W        W42673   3.007  12.358   0.026  0.0204 -0.2292 -0.0236
24470W        W42674   2.095  10.170  14.021  0.0235 -0.1378 -0.0108
24471W        W42675  12.251   9.857   4.699 -0.1465 -0.0790 -0.2658
24472W        W42676  15.378   3.624  16.813 -0.2787 -0.2944  0.4195
24473W        W42677   0.662   2.314  14.422 -0.0912  0.1122  0.2598
24474W        W42678   2.715  12.676  12.711 -0.1418  0.1591  0.2132
24475W        W42679  11.569   2.710  14.776 -0.1187  0.2241  0.2180
24476W        W42680   6.208  11.525  13.487 -0.1523 -0.0165 -0.2384
24477W        W42681   0.821   9.327  12.490 -0.1819 -0.1941 -0.1892
24478W        W42682   3.386  14.558  14.814  0.2887 -0.1219 -0.4053
24479W        W42683   8.628  14.371  11.408 -0.0969 -0.1000 -0.0401
24480W        W42684  12.950  14.658   3.436  0.2641  0.0275  0.3110
24481W        W42685   2.312   5.444   2.297  0.1496 -0.3555 -0.1575
24482W        W42686   4.168  10.100   0.106 -0.1075  0.0839 -0.4667
24483W        W42687  10.423  16.365   5.057  0.2298 -0.1353  0.2980
24484W        W42688   1.089   4.509  17.009  0.2750  0.1606 -0.0561
24485W        W42689  15.515   8.215   3.194 -0.2267  0.2406  0.0944
24486W        W42690  12.007  13.326  16.550 -0.2255 -0.0505 -0.1155
24487W        W42691   4.085  15.538  13.406 -0.0037 -0.1699  0.0472
24488W        W42692  17.155   0.705   2.028  0.0217  0.0674  0.1415
24489W        W42693   7.605   7.154  15.643  0.0069  0.2442 -0.2426
24490W        W42694   9.968   5.148   0.141 -0.3564 -0.1077 -0.0733
24491W        W42695  14.621   2.134  16.231  0.2796  0.0388  0.1140
24492W        W42696  10.463   3.177   0.897 -0.0389  0.0450  0.2254
24493W        W42697   8.073   2.517   3.593  0.2332 -0.1639  0.1811
24494W        W42698   8.989   3.166  14.621 -0.1814 -0.2383 -0.0431
24495W        W42699  13.232  11.017   3.030  0.0012 -0.0676 -0.5165
24496W        W42700   4.047   6.330  14.261 -0.1264  0.0562  0.1846
24497W        W42701   5.483   2.008  12.236 -0.0457 -0.0027  0.2155
24498W        W42702   4.723  15.080   1.473  0.0252  0.0821  0.0748
24499W        W42703   2.725  14.971   0.076 -0.0644  0.0089  0.0807
24500W        W42704   6.651   1.763   2.817 -0.0146 -0.1873  0.0052
24501W        W42705  15.324  13.070   0.923 -0.0623 -0.0386  0.1743
24502W        W42706   3.297   1.907   3.611  0.4117  0.0908 -0.1111
24503W        W42707  10.724  14.496  14.955 -0.3109  0.1934  0.1356
24504W        W42708  16.931   7.321  14.817 -0.2558  0.2793 -0.2360
24505W        W42709  10.312  17.172  15.065  0.1100 -0.1395 -0.1892
24506W        W42710  11.084  14.311   4.991  0.1160 -0.0640 -0.0237
24507W        W42711  15.231   4.565   0.276  0.1712 -0.1051  0.0057
24508W        W42712   2.911  16.492  12.956  0.0455  0.3337  0.0421
24509W        W42713   2.786   1.010   1.771  0.0590  0.3331  0.0810
24510W        W42714   0.432  16.635  17.181 -0.0616 -0.1486  0.0921
24511W        W42715   3.573   0.526  13.355 -0.1569 -0.1181 -0.0080
24512W        W42716  11.167   2.797  17.510  0.0895  0.2198 -0.0126
24513W        W42717  14.070   4.299  15.324  0.1379  0.5283 -0.0797
24514W        W42718   3.064  10.236   1.467 -0.1294  0.0405  0.3160
24515W        W42719   9.324   8.125   1.221 -0.0461  0.0946 -0.1010
24516W        W42720  12.935  11.245   1.563 -0.0242 -0.0259 -0.2204
24517W        W42721   1.881  13.391  15.253 -0.1314  0.1155  0.2444
24518W        W42722  11.868   7.327  14.097  0.0451  0.1331 -0.0845
24519W        W42723   8.378  10.737  14.334  0.0032 -0.0721  0.0050
24520W        W42724   3.987  15.500  14.196  0.0537 -0.1544  0.1177
24521W        W42725   9.279  10.748  16.487 -0.1666 -0.0026 -0.1316
24522W        W42726  13.326  11.919   3.900  0.2343 -0.1399  0.3193
24523W        W42727  13.507   1.549  13.668  0.0177 -0.0278  0.0764
24524W        W42728   8.832   4.589   1.051 -0.0385 -0.2694  0.1488
24525W        W42729   3.150  11.862  16.440  0.0231 -0.0474  0.0863
24526W        W42730  14.706   0.076  15.909  0.0509 -0.0555  0.0980
24527W        W42731   5.903  15.682  13.438  0.0386  0.1413 -0.0206
24528W        W42732  16.772   0.486   2.265 -0.0633  0.1169 -0.1020
24529W        W42733   6.641  12.625  12.476 -0.2963 -0.2346 -0.2657
24530W        W42734  10.704  11.241  12.600 -0.2657  0.3076 -0.1022
24531W        W42735  17.148   9.244  13.804 -0.1754 -0.2650  0.1592
24532W        W42736   4.431   2.290   5.364  0.1784 -0.5178  0.1585
24533W        W42737  15.097   2.936  16.733  0.1348  0.0007 -0.0405
24534W        W42738  13.484  16.223  13.577 -0.0126 -0.2413  0.3803
24535W        W42739   2.510   5.972   1.594  0.0346  0.2069 -0.0043
24536W        W42740  13.194  12.768   5.194 -0.3518  0.0111  0.2602
24537W        W42741  13.933   8.754  16.199  0.1143  0.0809  0.0023
24538W        W42742   8.095  13.636  14.406 -0.0551  0.1106 -0.3548
24539W        W42743  15.743   0.306   1.953 -0.1509 -0.1204 -0.1922
24540W        W42744  11.186  11.647   0.238  0.1136  0.0174 -0.0106
24541W        W42745   1.019   6.647  12.177 -0.0132  0.0197  0.2454
24542W        W42746  12.235   0.816  12.893 -0.0600  0.2058  0.0319
24543W        W42747  12.748  16.527  16.938 -0.2311  0.1965 -0.2717
24544W        W42748   0.094   2.208  13.727 -0.0531  0.3106  0.2454
24545W        W42749  13.533  12.565  14.962 -0.2189  0.1636 -0.3280
24546W        W42750   7.593   1.612   0.863 -0.2602 -0.0345  0.3256
24547W        W42751  12.185   8.977  17.078  0.0882  0.2784 -0.3463
24548W        W42752   8.389  16.398   4.521 -0.0500 -0.2197 -0.0443
24549W        W42753   8.028   8.269   4.616 -0.2408  0.2066  0.3168
24550W        W42754  15.880   8.436   2.749 -0.3157  0.0097  0.1408
24551W        W42755  10.153  12.265  14.551  0.2331  0.1983  0.1995
24552W        W42756   3.777   3.071   2.740 -0.1350 -0.0013 -0.0519
24553W        W42757  16.702   9.510   3.027  0.0572 -0.0813 -0.1136
24554W        W42758   5.035   9.366   1.268  0.1578 -0.0771 -0.3313
24555W        W42759   5.383   0.687  15.651  0.1003 -0.0989  0.1743
24556W        W42760  16.412   0.311   4.440 -0.1731  0.1657 -0.0015
24557W        W42761   1.353  15.557  13.463  0.1966  0.2156 -0.1195
24558W        W42762   3.830   4.603   2.043  0.3318 -0.2278  0.0130
24559W        W42763  12.568   7.179   4.528 -0.0698  0.3886  0.0219
24560W        W42764   6.506   4.361   4.944  0.0932  0.0265  0.2177
24561W        W42765   2.219   3.832   2.358  0.2968 -0.1057  0.2454
24562W        W42766  16.131   6.852  14.061  0.1077  0.3095 -0.0883
24563W        W42767  13.781   0.792  12.917  0.5513  0.1789 -0.2495
24564W        W42768   6.817  14.674  15.739  0.0987  0.0569  0.0102
24565W        W42769  11.559   8.446  12.851 -0.0576 -0.1064  0.2088
24566W        W42770  11.271  15.039  12.986  0.0093  0.0751 -0.1483
24567W        W42771   6.849   7.071  16.569  0.2381  0.0183  0.0707
24568W        W42772   6.932   5.325   4.143 -0.3235 -0.2918 -0.2463
24569W        W42773   9.799  12.643   1.935 -0.0240 -0.0738  0.1851
24570W        W42774  15.857  15.824  14.020  0.1334  0.2004  0.1486
24571W        W42775   3.596  15.361  15.155  0.2245 -0.0317 -0.1352
24572W        W42776   9.322   9.242   4.445  0.0150 -0.2309 -0.2919
24573W        W42777  12.735  13.042   0.010 -0.0157  0.0633 -0.0547
24574W        W42778   1.713   2.606  14.624  0.1010  0.2759 -0.3300
24575W        W42779   5.272  16.217  13.189 -0.0284  0.0763  0.2677
24576W        W42780  15.292   8.255  11.815 -0.0420  0.1344  0.2702
24577W        W42781   2.344   1.378   4.706  0.0976  0.3534  0.2555
24578W        W42782   6.005  12.966   4.000 -0.0995 -0.0633  0.2845
24579W        W42783  14.288   8.528   2.500 -0.0584 -0.1103  0.2495
24580W        W42784   5.069  10.373   4.417 -0.0950 -0.3651 -0.0852
24581W        W42785  11.866   4.706  14.189 -0.1165 -0.2977 -0.0099
24582W        W42786  13.062  14.261   1.280  0.0884 -0.1675  0.1249
24583W        W42787   6.980   6.288   2.406 -0.0939  0.0108  0.0394
24584W        W42788   0.983  15.304  16.603 -0.0928  0.0739 -0.0532
24585W        W42789   2.767   5.372   3.383  0.0541  0.2089 -0.2558
24586W        W42790   1.376  15.711   3.607  0.1528 -0.2271  0.1858
24587W        W42791   7.395   8.921   4.282  0.2467  0.1530 -0.0433
24588W        W42792   7.598   1.268   5.098  0.0047  0.1519 -0.1188
24589W        W42793   8.974  17.073  15.512  0.1838  0.2764  0.1646
24590W        W42794   1.926  15.838  15.055  0.0410 -0.0800  0.1268
24591W        W42795   8.722  15.103   4.254 -0.1683 -0.2776  0.1101
24592W        W42796  14.549   7.423   2.431  0.0956 -0.2454 -0.1782
24593W        W42797  16.879  11.830   0.370  0.0881 -0.0418  0.0488
24594W        W42798   1.359  14.883  12.709  0.0569 -0.0928  0.0020
24595W        W42799   5.815  13.699  17.390  0.1692 -0.1392 -0.1340
24596W        W42800   4.718   8.729   2.107 -0.0362 -0.0066  0.1277
24597W        W42801  12.322   2.373   3.745 -0.0176  0.2688  0.1602
24598W        W42802  14.565   2.677  14.253  0.0933 -0.2156 -0.3046
24599W        W42803  13.590   0.977  15.666 -0.1202 -0.0630  0.3883
24600W        W42804   0.114   2.537   5.297 -0.1370 -0.0622  0.0329
24601W        W42805  12.522  13.767  17.241  0.2667  0.0329  0.0277
24602W        W42806   3.645   0.564  16.589 -0.1967 -0.2372 -0.2858
24603W        W42807   9.468  10.553  15.629 -0.2164 -0.0057  0.6081
24604W        W42808  13.043  14.811  13.562  0.2630  0.1846  0.0877
24605W        W42809  10.148  11.260  16.077 -0.0115  0.1400 -0.1533
24606W        W42810  15.123  13.810   0.415 -0.0762  0.0362  0.0362
24607W        W42811  13.622   7.620  17.486 -0.3289 -0.1250  0.1377
24608W        W42812  16.635   2.491   0.937  0.0145 -0.1180 -0.0557
24609W        W42813   1.598   9.493   1.541  0.0638  0.2498  0.2258
24610W        W42814   3.563  10.808   5.752  0.2423 -0.0905  0.1998
24611W        W42815  11.581  14.888   2.083  0.0313 -0.0730 -0.2880
24612W        W42816  10.266   9.402  13.390 -0.2274 -0.0881 -0.1119
24613W        W42817   9.560   6.036   0.248  0.1524 -0.0672 -0.2074
24614W        W42818  10.199   7.604  14.749  0.0617 -0.1949  0.1159
24615W        W42819   6.597   4.442  15.721 -0.0457 -0.1870  0.3918
24616W        W42820  13.434  13.404  14.879 -0.1884 -0.0406  0.0105
24617W        W42821  12.935  15.064  13.165  0.1835  0.1922 -0.1021
24618W        W42822   5.523   4.991   3.368 -0.1876  0.0185  0.2702
24619W        W42823  15.341   6.354   3.040  0.3491  0.0226 -0.0117
24620W        W42824  11.713  17.090   3.805 -0.1874  0.0881  0.2249
24621W        W42825   2.073   3.492  13.032  0.3005 -0.0057  0.3664
24622W        W42826   0.995   3.420  13.753  0.2261  0.0512  0.1488
24623W        W42827   8.679   1.350   5.751  0.0860 -0.0839  0.0154
24624W        W42828  16.253   7.189   2.810 -0.3550  0.3226 -0.0891
24625W        W42829   0.206   3.587  14.316 -0.1664 -0.2484 -0.1955
24626W        W42830  15.036   1.404   1.668 -0.3887  0.2392  0.0700
24627W        W42831   8.230   7.666  13.970  0.2146  0.4926  0.3249
24628W        W42832   3.534   3.501   1.575  0.0204  0.2231 -0.0793
24629W        W42833   2.404   0.470   3.812  0.0465  0.1828 -0.0468
24630W        W42834   3.189  13.541   5.147 -0.2458 -0.0563 -0.4513
24631W        W42835   7.142   7.448  16.819 -0.2146  0.1338 -0.1921
24632W        W42836   4.231  13.819  14.000  0.0762  0.0386  0.1212
24633W        W42837   4.044  12.816  15.939 -0.0133  0.1447 -0.1279
24634W        W42838  12.133  16.140  16.627 -0.1187 -0.0255 -0.1034
24635W        W42839   7.756  11.341  15.498 -0.0312  0.0843  0.1943
24636W        W42840   6.761  11.692   0.471 -0.0020 -0.2385  0.2012
24637W        W42841  12.533   5.249   1.943 -0.0998  0.0751 -0.1931
24638W        W42842   7.271  12.482  14.268  0.1468 -0.1590 -0.1851
24639W        W42843   4.697   2.541  12.765 -0.0210 -0.0234 -0.2135
24640W        W42844   1.066   5.682   5.214  0.0407 -0.2823  0.0287
24641W        W42845   2.300   8.951   2.302  0.1777  0.2125 -0.0131
24642W        W42846   1.337   3.538   3.858 -0.0511  0.1318 -0.2029
24643W        W42847   9.724  16.999   4.883 -0.2514 -0.2543 -0.2736
24644W        W42848   4.337   7.146   5.044  0.3210  0.1303  0.1406
24645W        W42849  12.905  13.344  15.551  0.1767 -0.0881 -0.0896
24646W        W42850   6.103  13.303  15.965  0.0777  0.2884  0.0080
24647W        W42851   2.773   5.669   2.294 -0.0659 -0.1911 -0.0930
24648W        W42852   0.570   5.998  14.762 -0.0650 -0.0334  0.0344
24649W        W42853  11.471   7.326   4.148 -0.2294  0.2260 -0.2995
24650W        W42854   5.342  15.733  13.576 -0.1307  0.0081 -0.2559
24651W        W42855  15.238  14.389   4.148 -0.0277  0.3863 -0.1143
24652W        W42856   5.642  14.565   1.251 -0.1700  0.2238  0.0713
24653W        W42857   6.829  13.017   0.979 -0.1376  0.0524  0.0084
24654W        W42858  14.748  14.695  12.144 -0.0053 -0.0076  0.1227
24655W        W42859   6.973   6.296   3.937  0.0983  0.3634  0.1829
24656W        W42860   8.035  11.440   6.205 -0.1014  0.0016  0.0510
24657W        W42861   1.007   6.092  14.962 -0.1083 -0.1710 -0.2178
24658W        W42862   9.701   3.548   2.775 -0.0542 -0.4879  0.0600
24659W        W42863  13.184  11.938  15.818 -0.3035  0.0514  0.0468
24660W        W42864  13.093  15.713  16.576 -0.0881 -0.0207  0.0582
24661W        W42865   7.262  17.067   3.019  0.5118  0.0910 -0.4749
24662W        W42866   4.584  15.310  14.273 -0.2004 -0.0208  0.1310
24663W        W42867   7.660   4.069  14.538  0.1742  0.0129 -0.1028
24664W        W42868   3.464   1.770  12.914 -0.3855  0.0901 -0.1234
24665W        W42869  16.313   6.124  16.457  0.1766  0.0482 -0.0275
24666W        W42870   5.197   9.161  12.688 -0.1392  0.1155  0.2206
24667W        W42871   9.150   4.942  14.867  0.0746 -0.0840 -0.0060
24668W        W42872  10.602   2.579   2.759 -0.1142  0.1872  0.1724
24669W        W42873  12.180  16.693   0.822  0.0670  0.2209 -0.0697
24670W        W42874  16.812   1.239  15.535 -0.4033  0.0782 -0.4536
24671W        W42875  13.134   3.745  12.377  0.1946  0.2483 -0.0040
24672W        W42876   7.027   3.500   4.088 -0.0260 -0.4532 -0.0375
24673W        W42877   1.819   3.459   1.929  0.1017 -0.2073  0.1594
24674W        W42878  17.024   2.411   0.583 -0.1223 -0.2434 -0.1702
24675W        W42879  13.086  12.326  14.978  0.6640 -0.1597  0.0971
24676W        W42880  11.687   2.828   1.442  0.1532  0.3881  0.3207
24677W        W42881   6.867  11.626   3.236 -0.1846  0.0001 -0.1496
24678W        W42882   2.259   5.030   1.626 -0.1286  0.0112  0.0963
24679W        W42883  11.249   5.675  13.519  0.0974 -0.0127  0.0214
24680W        W42884   4.712   9.281  13.975  0.0649 -0.2116  0.0971
24681W        W42885   5.135   8.988  16.820  0.1887  0.0485  0.0259
24682W        W42886   6.196  15.328   0.375 -0.0401 -0.1137  0.2002
24683W        W42887   0.976  14.362  13.544 -0.3774  0.1829 -0.4573
24684W        W42888   4.672   9.363   2.458  0.2868  0.0568  0.2796
24685W        W42889   1.076  16.521   2.372 -0.2113  0.0075  0.0880
24686W        W42890   4.026  16.441  13.963 -0.1051  0.2830  0.2543
24687W        W42891   9.663   3.475   4.716 -0.1108 -0.0375  0.0156
24688W        W42892   9.541   1.881   4.399  0.0722 -0.1456 -0.0487
24689W        W42893   4.307  16.970  12.301 -0.0232 -0.3709 -0.0354
24690W        W42894   1.508   3.484   1.541  0.2871  0.0552 -0.2000
24691W        W42895   9.762  17.080  12.269 -0.2939  0.2390 -0.0496
24692W        W42896   2.032   7.567   5.429  0.1400  0.1347 -0.0106
24693W        W42897  13.733   1.882   5.190  0.0197 -0.2641 -0.0325
24694W        W42898  13.373   0.595  13.571 -0.0474 -0.0053  0.1621
24695W        W42899  17.201   1.421  12.541  0.0301  0.1561  0.2014
24696W        W42900  10.697   5.447  15.354 -0.1980  0.0300 -0.1387
24697W        W42901   8.114  11.376  16.137  0.0059  0.4176  0.2958
24698W        W42902  10.207   2.678   1.676 -0.0795 -0.1124 -0.1584
24699W        W42903  12.743   5.540   3.670 -0.2656  0.2032  0.0429
24700W        W42904  12.521  15.020  13.492  0.1318 -0.1808 -0.1520
24701W        W42905   4.394   1.417   1.716  0.1175 -0.2279  0.1286
24702W        W42906  14.944   4.020   0.976  0.0418  0.0786  0.1545
24703W        W42907  15.307   5.936   2.777  0.1916  0.3569  0.0368
24704W        W42908  16.293   0.901   1.532 -0.1816 -0.1603 -0.1010
24705W        W42909   8.213  14.371  15.852 -0.1743  0.0750  0.0037
24706W        W42910   8.219   4.289  13.430 -0.3392  0.2886  0.2385
24707W        W42911   8.492  11.669   2.264  0.3354  0.0569 -0.0999
24708W        W42912  13.094   5.494  15.799  0.0985  0.0353 -0.2255
24709W        W42913   1.633   2.363  16.301  0.0350 -0.0257 -0.3836
24710W        W42914  11.455   0.128  12.513  0.2708  0.0373 -0.3288
24711W        W42915  12.358   3.447   1.727 -0.1284 -0.0837  0.0946
24712W        W42916   9.701   8.122   5.290 -0.3264 -0.1595 -0.1384
24713W        W42917   0.827  10.848   2.366 -0.0427  0.1609 -0.0248
24714W        W42918   7.123  16.858  16.569  0.0283 -0.0827 -0.2028
24715W        W42919  13.204   6.007  13.632 -0.3005  0.1456 -0.0333
24716W        W42920  15.376   6.308   2.460 -0.0943 -0.0618  0.3756
24717W        W42921  11.496   6.567  15.330 -0.1871 -0.1220 -0.0919
24718W        W42922  16.023  16.143   2.778  0.1244 -0.0355 -0.1308
24719W        W42923   5.599   9.417  13.485 -0.0417 -0.0178  0.0788
24720W        W42924   7.914   6.493  17.229 -0.0322 -0.2241  0.0001
24721W        W42925  15.254  16.379   4.768  0.1526  0.1184 -0.1206
24722W        W42926  13.239  16.094   2.310 -0.0078 -0.2462 -0.0972
24723W        W42927   7.265  16.820  13.014 -0.0615 -0.2325 -0.0915
24724W        W42928  10.559   8.247   1.556  0.0142  0.0884  0.2120
24725W        W42929  16.245  11.756   2.511  0.2047  0.1256 -0.0913
24726W        W42930  15.754   5.657   1.879  0.2132  0.0087 -0.2076
24727W        W42931   1.333   3.534   3.380 -0.2512 -0.0571  0.2098
24728W        W42932   5.355  12.717   0.006  0.0739 -0.1203  0.2446
24729W        W42933  15.780  11.029  16.477  0.4251 -0.0247  0.1529
24730W        W42934   7.246  15.678   2.414  0.1450 -0.0033 -0.0526
24731W        W42935  16.875   7.155   3.357 -0.2360  0.1138  0.1449
24732W        W42936  12.476  11.224  15.544  0.0543 -0.0843  0.2227
24733W        W42937   9.867   2.579  17.062  0.1127 -0.0037 -0.0451
24734W        W42938  16.097   0.100  14.678  0.1229  0.1838 -0.2419
24735W        W42939   9.567  12.513   4.497 -0.1705 -0.0706 -0.0476
24736W        W42940  14.056   8.399  15.818 -0.0001  0.3583 -0.0215
24737W        W42941   2.799  16.454   0.351  0.2207  0.3373 -0.1172
24738W        W42942  13.711   2.914  13.973 -0.0399  0.1287 -0.0143
24739W        W42943  13.757  12.094   2.330 -0.0972  0.0800  0.1784
24740W        W42944  11.615  11.613   4.653  0.1120  0.1021  0.3702
24741W        W42945  12.179   7.415   2.896 -0.0083 -0.0228  0.4212
24742W        W42946   7.975  14.335   0.811 -0.1089  0.0950  0.1836
24743W        W42947  12.583   6.112   2.891 -0.2194  0.1964 -0.0260
24744W        W42948   2.809  16.228   4.712  0.1791  0.2032  0.2370
24745W        W42949   0.883  14.522   1.133 -0.0847 -0.0369 -0.0414
24746W        W42950   8.329   7.301  12.835  0.0440  0.0787  0.4865
24747W        W42951  10.561  14.376   3.558 -0.1966 -0.2290  0.0053
24748W        W42952  11.619   3.778   1.302 -0.0213 -0.0579 -0.0911
24749W        W42953   8.093  17.277  13.572  0.1294  0.1225 -0.0764
24750W        W42954  10.688   8.268  15.267  0.1107  0.0831 -0.0437
24751W        W42955   2.965  15.760   2.740 -0.3169 -0.1948 -0.0105
24752W        W42956  10.562  16.782   0.514  0.2603 -0.2294  0.1218
24753W        W42957  14.857   9.515   0.522 -0.0156 -0.3146  0.3647
24754W        W42958   2.934  14.080   1.454 -0.0478  0.0179 -0.0837
24755W        W42959  11.200   2.390  16.406  0.2105  0.0338 -0.1403
24756W        W42960  13.331  14.794  17.492  0.1792  0.2924  0.2083
24757W        W42961   7.234   0.936  14.419 -0.1650 -0.1056  0.0498
24758W        W42962  13.903   5.940  16.544 -0.1227  0.1795 -0.0406
24759W        W42963  12.272   8.589   3.951 -0.1035 -0.0581 -0.0716
24760W        W42964   0.551  12.008  11.809 -0.0947  0.0037  0.0008
24761W        W42965  16.371   4.838   3.738 -0.2023  0.0323 -0.1424
24762W        W42966  14.873  17.161  16.330  0.2408  0.3066 -0.4298
24763W        W42967   5.990   3.540  16.585  0.0008 -0.2816 -0.1242
24764W        W42968  14.928   3.568   4.239  0.2483 -0.2568  0.2125
24765W        W42969  14.876   0.597  15.935 -0.0767 -0.0825 -0.0033
24766W        W42970   3.025   5.196   3.803  0.0229 -0.1792 -0.2568
24767W        W42971  11.957   9.403  11.992  0.2275 -0.1545  0.0376
24768W        W42972  10.247   8.139   0.263  0.2613  0.0532 -0.0019
24769W        W42973   7.118   0.944  16.210 -0.2719 -0.2069  0.1023
24770W        W42974   1.316   8.809   1.331  0.0564 -0.1761  0.1176
24771W        W42975   0.770  10.049   0.834 -0.2148  0.1849  0.0341
24772W        W42976  16.557  16.207   0.302  0.1639 -0.0239 -0.0588
24773W        W42977   3.191  16.642  13.799 -0.1172 -0.0692 -0.1162
24774W        W42978   0.991   8.962   2.273 -0.1034  0.0279 -0.5332
24775W        W42979  12.112   3.736  15.536 -0.2131  0.2548 -0.0349
24776W        W42980  14.587   6.295  13.403 -0.0256 -0.2301 -0.0699
24777W        W42981   8.824   8.572  14.600 -0.0748 -0.1723  0.0104
24778W        W42982   4.529   4.165  13.077 -0.0872 -0.1337 -0.0212
24779W        W42983   6.207   1.605   0.660  0.2822  0.3703  0.1586
24780W        W42984   1.718  10.224  14.979  0.2631 -0.2339  0.2975
24781W        W42985   5.778   6.131  17.267 -0.1821 -0.1548  0.0296
24782W        W42986  17.021   3.586  14.199 -0.0180 -0.2285 -0.2621
24783W        W42987  11.771   8.311  12.021  0.0061  0.0394  0.1970
24784W        W42988  12.453  16.409  16.297  0.0979 -0.1426  0.0384
24785W        W42989   8.091   9.836  15.869 -0.2179  0.0947  0.2205
24786W        W42990  11.467   1.848  15.775 -0.1521  0.3187 -0.0500
24787W        W42991  12.989  10.566   5.319 -0.0000 -0.1253 -0.4077
24788W        W42992  13.016   3.550  12.873  0.0713  0.3175 -0.1725
24789W        W42993   3.419   5.715   4.458  0.1981 -0.3003  0.1945
24790W        W42994  13.757  17.252  17.483 -0.0567  0.1529 -0.1653
24791W        W42995  13.578  14.332  13.138  0.2230 -0.0095 -0.0269
24792W        W42996  14.256   6.008  15.636 -0.0847  0.1579 -0.1737
24793W        W42997   0.395   8.862  14.647 -0.0539  0.0684 -0.0971
24794W        W42998  11.176  14.530   2.176 -0.1992 -0.2410  0.0753
24795W        W42999  11.724   0.290   1.055 -0.1900  0.4155 -0.0073
24796W        W43000   6.046   1.622  12.435  0.3297 -0.2642 -0.0371
24797W        W43001   4.935   6.653   1.877 -0.0620  0.0952  0.0119
24798W        W43002   8.933   3.280   2.129 -0.1937 -0.0098 -0.2427
24799W        W43003   8.064   3.491  15.137  0.1125 -0.0487  0.1683
24800W        W43004  12.057   8.227  15.723  0.0671  0.0568  0.0033
24801W        W43005   7.394  10.016   1.496  0.2183 -0.2062  0.0507
24802W        W43006   2.340  14.499  14.735  0.0056 -0.1703  0.3603
24803W        W43007  16.801   6.908   0.651 -0.0049  0.1842  0.1687
24804W        W43008  14.162   3.477  14.456 -0.0214 -0.2660 -0.2059
24805W        W43009   0.039   9.145   5.423 -0.0583  0.0484  0.2587
24806W        W43010  17.148  13.167   4.774  0.0178 -0.0603 -0.0076
24807W        W43011  13.116   1.118  14.211 -0.1607 -0.1423 -0.2170
24808W        W43012  16.928  16.457  16.284 -0.4578 -0.0499 -0.1830
24809W        W43013   6.895  14.142  13.180 -0.3807  0.0806 -0.0782
24810W        W43014  14.269   4.380   1.415 -0.2519  0.1869  0.1028
24811W        W43015  12.108  12.590   1.089 -0.0973  0.1145  0.0002
24812W        W43016   3.601  14.059   3.896 -0.1131 -0.0947  0.1956
24813W        W43017  10.372  13.559  17.147 -0.0900 -0.1343  0.1239
24814W        W43018   0.948  14.831   4.366 -0.0985  0.2761  0.2138
24815W        W43019  13.290  12.517  14.542 -0.3865 -0.1039  0.1673
24816W        W43020   8.976  13.234  15.992 -0.0280  0.2344 -0.1001
24817W        W43021   8.969   7.456   5.119  0.2263 -0.0534  0.0461
24818W        W43022   8.315  12.553   5.006 -0.1825  0.0393  0.1671
24819W        W43023  11.822   3.799  11.987  0.1232 -0.2243  0.0634
24820W        W43024   6.430   2.056   0.782  0.1064 -0.1740  0.1174
24821W        W43025   0.316  11.508  17.320 -0.0908  0.2787  0.0347
24822W        W43026   6.504   7.426   4.349  0.0942  0.0235  0.2419
24823W        W43027  15.719  16.544  13.647  0.0136 -0.1112  0.0181
24824W        W43028   1.725  17.278  15.991 -0.0522  0.3397 -0.4712
24825W        W43029   1.717  15.125  14.975  0.3946 -0.0802 -0.2245
24826W        W43030   5.565   9.805  14.444  0.0173 -0.0345 -0.2906
24827W        W43031   6.670   8.287  13.287  0.0913  0.0829 -0.1109
24828W        W43032   3.017   0.075  12.607 -0.1200  0.2877 -0.1511
24829W        W43033  16.091   9.306  15.865  0.0861 -0.0754  0.2571
24830W        W43034   3.263  10.486   4.707 -0.0087  0.0744  0.1351
24831W        W43035  14.095   9.098   1.198 -0.1603 -0.0335 -0.2715
24832W        W43036  17.132  16.940   3.352  0.1620 -0.0391 -0.4146
24833W        W43037  15.211   1.815   6.265 -0.0619 -0.1991 -0.2399
24834W        W43038  13.571   8.767  15.677  0.0442 -0.0949 -0.1625
24835W        W43039  11.983  10.064  12.631 -0.2049  0.3289  0.1601
24836W        W43040   0.295  12.479   3.391  0.0456 -0.0694  0.0231
24837W        W43041   6.957  11.354  11.914  0.1016  0.1055 -0.3217
24838W        W43042  10.241   5.749   1.475 -0.2103 -0.0750 -0.2557
24839W        W43043   4.604  14.233  15.323  0.0070  0.0386 -0.1439
24840W        W43044  13.878  11.503   0.611 -0.0022  0.3679  0.2039
24841W        W43045  12.266  12.466  14.857 -0.1156  0.0717  0.0483
24842W        W43046   5.868   9.283   5.196 -0.2826  0.0910  0.0885
24843W        W43047   2.365   8.685  15.597  0.1372 -0.0869  0.0007
24844W        W43048  14.342   5.629  15.316  0.1842 -0.0979 -0.0161
24845W        W43049   9.714  13.031  16.017  0.1083  0.0531 -0.1286
24846W        W43050   5.290  17.218  13.082  0.2241 -0.0356 -0.0883
24847W        W43051   2.660   5.282  13.838 -0.0678 -0.2494 -0.3827
24848W        W43052  14.643   0.151  15.073  0.0650 -0.0336 -0.4739
24849W        W43053  12.952   3.569  15.512 -0.1543  0.2062  0.0213
24850W        W43054  13.121  14.010  13.692  0.0500  0.2249  0.1460
24851W        W43055  12.381   7.995  16.124  0.3707 -0.1178 -0.1495
24852W        W43056  13.139   4.304  15.412 -0.0634 -0.1873  0.2813
24853W        W43057   1.530   4.829   4.324 -0.0556 -0.0815  0.0784
24854W        W43058   0.035   2.418   2.720 -0.1524  0.1344 -0.1650
24855W        W43059  14.509  11.932  12.714  0.1967  0.2616  0.0010
24856W        W43060   2.707   7.057  14.180 -0.0437 -0.2587 -0.1515
24857W        W43061   7.862  14.887   4.544  0.1147  0.0367 -0.3274
24858W        W43062   0.214  11.413  14.516  0.0507  0.3268 -0.5483
24859W        W43063  12.424   3.408  13.122 -0.1293 -0.3467  0.1169
24860W        W43064   4.999  17.179  15.399  0.2134 -0.1229  0.2406
24861W        W43065   9.397   8.996   1.598 -0.0261 -0.3024 -0.1858
24862W        W43066   0.224   1.689  12.734 -0.0230  0.0695  0.1670
24863W        W43067   7.879   3.131   2.397  0.3028  0.0199  0.4545
24864W        W43068  13.175  15.547   1.399 -0.3785 -0.2512 -0.0669
24865W        W43069  14.053  15.181   2.837 -0.2306 -0.1400 -0.1836
24866W        W43070  10.265   2.833   0.490 -0.2663  0.1737 -0.1864
24867W        W43071  16.869  10.251   1.514 -0.0155 -0.0231  0.3011
24868W        W43072   9.877   5.399  15.242 -0.1912 -0.1668  0.4135
24869W        W43073  13.959   3.331  14.025 -0.1123 -0.1933 -0.1939
24870W        W43074   3.175  12.742  12.535  0.1845 -0.1051 -0.1481
24871W        W43075   9.891   6.201  16.037  0.0322  0.0453 -0.0624
24872W        W43076   0.340  15.657  17.397 -0.1017  0.1134  0.0915
24873W        W43077   4.777   5.292  16.892  0.2375  0.2491  0.4108
24874W        W43078   1.966   6.265   0.597 -0.1748  0.0320 -0.1264
24875W        W43079   3.882  13.665  12.826 -0.0680  0.0875  0.0886
24876W        W43080  11.786   3.780  15.924  0.0474  0.0680 -0.1085
24877W        W43081  14.929   5.068  12.241  0.2545  0.1951 -0.1019
24878W        W43082  11.018   9.899  14.347  0.0050 -0.1325 -0.1272
24879W        W43083  12.419   8.692   5.373  0.1724 -0.1248 -0.1449
24880W        W43084   2.422  10.078  16.278  0.2288 -0.1781 -0.0679
24881W        W43085   7.480   8.543   2.217 -0.1467  0.2351  0.0082
24882W        W43086   7.454   8.239   0.158  0.0367  0.0375  0.2955
24883W        W43087   8.401  14.530  14.963 -0.1329  0.0287 -0.0563
24884W        W43088   5.935  12.696  16.816 -0.1702  0.1005 -0.2374
24885W        W43089   7.532   8.885  14.164 -0.0366  0.1910  0.1244
24886W        W43090   4.006   8.981   0.874 -0.1234 -0.0451  0.2820
24887W        W43091  17.015  15.781   0.244 -0.0921 -0.1233  0.0622
24888W        W43092  10.095   0.281  16.787  0.0329  0.1274 -0.1451
24889W        W43093   4.432   6.284  12.187 -0.0844 -0.1493  0.2608
24890W        W43094   9.594  13.445   2.077 -0.0706 -0.1271  0.1040
24891W        W43095   7.126   5.644   0.351 -0.3417 -0.1486 -0.1964
24892W        W43096   7.899   3.150   5.102  0.0184  0.0814 -0.1056
24893W        W43097  10.113   7.672   4.391 -0.0633  0.0259  0.0277
24894W        W43098   6.735   9.459   3.663  0.0693 -0.2535  0.2515
24895W        W43099   5.952   3.237  12.213  0.0049 -0.3596  0.2681
24896W        W43100  10.823  16.758  15.628  0.3229  0.1211  0.2541
24897W        W43101  13.815   1.641   3.504  0.0327  0.0878 -0.1203
24898W        W43102   7.353   2.830  14.370  0.1880 -0.1791 -0.1794
24899W        W43103  16.338  14.471   1.541  0.2091  0.0023 -0.1115
24900W        W43104   8.112  11.750  15.054  0.2600  0.0731  0.0297
24901W        W43105  12.886   1.088   1.292  0.0862 -0.1546  0.0592
24902W        W43106  11.914  14.273  15.090 -0.3462  0.0888 -0.2239
24903W        W43107  11.605  12.381   3.162  0.2627 -0.2654  0.0378
24904W        W43108  13.770  12.931   2.140  0.0207 -0.1026 -0.2106
24905W        W43109  14.581   8.657  17.468 -0.0232  0.0817  0.0974
24906W        W43110   4.249  16.190   4.330  0.1922  0.1494  0.2357
24907W        W43111  17.015   7.333  15.320 -0.1680 -0.1201 -0.0301
24908W        W43112   3.828   9.766  14.730  0.0342  0.0042  0.2302
24909W        W43113  10.532  15.621  12.801 -0.0190 -0.1274  0.3965
24910W        W43114  17.119  10.378  13.212  0.2030 -0.0605  0.2286
24911W        W43115  17.042   0.677  14.350  0.3313  0.1210 -0.0346
24912W        W43116   9.158  12.324   4.701 -0.1712 -0.3182 -0.3368
24913W        W43117   3.759   5.355   4.671  0.1173  0.2472 -0.3513
24914W        W43118   6.453  16.994  17.331  0.2713 -0.1120 -0.0783
24915W        W43119  12.039   1.222  14.687  0.1745 -0.2744 -0.1856
24916W        W43120  16.671  15.241  13.139  0.1764  0.0646  0.1342
24917W        W43121   5.490  17.142   1.776  0.1870  0.1761 -0.2606
24918W        W43122   2.433  15.913   0.987  0.0889  0.3157  0.0142
24919W        W43123  11.663   9.653  14.899  0.2587 -0.1240 -0.0145
24920W        W43124   7.536   7.734   4.789  0.2598 -0.1443 -0.0818
24921W        W43125   2.310   2.846   3.690  0.0013  0.1004 -0.0012
24922W        W43126   0.206   3.326  13.859 -0.3124 -0.1158  0.0066
24923W        W43127   2.861  10.444  17.165  0.2394  0.2116  0.1787
24924W        W43128   8.206   9.921  14.545 -0.2808  0.2115  0.1489
24925W        W43129  17.246   1.953   2.807 -0.0213  0.1388  0.2924
24926W        W43130  14.027  12.454  13.222 -0.1247  0.0822 -0.0394
24927W        W43131  13.930   2.593   1.045  0.1132 -0.0879  0.0212
24928W        W43132   5.397  14.221   4.263  0.0127  0.1843  0.4309
24929W        W43133  13.603  15.042   0.382 -0.0514  0.1569  0.2211
24930W        W43134  13.809   5.165   1.986 -0.1847 -0.1167  0.1132
24931W        W43135  11.646  16.509  15.816  0.0713 -0.3461  0.2244
24932W        W43136   4.092   0.500  15.362  0.0307  0.0555 -0.1406
24933W        W43137  16.830   6.216  16.644 -0.0500 -0.0608 -0.0805
24934W        W43138  14.436   8.631  15.991  0.0486  0.1412 -0.1153
24935W        W43139  16.495   2.501   4.817  0.0279  0.0838  0.3370
24936W        W43140  16.584   6.615  14.042  0.2058 -0.1596 -0.1318
24937W        W43141   8.413  14.494  13.621 -0.3817 -0.2447 -0.0718
24938W        W43142   0.010   4.656  15.139  0.0185 -0.1096 -0.1017
24939W        W43143   6.584   7.886   4.818 -0.0174  0.0632 -0.0326
24940W        W43144   1.687   6.163   4.688 -0.1911  0.0892 -0.1743
24941W        W43145   8.995  13.552   4.851 -0.1295  0.0230  0.0681
24942W        W43146   4.726   3.252   2.706  0.0968 -0.0677  0.1401
24943W        W43147  13.615  13.880   4.886  0.1124 -0.1443 -0.1019
24944W        W43148  12.787   6.642  17.120  0.1947  0.0390  0.0934
24945W        W43149   6.116   0.314   5.202  0.1295 -0.3036  0.0970
24946W        W43150   9.770  10.850  15.242  0.0293 -0.0212 -0.3121
24947W        W43151   6.659  15.891  16.627 -0.0726 -0.1992 -0.2520
24948W        W43152   0.783  13.253  16.708 -0.0066 -0.0681  0.1305
24949W        W43153   5.945  11.727  14.344 -0.0599  0.0850  0.1248
24950W        W43154  13.058  10.520   1.550 -0.2810 -0.1802  0.1086
24951W        W43155   7.685  12.144  14.221 -0.1249  0.2930 -0.0396
24952W        W43156  11.071   5.921   1.498 -0.0294 -0.0046  0.1769
24953W        W43157   4.085  12.265   0.874 -0.1365 -0.1320 -0.2113
24954W        W43158   8.936  16.417  12.467  0.0312  0.2762 -0.0497
24955W        W43159  15.704   1.640  15.975  0.1839  0.2426 -0.1437
24956W        W43160   3.224   0.279  13.673  0.0602  0.0093 -0.1155
24957W        W43161   6.209   1.326   4.679  0.1427 -0.0564  0.2754
24958W        W43162  14.386   9.302  17.363  0.1511 -0.1179 -0.3236
24959W        W43163   5.670  16.175  14.282 -0.1463  0.0317 -0.0341
24960W        W43164  10.147   5.212  13.803  0.1851 -0.0870  0.4634
24961W        W43165  14.893   0.306  15.517 -0.0075 -0.3085  0.3006
24962W        W43166   5.484   5.491  14.533 -0.2045  0.1143  0.2467
24963W        W43167   9.943  16.323   3.703  0.1496 -0.1545  0.1038
24964W        W43168  16.147  16.215  13.817  0.3231  0.0942 -0.0409
24965W        W43169  14.851  17.252   3.797  0.1653 -0.0010  0.2167
24966W        W43170   6.189  12.840  12.547 -0.1161 -0.2621 -0.0130
24967W        W43171   9.585   9.742   0.335 -0.2544 -0.2005  0.2774
24968W        W43172  12.576  15.553  16.532  0.3130 -0.2881 -0.1966
24969W        W43173   5.421  13.851  11.949  0.3176 -0.2233  0.2319
24970W        W43174   4.877  12.689   0.675  0.0327 -0.1103  0.0197
24971W        W43175  16.094   3.040  16.045  0.1460  0.1269 -0.0286
24972W        W43176  14.721  15.105  13.931  0.1674 -0.1126 -0.1492
24973W        W43177   6.506   4.241   4.131  0.0487 -0.0887 -0.1231
24974W        W43178  10.101   0.279   2.344  0.1859  0.1049  0.1598
24975W        W43179   3.961  11.334   2.965  0.0568 -0.1168  0.2798
24976W        W43180   6.559   3.333   6.255  0.2040 -0.3071  0.2179
24977W        W43181   7.620   3.648   0.729  0.4417 -0.1181  0.2278
24978W        W43182  16.269  12.731   4.365  0.0177  0.3168  0.0384
24979W        W43183  14.063  11.984   0.598  0.1218  0.4189 -0.0017
24980W        W43184   5.420   5.718   2.272  0.0394 -0.1007 -0.1745
24981W        W43185   2.053   8.460  13.994 -0.3454 -0.1260 -0.1342
24982W        W43186  10.065  14.590   4.959  0.0213 -0.1996 -0.0575
24983W        W43187   9.681  11.236  14.951  0.2720  0.0543 -0.0212
24984W        W43188   7.547   4.616   1.126  0.1562 -0.0350 -0.1396
24985W        W43189   6.263   6.237   3.011 -0.0206 -0.0408 -0.3283
24986W        W43190  13.239   7.967   2.432  0.1303 -0.1439 -0.0678
24987W        W43191   5.817  15.096   0.148  0.2301  0.4245 -0.3065
24988W        W43192   1.984   6.322  17.090  0.0766 -0.0908  0.3436
24989W        W43193  10.602  15.966   2.278  0.1317  0.0859  0.1836
24990W        W43194   1.279  17.015   3.659  0.1155  0.0353  0.1024
24991W        W43195   3.738  15.793  15.924 -0.2911 -0.2032  0.2473
24992W        W43196   0.317   7.621   3.033  0.0394  0.2458 -0.1001
24993W        W43197  12.673   0.424   2.039  0.0793  0.3567  0.1615
24994W        W43198  15.057  13.921   0.931 -0.2137  0.1216  0.1364
24995W        W43199  10.304   2.325  13.692 -0.2943  0.0923  0.1054
24996W        W43200  11.713   4.563   2.163  0.1327 -0.3431 -0.1047
24997W        W43201   4.576   2.959   3.115  0.1037 -0.2233  0.3982
24998W        W43202   3.079  12.647   0.421  0.0603 -0.0995  0.0335
24999W        W43203   5.659   7.794  16.747 -0.2481  0.0091  0.0685
25000W        W43204   5.136  12.651   1.500  0.0991 -0.1832  0.0259
25001W        W43205   5.599  16.641   2.094 -0.0456  0.0722  0.2067
25002W        W43206  11.659   3.691  14.952  0.2566  0.1165 -0.1378
25003W        W43207   5.472  13.273   1.976  0.0204 -0.0966  0.0489
25004W        W43208  10.698   6.005  14.706  0.0969  0.0885 -0.0433
25005W        W43209   3.060  12.170   0.607  0.2149 -0.0509 -0.4431
25006W        W43210  17.289  12.366  14.763  0.0756 -0.3511  0.2089
25007W        W43211   7.570   4.421   4.001 -0.0441 -0.1185  0.2116
25008W        W43212   6.862   2.609  14.462  0.0930  0.2416  0.1446
25009W        W43213   9.515   6.508   3.267 -0.1818 -0.0376 -0.2680
25010W        W43214  16.715  14.003   5.386  0.0035  0.2328  0.0472
25011W        W43215  16.351   6.865  16.694  0.0057  0.0755 -0.1150
25012W        W43216   4.753   9.032  12.412 -0.0346 -0.2493 -0.1787
25013W        W43217   8.017   6.927  16.688 -0.1961  0.3149 -0.0599
25014W        W43218  13.649  14.785  12.743  0.0728 -0.0159  0.0044
25015W        W43219   4.869  15.981  14.983 -0.0871 -0.1509 -0.3504
25016W        W43220  10.754  14.952   2.306  0.1470 -0.1303  0.1754
25017W        W43221  16.342  17.151  15.093 -0.0663 -0.0528 -0.1256
25018W        W43222   0.320   0.083   5.754  0.1383  0.0174 -0.2197
25019W        W43223  12.168  13.078  13.361  0.1630 -0.0392  0.1516
25020W        W43224   0.383  12.374  12.943 -0.1810  0.0138 -0.1028
25021W        W43225  10.247  11.090  14.143 -0.2208 -0.1477 -0.1576
25022W        W43226   7.002  10.782   1.216  0.0748 -0.0758 -0.0095
25023W        W43227   8.409   0.426   5.346  0.2165  0.1175 -0.0076
25024W        W43228  12.525   0.092  13.951 -0.2975  0.3484 -0.4514
25025W        W43229   4.185   6.491  15.145 -0.1382  0.0294  0.0628
25026W        W43230   5.645  14.030   1.272 -0.3250  0.0396  0.0274
25027W        W43231   6.260  16.710  15.547  0.0809 -0.1644 -0.2152
25028W        W43232  12.026   6.149   1.293 -0.2084  0.5513  0.0063
25029W        W43233  11.099   1.359  14.805 -0.0170  0.2061  0.1939
25030W        W43234   4.699  15.956   4.319  0.2263  0.0032 -0.0257
25031W        W43235   1.275  14.870   1.078  0.0323 -0.1184  0.4046
25032W        W43236   5.801   9.242  15.694  0.0191 -0.1739 -0.1712
25033W        W43237   4.826   2.059  12.660 -0.0102  0.0264 -0.2681
25034W        W43238  10.767  12.046   2.631 -0.1136  0.0217  0.0587
25035W        W43239   3.057   0.261   5.548  0.0873  0.1969 -0.2175
25036W        W43240  13.387   4.535  15.783 -0.1563  0.1962  0.0452
25037W        W43241  10.410   3.613   0.072  0.1743  0.2883  0.0775
25038W        W43242   2.633   5.185   0.109 -0.0188  0.0251 -0.0211
25039W        W43243   6.137   3.121   2.057  0.0096  0.1494  0.1255
25040W        W43244   7.940  15.046   2.804  0.2149 -0.1462  0.0079
25041W        W43245   7.002   7.617  12.023 -0.1260  0.1313 -0.2345
25042W        W43246   4.448   6.547   0.677  0.0416  0.2515  0.0963
25043W        W43247  13.093   1.427  16.283  0.1312 -0.1252 -0.3809
25044W        W43248  16.245   1.820  14.522 -0.1323  0.2084  0.3346
25045W        W43249   7.032  11.665  13.271  0.2977 -0.1313  0.0807
25046W        W43250  12.100   7.208  16.732 -0.2853  0.2085 -0.1015
25047W        W43251   5.102   1.546  13.923 -0.0759  0.1825  0.2594
25048W        W43252   1.326  11.403  11.709  0.1359 -0.0697 -0.1411
25049W        W43253  16.360   0.234  12.577 -0.2103  0.1241  0.0331
25050W        W43254  13.315   7.971  15.245  0.0161  0.0204 -0.0282
25051W        W43255   8.584   1.747  14.091  0.2338 -0.3158  0.1366
25052W        W43256   4.297  16.590  17.506 -0.1327  0.0493 -0.1689
25053W        W43257  17.245  12.632  13.229 -0.2545  0.0596 -0.1625
25054W        W43258  13.587   0.809   5.162 -0.0270  0.0902 -0.2288
25055W        W43259  14.872   8.683  14.558 -0.0367 -0.2043  0.2372
25056W        W43260  13.463   0.188  12.648  0.1568 -0.1179 -0.3887
25057W        W43261  14.868   5.226  15.600  0.2663  0.0881 -0.0208
25058W        W43262  11.193  15.233   2.168  0.0007  0.1543 -0.0827
25059W        W43263   3.103   4.731  12.817 -0.2345  0.1575 -0.1326
25060W        W43264   5.279   8.446   2.838 -0.0162 -0.2078  0.3900
25061W        W43265  13.692  15.395   5.063 -0.1572  0.3059 -0.1681
25062W        W43266   7.548  14.356  16.229  0.0543 -0.0733  0.1393
25063W        W43267   4.721   4.635   4.581 -0.1048  0.1708 -0.1415
25064W        W43268   1.141   0.023  13.829  0.0593 -0.1036  0.0795
25065W        W43269   2.740  13.761   5.310  0.1680  0.0652 -0.5272
25066W        W43270   7.912   9.992   5.420 -0.0444 -0.1055 -0.0863
25067W        W43271   5.114   5.079   1.536 -0.2036  0.1061 -0.1846
25068W        W43272   2.107   7.012   4.795  0.1352  0.1523 -0.1039
25069W        W43273  12.151   3.251   3.392 -0.0743  0.0243  0.0151
25070W        W43274   0.580   9.678   0.428  0.0688 -0.2166 -0.0029
25071W        W43275   8.670   1.637  13.008  0.0718 -0.1471 -0.0070
25072W        W43276   8.467  16.965   4.467  0.0016  0.1051 -0.3101
25073W        W43277  10.324   1.041   2.937 -0.0992 -0.1636 -0.1061
25074W        W43278  16.745   5.171  15.618 -0.0079  0.1517 -0.1423
25075W        W43279   1.058   8.233  14.293  0.0498 -0.0076 -0.1675
25076W        W43280  15.483   3.724   2.804  0.0027 -0.0073 -0.3315
25077W        W43281   3.780  11.518   0.638  0.1115  0.0096 -0.1973
25078W        W43282   0.975  12.263   1.343  0.0180 -0.1355  0.1352
25079W        W43283   3.373  10.790  15.644  0.0518 -0.0174  0.0618
25080W        W43284   4.590   5.737   0.342 -0.4615 -0.1615  0.0614
25081W        W43285   7.430   3.084   1.499 -0.0302  0.0126  0.3139
25082W        W43286  12.549  12.125  17.455  0.3349 -0.1990  0.1745
25083W        W43287   0.688  11.142  16.511 -0.0819 -0.0919 -0.1185
25084W        W43288  11.519  11.745   4.101  0.1368  0.1600  0.1876
25085W        W43289  12.592   3.411  12.529 -0.2368  0.0232  0.4502
25086W        W43290   8.677   6.268   0.316 -0.1585 -0.1068 -0.2793
25087W        W43291   9.461   4.442  12.897 -0.1919 -0.3995 -0.2932
25088W        W43292  17.207   0.636  13.499 -0.1457 -0.0790 -0.0760
25089W        W43293   5.125   7.244  16.132 -0.1085 -0.0332 -0.2250
25090W        W43294   7.350   3.943  15.443  0.2238  0.2552 -0.0020
25091W        W43295   7.120  14.636   5.251 -0.2866 -0.1703  0.1638
25092W        W43296   3.238  15.095  16.082 -0.0931  0.0855 -0.2890
25093W        W43297   2.244  16.712  15.365  0.1464  0.0777 -0.0272
25094W        W43298  17.118   8.925  15.053  0.1145 -0.3786 -0.1352
25095W        W43299  11.807   4.887  13.274  0.1337  0.0139 -0.1244
25096W        W43300  10.053   7.313   2.368 -0.0031  0.1931 -0.0903
25097W        W43301   5.443   4.435  14.252  0.0380  0.1865 -0.0266
25098W        W43302   8.800  12.521  14.660 -0.2312 -0.0026  0.3028
25099W        W43303   4.195   1.559  13.779  0.2194  0.0101  0.0093
25100W        W43304   1.189  14.355  12.063  0.4852 -0.3977  0.3296
25101W        W43305   7.025   0.120   1.311  0.1154  0.2253 -0.1575
25102W        W43306  13.180  10.974   4.972  0.1388 -0.0095  0.0377
25103W        W43307   3.417  14.340  15.367  0.0189 -0.1399  0.1057
25104W        W43308  11.412  13.291  14.549  0.0065 -0.3870 -0.0610
25105W        W43309   1.050   4.756   4.455  0.1852 -0.3475 -0.2289
25106W        W43310   1.026  11.216   1.338 -0.0584  0.0041  0.2465
25107W        W43311  13.754  15.936  15.167 -0.3355 -0.1020  0.0589
25108W        W43312   3.541   8.404   3.455 -0.0030 -0.0138  0.1717
25109W        W43313  16.812   4.571   3.940  0.2935  0.2397  0.2310
25110W        W43314   2.954  13.016   1.174 -0.1021  0.0344  0.0970
25111W        W43315   1.553   6.224  14.311 -0.1474 -0.0888 -0.1189
25112W        W43316  16.242   5.966  17.153 -0.0580  0.2194  0.0707
25113W        W43317  17.128  10.132   5.210  0.2526 -0.0546  0.1387
25114W        W43318  10.223   2.047   4.678 -0.0361 -0.0064 -0.2314
25115W        W43319   9.499   1.345  16.720 -0.3595 -0.0370 -0.2368
25116W        W43320   7.760   4.515   5.314 -0.1799 -0.0384 -0.0543
25117W        W43321   0.545   2.837  14.202 -0.3869 -0.4626  0.1775
25118W        W43322  10.426  11.936   1.576  0.0428  0.0500  0.0403
25119W        W43323   6.119   7.660   2.168 -0.2176  0.0131  0.1427
25120W        W43324   8.215   2.989   3.385  0.0252  0.0162  0.2206
25121W        W43325   5.660   2.589  11.084 -0.0238  0.1368 -0.1143
25122W        W43326   9.724   1.120   0.856  0.0503 -0.2414  0.0004
25123W        W43327   1.589   6.629   3.882  0.1184 -0.1737 -0.1998
25124W        W43328  12.815  17.200   4.584 -0.0748  0.0843 -0.0955
25125W        W43329   9.399   9.268  13.619  0.1302 -0.2501  0.2080
25126W        W43330   0.495   8.978   0.987  0.0435 -0.0170  0.1771
25127W        W43331  12.872  10.260  16.008 -0.0272 -0.0942  0.0567
25128W        W43332  17.080  17.159  15.819 -0.1557  0.0512 -0.1046
25129W        W43333   8.345  14.537  12.680  0.1515  0.2208 -0.0963
25130W        W43334  16.861   6.882  12.415 -0.2184 -0.1040 -0.2876
25131W        W43335  10.265   0.894   2.009  0.0213  0.0636 -0.1445
25132W        W43336  10.249   0.420   0.346 -0.0765 -0.1960  0.0579
25133W        W43337  11.097   6.074   4.992 -0.0370  0.0692  0.2027
25134W        W43338   4.017   1.248  16.496 -0.5811 -0.0688 -0.0540
25135W        W43339  15.188  15.164  15.378  0.1334 -0.1459 -0.1356
25136W        W43340   5.462   8.780  13.606  0.0375 -0.0556  0.1957
25137W        W43341  16.212  13.353   2.291 -0.0514  0.1535  0.1628
25138W        W43342  13.474  11.412  16.407  0.0567  0.0007  0.2506
25139W        W43343   2.878   4.628   0.307  0.3274 -0.3028  0.0195
25140W        W43344  11.235  10.090  16.530  0.2764  0.1241 -0.2821
25141W        W43345   3.893  10.400  13.606 -0.3520 -0.2479 -0.3858
25142W        W43346   8.172   0.199  14.378  0.2164  0.0403  0.1745
25143W        W43347   1.790  10.386  14.443  0.1690 -0.1445 -0.2698
25144W        W43348  17.132  14.821   0.361  0.1498 -0.1211  0.1585
25145W        W43349   2.870  15.577  14.792  0.1198 -0.1662  0.0493
25146W        W43350  11.386  16.885  14.419  0.1890 -0.0117  0.0132
25147W        W43351  10.989   4.508   1.637  0.1625  0.3530 -0.3481
25148W        W43352  16.362   7.841   0.433 -0.0244 -0.2666 -0.0500
25149W        W43353   9.956  15.701   1.143  0.0190 -0.3430  0.1806
25150W        W43354  10.114   2.940  13.396 -0.1642 -0.1149 -0.2081
25151W        W43355  12.923   7.640   1.898  0.4354 -0.0682 -0.1669
25152W        W43356  11.174   8.369  11.995  0.3319 -0.1344 -0.0383
25153W        W43357  12.368   8.193   5.382  0.1243  0.0987 -0.0177
25154W        W43358  11.031   8.544   2.470 -0.3117 -0.3006 -0.0688
25155W        W43359  12.850   7.143   1.637 -0.0012 -0.4033  0.3020
25156W        W43360  11.725   1.222  12.310  0.0196  0.0542  0.0541
25157W        W43361  16.895   4.530   1.777  0.3999  0.0719 -0.0206
25158W        W43362  15.128   0.568   5.595  0.0480 -0.2138 -0.2110
25159W        W43363   1.495   0.213  12.968  0.0002  0.0868  0.2124
25160W        W43364   7.061  14.045  16.111 -0.1830  0.2949 -0.0610
25161W        W43365   4.123  12.778  11.939 -0.0030 -0.3916  0.2247
25162W        W43366  11.309  11.077   4.132  0.1725 -0.0100 -0.2608
25163W        W43367   9.859  13.794  15.586  0.0822 -0.1059 -0.0121
25164W        W43368   3.089   7.163  16.144 -0.2768  0.2490 -0.1201
25165W        W43369  12.739  10.800  15.228  0.0407  0.0105 -0.0784
25166W        W43370   1.276  14.023  17.097 -0.0046 -0.1663 -0.1311
25167W        W43371   5.828   0.730  15.381  0.3184  0.0307  0.0478
25168W        W43372   6.079   0.040  12.716  0.2892 -0.1231 -0.1314
25169W        W43373  12.007   2.815   2.396  0.1149  0.1118  0.2409
25170W        W43374  12.013  16.333   1.159  0.0795  0.3488  0.0288
25171W        W43375   1.556  16.552  17.156 -0.0598  0.3099 -0.3406
25172W        W43376   5.664  10.348  13.661 -0.3024 -0.0613  0.3296
25173W        W43377  15.655   4.949   1.176  0.0786 -0.1441  0.0089
25174W        W43378  10.719  15.345   5.309  0.0420  0.3091  0.0813
25175W        W43379   3.416   1.933  17.221 -0.0229 -0.0372  0.0406
25176W        W43380   5.762   0.326   3.932  0.0729 -0.2294  0.1119
25177W        W43381   7.642  16.900   4.280  0.0370  0.2504  0.1289
25178W        W43382  11.353  12.866   2.990  0.0865  0.2953  0.0995
25179W        W43383   8.115  16.748  13.303 -0.3794  0.0774  0.1411
25180W        W43384   2.834   8.694   4.977  0.0863 -0.0741  0.0400
25181W        W43385   9.987  10.684   2.045  0.0817  0.3972 -0.0802
25182W        W43386   8.759  15.818   3.857  0.1725  0.1298 -0.1833
25183W        W43387   5.170  14.270  13.376  0.0279 -0.0315 -0.1107
25184W        W43388  15.603   8.478  12.569 -0.1624 -0.2088 -0.0394
25185W        W43389   3.442   7.761  13.713 -0.0604  0.0279 -0.1918
25186W        W43390   1.757  16.690   1.792 -0.1867  0.0252 -0.0728
25187W        W43391   8.135  16.666  16.868  0.2726  0.0865  0.4672
25188W        W43392  15.891  12.749  16.549 -0.2826  0.0691 -0.1466
25189W        W43393   6.275  10.359  17.501 -0.2867  0.2410  0.1952
25190W        W43394  11.387   1.080   0.084 -0.0886 -0.0389  0.0520
25191W        W43395   3.322   5.569   3.943  0.0788 -0.0166  0.2603
25192W        W43396   6.533   1.680   1.043  0.2256 -0.2015  0.2688
25193W        W43397  16.291   9.212  13.158  0.1968 -0.1300  0.0704
25194W        W43398   9.472  16.476   1.536 -0.1289  0.2845  0.0226
25195W        W43399  16.742  15.934  15.347  0.2177  0.2231 -0.0143
25196W        W43400  11.501   9.258  12.196 -0.1491 -0.0387 -0.2014
25197W        W43401   8.107   2.917   1.995 -0.0618 -0.0118 -0.2547
25198W        W43402   7.232   9.481  12.890  0.0559 -0.0967  0.2464
25199W        W43403   1.470  13.596   1.978  0.1031  0.0254  0.0352
25200W        W43404   6.217   1.062  17.366 -0.0047 -0.0605 -0.3711
25201W        W43405  14.747  11.028   3.466 -0.3157  0.1254 -0.0871
25202W        W43406   1.285   4.463   1.196  0.0913 -0.2360  0.2454
25203W        W43407   5.088   5.462  16.536 -0.1224  0.1254  0.0505
25204W        W43408   6.254   8.965   5.034  0.0196  0.3219 -0.0820
25205W        W43409   2.147  11.711   3.998 -0.1517 -0.0240  0.4311
25206W        W43410   6.180   6.395   1.784  0.1532  0.0352 -0.1989
25207W        W43411   8.319  11.309  13.715 -0.2391  0.0640 -0.2264
25208W        W43412   8.500   6.143   1.029 -0.1700 -0.3118  0.2861
25209W        W43413  16.495   3.702   0.412  0.2272  0.1128  0.1379
25210W        W43414   0.278   5.239  15.473 -0.0147 -0.1454 -0.0358
25211W        W43415   3.093   1.022  12.287 -0.1509 -0.0710 -0.1763
25212W        W43416   1.197   4.666  14.310 -0.2456  0.2063  0.1342
25213W        W43417  16.658  14.197   2.811  0.2588  0.0512 -0.3716
25214W        W43418   2.461  11.507  13.932  0.0215 -0.3466 -0.1620
25215W        W43419   3.068   7.180  13.000 -0.1542  0.0760 -0.3049
25216W        W43420   2.213   6.322   4.020  0.0067  0.0843  0.2028
25217W        W43421   1.055  10.776  13.050 -0.0874 -0.1145  0.1796
25218W        W43422   6.279   3.180  15.631 -0.1520 -0.1693  0.2090
25219W        W43423  14.252   0.440  14.733 -0.1335  0.0402  0.3581
25220W        W43424   7.959  11.510  12.749 -0.3745 -0.2251  0.1244
25221W        W43425   2.458   7.902  15.752 -0.1618  0.0974  0.1833
25222W        W43426   7.903  11.202  12.353 -0.0943  0.2030  0.3007
25223W        W43427  10.442   3.460   1.710 -0.2068  0.0210  0.0240
25224W        W43428   0.243   5.576   3.538 -0.0096  0.3203 -0.0676
25225W        W43429   2.511   3.839   0.428  0.1845  0.0275 -0.0326
25226W        W43430   3.228  14.269   2.846 -0.1227  0.2328  0.1727
25227W        W43431   6.398  15.284   2.351  0.0752 -0.0257 -0.1186
25228W        W43432   5.933   2.148  16.516  0.0112  0.2378 -0.0649
25229W        W43433  15.634   1.698  15.136  0.4304 -0.0691 -0.1100
25230W        W43434   5.141   0.707   0.250 -0.4133 -0.2334 -0.0938
25231W        W43435  16.740   8.946   5.376 -0.0440 -0.1015 -0.0887
25232W        W43436  11.819   8.463   2.863 -0.1213 -0.1298 -0.1571
25233W        W43437  13.861   5.977  15.306 -0.1008  0.0550 -0.1359
25234W        W43438   5.181   3.714  13.133 -0.4254 -0.0944  0.1924
25235W        W43439   4.526   6.885  13.950 -0.0134 -0.2948  0.0669
25236W        W43440   7.003   2.590  13.390 -0.3081 -0.0806  0.0958
25237W        W43441   7.297  14.032   4.390  0.3443  0.3716  0.1195
25238W        W43442   1.595  14.034   3.261 -0.0399 -0.1673 -0.0297
25239W        W43443   2.801   1.458   3.780  0.3757  0.0540 -0.3310
25240W        W43444   0.490   5.675  15.276 -0.4760 -0.1164 -0.2431
25241W        W43445   4.519   8.313  16.822  0.2185 -0.2237  0.1686
25242W        W43446   1.810   0.585   3.676  0.2350  0.4089 -0.3965
25243W        W43447   1.422  15.167  13.785 -0.0429  0.2564 -0.1286
25244W        W43448  14.938   5.499  12.568 -0.1177  0.4074  0.1322
25245W        W43449   5.177  13.911   0.768  0.1103  0.1181  0.1235
25246W        W43450   7.935   4.718  13.315 -0.1514  0.3429  0.0759
25247W        W43451   4.343   6.206   4.719 -0.0645 -0.1171  0.1555
25248W        W43452  13.409  15.155  14.476 -0.3396  0.0488 -0.0851
25249W        W43453  10.763   9.851   0.909  0.0897 -0.0583 -0.1269
25250W        W43454  11.227  10.813   1.367 -0.0038 -0.0102 -0.1300
25251W        W43455  13.937  12.571   2.384  0.0468 -0.0983  0.0054
25252W        W43456  11.369  14.283  12.176 -0.0399  0.0388 -0.1168
25253W        W43457  10.452  13.459   2.898 -0.1320 -0.0664 -0.1545
25254W        W43458   2.283   8.216   0.457 -0.0334 -0.2365  0.0147
25255W        W43459   7.252   1.680  15.189 -0.1489 -0.1112 -0.0764
25256W        W43460   0.236   6.241   0.261  0.1310  0.2323  0.0286
25257W        W43461  10.237   3.426   0.554  0.0474  0.0015  0.0101
25258W        W43462  12.848   7.132  17.089  0.1324  0.3118 -0.1203
25259W        W43463   4.234   5.281   3.872  0.1125 -0.3728 -0.1159
25260W        W43464   5.523   9.062   2.605  0.1223 -0.1415  0.0001
25261W        W43465  14.279  15.771  15.247  0.2214 -0.0040 -0.1596
25262W        W43466  11.890  13.807   0.631  0.0117 -0.0581  0.3553
25263W        W43467   5.167  16.312  15.865  0.0017  0.1749  0.0016
25264W        W43468  14.572   9.464  16.800  0.0287  0.1075 -0.0187
25265W        W43469  12.350   7.022   5.562  0.1094  0.1529 -0.0280
25266W        W43470   4.954  10.224  12.483  0.0978 -0.3050 -0.2564
25267W        W43471   5.880   7.623   0.747 -0.0832 -0.2915  0.1539
25268W        W43472   9.193   3.666   4.018 -0.1425 -0.0846  0.0406
25269W        W43473   5.967  15.204  14.539  0.1023  0.2809 -0.1411
25270W        W43474   2.513   4.206  17.036  0.1201 -0.3626  0.0248
25271W        W43475  15.457   3.158   3.587 -0.0733 -0.2061  0.1956
25272W        W43476   9.395   6.319   3.904 -0.0973 -0.1849  0.3015
25273W        W43477  14.513   6.774  15.624  0.0063 -0.0919  0.1094
25274W        W43478   2.662  13.530   2.898  0.1005 -0.2128 -0.0118
25275W        W43479  15.288  15.392   6.574 -0.1311  0.1140 -0.0970
25276W        W43480  16.466   4.790   3.256  0.0770  0.2534 -0.0172
25277W        W43481   8.891  14.849  15.191  0.0673 -0.1917  0.0100
25278W        W43482   5.738  12.985   3.020 -0.0646  0.0494  0.2292
25279W        W43483   2.952  11.318  12.554 -0.0896 -0.0888 -0.0748
25280W        W43484   0.239   3.150   1.013 -0.1721  0.1220  0.0691
25281W        W43485  15.809  10.295   2.361 -0.1817  0.1220 -0.0918
25282W        W43486   9.831  16.802   2.413  0.0828  0.0204  0.4261
25283W        W43487   5.760  16.634   0.240 -0.3497 -0.0172  0.1113
25284W        W43488  11.334  17.117   2.122 -0.1204 -0.1172  0.1108
25285W        W43489  16.159   1.430  16.818  0.0291 -0.0251 -0.3250
25286W        W43490   8.111   2.127  12.177  0.0176  0.1947 -0.1050
25287W        W43491  14.780  11.758   0.596 -0.0167  0.1000 -0.1076
25288W        W43492  17.045  10.579   4.876  0.1578  0.1194 -0.0104
25289W        W43493   7.598   7.533   3.892 -0.3820  0.1271 -0.0266
25290W        W43494   9.439   7.727  16.038  0.0643 -0.0523  0.0553
25291W        W43495   6.757  15.516  15.237 -0.0079  0.1918  0.1090
25292W        W43496  12.852   9.162   0.699 -0.0555 -0.2183 -0.0232
25293W        W43497   0.537  15.700  13.665 -0.1037  0.1187  0.0577
25294W        W43498  13.615  16.246   6.249 -0.2345  0.0319 -0.1345
25295W        W43499  10.486  14.445  17.151 -0.0169 -0.2533 -0.1901
25296W        W43500  11.069   4.748  16.488 -0.3272  0.0845 -0.2809
25297W        W43501   6.198  13.044  14.410 -0.0718  0.0428 -0.1494
25298W        W43502  15.957  13.943   2.949  0.1996  0.1111 -0.2205
25299W        W43503   5.110   2.750  17.433 -0.1933  0.0867  0.2334
25300W        W43504   4.099   6.075  16.380 -0.2560 -0.0973  0.0461
25301W        W43505  11.252   8.457   4.231 -0.1177  0.0291 -0.2389
25302W        W43506  10.514   5.444   1.106  0.0899 -0.0212 -0.2728
25303W        W43507   9.283   9.354   3.465  0.0275 -0.2701 -0.0821
25304W        W43508   3.145  12.290  13.853 -0.0334  0.0540 -0.3084
25305W        W43509  14.286  14.404  12.284 -0.1589 -0.3631  0.1903
25306W        W43510   4.048   4.165   5.202  0.0214 -0.0826 -0.0366
25307W        W43511   3.812   9.799  16.305 -0.0818 -0.3223  0.0648
25308W        W43512  14.246  14.159  15.580 -0.0554 -0.2267 -0.1138
25309W        W43513  13.137  10.000  17.424  0.2253  0.2044 -0.1168
25310W        W43514  16.479  12.011  15.090  0.2051 -0.2389  0.2833
25311W        W43515  12.085   3.482  16.135 -0.1153  0.2237 -0.0220
25312W        W43516   3.318   7.298   5.075 -0.1126 -0.1348  0.0507
25313W        W43517  14.464   7.121   3.702  0.0343 -0.0855  0.2725
25314W        W43518   8.011  15.007   5.014 -0.1199 -0.1029 -0.0636
25315W        W43519  15.254   0.682   2.849  0.1392  0.0625  0.1431
25316W        W43520   5.155   3.431  14.317  0.1712 -0.0478 -0.1176
25317W        W43521  11.475   5.296  12.434 -0.0911  0.0691 -0.1142
25318W        W43522   2.348   1.313   2.642 -0.2461  0.0690 -0.0781
25319W        W43523   7.188   3.540   1.768  0.0502  0.1656 -0.1101
25320W        W43524  11.532  14.873   0.536 -0.0194 -0.4915  0.1211
25321W        W43525   2.457   9.847   4.512  0.0373 -0.0754  0.0352
25322W        W43526   5.055  15.420   1.690  0.4169  0.0517  0.1616
25323W        W43527  12.867   8.720   0.039  0.0311 -0.1248  0.0176
25324W        W43528  16.649   7.259  17.195 -0.2349 -0.2264  0.1272
25325W        W43529   4.321  15.291   2.333  0.4355  0.0151  0.1882
25326W        W43530   5.555  14.960  16.056 -0.2358  0.3763  0.0834
25327W        W43531   3.909   7.472  14.748  0.0389 -0.2028  0.0939
25328W        W43532  15.445   2.965  14.360  0.1149 -0.1272  0.0973
25329W        W43533   9.306  12.573  14.954 -0.0926  0.2506  0.1831
25330W        W43534   5.217  12.386   5.823 -0.1262  0.2371 -0.2906
25331W        W43535  12.373   4.511  15.979 -0.2236  0.0519  0.0727
25332W        W43536   1.372  10.136   2.847 -0.1788  0.0407  0.0046
25333W        W43537  12.301  13.115   3.677  0.1586  0.1577 -0.1470
25334W        W43538   5.826  15.229  13.173 -0.1986  0.1862 -0.2536
25335W        W43539  10.748   0.243   2.616 -0.0303 -0.2448 -0.1332
25336W        W43540   5.423   1.013   5.476  0.0182  0.4300  0.1500
25337W        W43541   9.107  12.892  16.898  0.1606 -0.2274 -0.0131
25338W        W43542  15.814   1.154  13.528 -0.1488 -0.0453 -0.0016
25339W        W43543  10.897  12.973   4.730 -0.1886  0.1395  0.2374
25340W        W43544   8.674   5.496   0.283 -0.0556 -0.0942 -0.0705
25341W        W43545  15.681   7.881  12.520 -0.0794 -0.1929 -0.0710
25342W        W43546   6.170   1.506   2.682 -0.1823  0.0026  0.1021
25343W        W43547   0.789   4.689  16.281 -0.1062  0.0559 -0.0120
25344W        W43548   7.451  16.276   5.683  0.2699 -0.0798  0.1060
25345W        W43549   5.211   1.919   0.096  0.1509 -0.2334 -0.1483
25346W        W43550   2.411   7.589   3.089  0.2758 -0.0950  0.0076
25347W        W43551  15.842   6.612  16.642 -0.4090  0.3623  0.2428
25348W        W43552   6.753  14.861  16.538 -0.1143  0.2369 -0.2972
25349W        W43553   5.094   4.279   0.957 -0.1898  0.1167  0.0014
25350W        W43554   3.554   6.477  14.231 -0.0746  0.2061 -0.0274
25351W        W43555   7.183   7.826  12.858  0.0378 -0.1312 -0.1253
25352W        W43556   2.919  17.185   0.448  0.0333  0.0385 -0.2872
25353W        W43557  13.625  13.571  14.267 -0.2158 -0.0006  0.4655
25354W        W43558   9.957  12.613  13.374  0.0761 -0.0071  0.3946
25355W        W43559   6.254  10.993  14.277 -0.1654  0.3503 -0.0626
25356W        W43560   6.401  10.693   2.250 -0.1702  0.0364  0.0821
25357W        W43561   6.104   3.498  13.580 -0.3720  0.0861  0.0483
25358W        W43562   2.586  12.803  15.066  0.1768 -0.1262  0.0972
25359W        W43563   1.727   0.677  17.346 -0.1804  0.0073  0.0495
25360W        W43564   4.230  16.611   1.024  0.0421 -0.0928 -0.1756
25361W        W43565   7.043   2.674   3.594  0.0932 -0.2574 -0.0161
25362W        W43566   0.341  13.104  15.786  0.0704  0.1224  0.3535
25363W        W43567  11.508   0.415   3.551  0.2712  0.0208  0.3534
25364W        W43568   0.402   1.529  15.483  0.1215 -0.0276  0.1640
25365W        W43569   3.892   6.685  16.317  0.5128 -0.1540 -0.3143
25366W        W43570   8.005   1.647   1.571 -0.1932 -0.1802 -0.0185
25367W        W43571  15.680   3.601   0.738  0.0312  0.2195 -0.0553
25368W        W43572   2.841  14.394   1.899  0.0020  0.0123  0.1063
25369W        W43573   0.860  14.458   4.034  0.0551  0.2820  0.0299
25370W        W43574  17.080   3.304   0.822  0.0036 -0.1796  0.0794
25371W        W43575  12.876   5.705  16.849 -0.0286  0.0160 -0.1801
25372W        W43576  14.095   9.945   3.835  0.0686  0.0977 -0.1765
25373W        W43577   4.050   8.401   3.704 -0.0299 -0.0317  0.1518
25374W        W43578   4.273  13.228  16.771 -0.0644 -0.0431  0.0748
25375W        W43579   6.535  13.203  14.820 -0.0671 -0.0671 -0.0609
25376W        W43580   6.863  11.405  12.400  0.0823 -0.1432  0.3917
25377W        W43581  16.113  16.994   0.672 -0.0586 -0.2330  0.0030
25378W        W43582   7.093   5.259  14.389 -0.0948 -0.0977 -0.1943
25379W        W43583  12.057   8.467  17.130  0.4027  0.2241  0.1602
25380W        W43584   2.202   6.300   3.436 -0.3262 -0.0671 -0.1212
25381W        W43585   8.139  15.297  16.322  0.0458  0.1919 -0.0375
25382W        W43586   3.150   0.473   1.836  0.3019  0.1313 -0.0525
25383W        W43587   6.387  14.895   0.067  0.0447 -0.0025  0.1361
25384W        W43588   3.343   6.316  11.334 -0.0596  0.5190  0.0283
25385W        W43589  11.460  11.957   0.731 -0.1163 -0.1669 -0.0931
25386W        W43590  14.647   4.683  12.332 -0.2965 -0.0164  0.1693
25387W        W43591   7.662  12.058   1.929  0.0506  0.1211 -0.1845
25388W        W43592   6.688   6.243  12.662 -0.0495  0.0504  0.0051
25389W        W43593   0.228   4.644   4.770  0.4306 -0.0680  0.0091
25390W        W43594   6.211   0.264   0.217  0.2474 -0.0878 -0.2824
25391W        W43595   4.746  13.965  14.019  0.5942  0.1447 -0.0162
25392W        W43596   1.765   6.068  13.911  0.1129  0.0304 -0.1762
25393W        W43597   3.908   6.106   1.414  0.0569 -0.0164  0.4516
25394W        W43598  14.287   8.536  14.465 -0.3262 -0.1137 -0.1067
25395W        W43599   6.239   7.091  15.152  0.1313 -0.0269 -0.1263
25396W        W43600   0.478   5.072  13.196 -0.1773  0.0669 -0.1136
25397W        W43601   0.051  17.097  17.460  0.2297 -0.0175  0.1515
25398W        W43602   1.136  11.014   4.681 -0.4071  0.1880  0.1719
25399W        W43603  13.476   1.038  13.296 -0.0619 -0.1284  0.4098
25400W        W43604  11.451  15.667   3.426 -0.0984  0.0787 -0.1747
25401W        W43605   1.173  13.161  13.116  0.0544 -0.1760  0.0976
25402W        W43606  11.541   8.619   2.467  0.0251 -0.1101  0.0658
25403W        W43607  12.832   0.981   2.233 -0.1435 -0.1383 -0.1704
25404W        W43608   2.567   3.356  14.790  0.0522 -0.3237 -0.1588
25405W        W43609  13.200   4.134   5.471  0.2020 -0.0388 -0.0434
25406W        W43610  12.321   6.163  16.232 -0.0866 -0.0416 -0.3367
25407W        W43611  10.888   8.347   2.034 -0.0274 -0.1506 -0.0597
25408W        W43612   8.843  10.905   0.220  0.2046 -0.0609 -0.0251
25409W        W43613   0.557   2.418   1.538 -0.0973 -0.2541 -0.0816
25410W        W43614   2.986  14.240  12.902  0.0806  0.2327 -0.1939
25411W        W43615  15.516  11.163  14.741  0.0948 -0.1597 -0.2097
25412W        W43616   9.613  13.490   2.623  0.4359  0.0306 -0.0023
25413W        W43617   1.146  15.123  15.936  0.2809  0.2165  0.2617
25414W        W43618   4.168  10.583  15.463 -0.0797 -0.3922 -0.0512
25415W        W43619  12.081   0.920  13.814 -0.2129  0.1403 -0.1899
25416W        W43620   8.470   1.744   1.417 -0.0599  0.1863  0.3888
25417W        W43621  14.467   2.624  16.177  0.2751  0.1818 -0.1507
25418W        W43622  14.150   6.793  14.081 -0.0391 -0.2881  0.0560
25419W        W43623   2.826   1.564   4.671  0.0720 -0.2180 -0.2646
25420W        W43624  13.869  12.317   0.901  0.0167 -0.0776 -0.0948
25421W        W43625  14.010  14.937   0.133  0.1549  0.1910 -0.2789
25422W        W43626   2.992   5.268  16.580  0.1731 -0.1894 -0.2792
25423W        W43627   5.583   2.575  12.731  0.4436 -0.0822  0.1678
25424W        W43628   6.546   1.981  15.200  0.4094  0.2071  0.3977
25425W        W43629  16.955  10.184  14.500 -0.1887 -0.0318  0.0660
25426W        W43630   9.242   4.207  15.989 -0.2271  0.1846 -0.0545
25427W        W43631   9.279  12.201  13.407 -0.3441  0.0004  0.1611
25428W        W43632  12.477   0.327  14.446 -0.0964  0.0676  0.0332
25429W        W43633  16.782   6.000   4.076  0.1844 -0.2013  0.3053
25430W        W43634   5.958   4.224  16.376  0.0414  0.0180 -0.0387
25431W        W43635  11.261  15.640  14.970 -0.1742  0.3079 -0.1378
25432W        W43636   1.173   7.393   1.236  0.5623  0.2179 -0.0496
25433W        W43637  16.121  10.371  13.726  0.0449  0.0504  0.0284
25434W        W43638   7.076  15.693   3.413 -0.0331  0.1506  0.0503
25435W        W43639   4.923  11.621  15.989 -0.2020 -0.0040  0.1621
25436W        W43640   8.805  13.928   2.603 -0.2258  0.0898  0.4091
25437W        W43641   9.185   3.149   3.969 -0.1300  0.0326 -0.2491
25438W        W43642  10.326   3.738  13.516  0.0348  0.1573 -0.1726
25439W        W43643  13.653   1.400   2.438 -0.1323 -0.1576 -0.1490
25440W        W43644  16.271   6.845   3.841 -0.2107 -0.0955  0.1203
25441W        W43645  16.785   1.354   1.381  0.2467 -0.0004  0.0744
25442W        W43646   8.480   7.744   1.657 -0.3744 -0.4935 -0.1682
25443W        W43647   3.759  16.643  15.984 -0.2649  0.2472 -0.0467
25444W        W43648   6.769   1.301   3.591  0.1128  0.2152  0.0170
25445W        W43649   5.203  11.619   0.194  0.1036 -0.3783  0.0111
25446W        W43650  12.594  11.079   0.482 -0.0796  0.1741  0.1015
25447W        W43651  13.753  10.898   3.183  0.1398 -0.2573  0.2296
25448W        W43652   7.446  16.953  17.381 -0.2445 -0.0508 -0.0227
25449W        W43653   0.254   7.586   3.952 -0.0835  0.0865  0.1515
25450W        W43654   0.595   4.089   0.770 -0.3191 -0.1703 -0.0013
25451W        W43655  15.209   9.352   0.144  0.0424  0.4734  0.0888
25452W        W43656  12.403   7.283  12.506 -0.0475  0.0863 -0.1779
25453W        W43657   8.295   0.890   1.113 -0.1161  0.3808 -0.1241
25454W        W43658   8.768   9.420   1.910  0.3929 -0.2387 -0.0479
25455W        W43659   4.526  10.253   4.685  0.1186  0.0852 -0.1694
25456W        W43660   8.247   8.859   1.006  0.1709  0.5451  0.0251
25457W        W43661   1.252   3.044  16.166 -0.0436  0.2532 -0.0945
25458W        W43662   6.086  15.646  16.614  0.0175 -0.0987  0.0702
25459W        W43663   5.988   1.839  15.922  0.0814  0.0111 -0.1665
25460W        W43664   3.514  11.266   4.445 -0.0324  0.2076 -0.2360
25461W        W43665  13.113   3.366  15.913  0.1516  0.0196  0.2750
25462W        W43666  11.022  11.340   2.540 -0.0014 -0.1973 -0.0749
25463W        W43667  16.937  16.813   0.696  0.0177  0.2677 -0.0001
25464W        W43668   4.928   9.087  16.284 -0.0140 -0.0996 -0.0853
25465W        W43669  14.810   9.866  15.410  0.1216  0.2510 -0.1892
25466W        W43670  11.381   1.263  15.780  0.0281 -0.0481 -0.1310
25467W        W43671  13.205  12.549   4.692  0.0173 -0.0328  0.2751
25468W        W43672   0.307   9.909   2.928 -0.1331  0.1562  0.1264
25469W        W43673   3.529  12.230   0.126 -0.1712 -0.1242  0.0750
25470W        W43674   0.189   9.688  13.652 -0.0103 -0.1008  0.3286
25471W        W43675   4.116  14.827   2.464  0.4954 -0.2156  0.1607
25472W        W43676  14.118  13.147   5.402  0.1759 -0.2496 -0.3285
25473W        W43677  14.802   9.075   0.172 -0.5207  0.2376 -0.0609
25474W        W43678  11.276  12.461  12.484  0.0306  0.0797 -0.1489
25475W        W43679  13.119   4.671   3.276  0.0422 -0.2051 -0.0232
25476W        W43680   6.178  13.598   1.813  0.0756 -0.0379 -0.0529
25477W        W43681  15.788   2.713  14.133 -0.0155  0.1180  0.3301
25478W        W43682  14.091   0.546   2.304 -0.0014  0.0720 -0.1010
25479W        W43683  12.942   0.915  13.377  0.0451  0.2632  0.0627
25480W        W43684   7.923  11.523  13.236  0.3493 -0.0919 -0.1941
25481W        W43685   3.732  13.157  16.789  0.1146 -0.1428 -0.1100
25482W        W43686   3.627   5.888  16.692 -0.0212 -0.0792 -0.3354
25483W        W43687   0.515   4.280   1.858  0.2003  0.1841 -0.3080
25484W        W43688   5.712  14.209   2.152  0.1221 -0.3395  0.0670
25485W        W43689  10.311  12.222   2.337  0.0743  0.1209 -0.0194
25486W        W43690  12.573   5.140   3.389  0.2997  0.0753  0.1626
25487W        W43691  14.020  11.401   2.873  0.0634 -0.1721  0.1545
25488W        W43692   1.966  15.498  16.310  0.0655 -0.1249  0.0877
25489W        W43693   8.340   9.237  13.947 -0.0634  0.1367  0.0991
25490W        W43694  16.577   0.777   4.314 -0.2500  0.1028 -0.1225
25491W        W43695  11.975   3.763  13.074 -0.0237 -0.0699 -0.3356
25492W        W43696  11.566   9.504   1.035 -0.3359  0.1964  0.0976
25493W        W43697   2.529   7.976   3.342 -0.2606  0.2087  0.1513
25494W        W43698  13.129  11.611   2.795 -0.0730  0.2955 -0.0393
25495W        W43699  16.400   3.897   2.214  0.0114  0.0216 -0.0738
25496W        W43700   0.272   2.078  17.368  0.1425  0.1725  0.2215
25497W        W43701   5.387  11.961   1.120  0.1748 -0.0377  0.0943
25498W        W43702  11.142  13.238  15.545 -0.2174 -0.0073  0.3212
25499W        W43703  11.544   1.741   4.720 -0.1195 -0.1683 -0.0334
25500W        W43704   4.370   9.301  16.989 -0.0022 -0.1982  0.0405
25501W        W43705  10.720   4.554   1.186  0.0420  0.0013 -0.2147
25502W        W43706   2.125   8.838  14.348 -0.1301  0.0085 -0.0288
25503W        W43707   4.751  12.323   1.723 -0.0137  0.1857  0.4476
25504W        W43708   5.311   2.754   1.455 -0.1924  0.0450 -0.3807
25505W        W43709   3.352   7.045  12.459 -0.1280 -0.1962 -0.0835
25506W        W43710   3.824   7.881  12.288 -0.0560  0.2219  0.0916
25507W        W43711  13.932  16.554   5.039  0.1088 -0.4924  0.2340
25508W        W43712   4.072   1.023   1.712 -0.1282 -0.1128 -0.1347
25509W        W43713   1.518  15.958   6.301  0.0724 -0.0436 -0.0661
25510W        W43714  13.823  10.413   3.367  0.0577 -0.0295 -0.2681
25511W        W43715  16.353   5.874  13.990 -0.1937 -0.1124  0.2148
25512W        W43716  12.497   0.158  13.021  0.1043 -0.2358 -0.0304
25513W        W43717  12.819  13.698   4.502 -0.1452 -0.1269 -0.1201
25514W        W43718  13.306   8.752  16.611  0.1311 -0.1296 -0.2060
25515W        W43719   8.854   8.733   5.117  0.1747  0.0559  0.0410
25516W        W43720  15.166  11.377  12.718 -0.0402  0.0885 -0.1987
25517W        W43721  16.230   5.579   2.812 -0.1138 -0.3045 -0.2792
25518W        W43722   6.213   7.158  16.254  0.0177  0.0010  0.1475
25519W        W43723   4.795  10.026   1.833 -0.0531  0.0774  0.2184
25520W        W43724   8.034  16.834  11.449  0.0540  0.2466  0.0459
25521W        W43725  12.574   4.840   5.331  0.0050  0.0068 -0.1932
25522W        W43726   0.977  10.367  13.323 -0.2173 -0.2129  0.1236
25523W        W43727   4.051  16.077  13.425 -0.2821 -0.1554 -0.0511
25524W        W43728   3.383  13.532   2.278  0.4477 -0.0546 -0.1580
25525W        W43729  12.760   6.662   4.479 -0.4608  0.0651  0.1426
25526W        W43730   1.200   5.048   3.767 -0.0229  0.1010  0.2345
25527W        W43731  11.945  13.706   4.264 -0.0332 -0.0391  0.0911
25528W        W43732  15.094  16.180   2.912 -0.1281  0.0713  0.2492
25529W        W43733   5.985  16.586  12.878 -0.3069 -0.0837  0.1642
25530W        W43734  12.363  12.410   4.278 -0.1905  0.0671 -0.2171
25531W        W43735   9.966  14.167   1.656  0.1281 -0.0480  0.1539
25532W        W43736   9.351  14.266  13.836 -0.0580 -0.2221  0.2180
25533W        W43737   2.484   5.239   5.168 -0.1624 -0.2406  0.3837
25534W        W43738  12.771   6.584  12.435  0.0240 -0.1791 -0.1354
25535W        W43739   9.982   4.175   0.231  0.2156 -0.1373 -0.1170
25536W        W43740   4.812  15.156  16.307  0.0040  0.1247  0.0280
25537W        W43741   8.379   0.748  16.465  0.0526  0.0993  0.4285
25538W        W43742  13.678  11.806   1.504 -0.1046 -0.0883 -0.0442
25539W        W43743   8.832  10.431  17.504 -0.0460 -0.1478 -0.1385
25540W        W43744  11.860   8.714   5.161 -0.2164  0.0694 -0.1325
25541W        W43745   4.224   7.110  13.539 -0.1969 -0.1996 -0.0149
25542W        W43746   7.945   0.628  16.188  0.0730  0.0909  0.3963
25543W        W43747  12.722  13.814   2.563  0.0141  0.0158  0.1617
25544W        W43748   8.700  13.368   2.624  0.0699 -0.0063 -0.1427
25545W        W43749   8.482   7.930   3.684 -0.1510 -0.1954 -0.0751
25546W        W43750   3.248  11.916  12.944  0.1699 -0.0045 -0.2672
25547W        W43751  16.991   9.483  15.520  0.1612 -0.3504 -0.2267
25548W        W43752   2.022  13.125   2.329 -0.0117 -0.0878  0.1492
25549W        W43753  10.326   6.175  13.567 -0.0784  0.0901 -0.0188
25550W        W43754  14.735   9.425  13.265 -0.0080  0.4809 -0.2514
25551W        W43755  17.108  11.845   3.701  0.1797 -0.1558  0.3307
25552W        W43756   8.465   9.944  14.981  0.0656 -0.0330 -0.2432
25553W        W43757   1.293  12.450  12.962 -0.1100  0.0492  0.0443
25554W        W43758   5.589  12.116   4.373  0.2214 -0.1038 -0.0763
25555W        W43759  13.168   0.108   2.151 -0.0044 -0.3428 -0.2594
25556W        W43760   9.068   8.221  13.785 -0.1388  0.5171  0.1121
25557W        W43761   2.181   4.709  12.740 -0.2605 -0.0035  0.3696
25558W        W43762  11.698  17.260   1.903  0.0874  0.1493  0.0261
25559W        W43763   0.409  10.048  14.200  0.0819 -0.2473  0.0091
25560W        W43764   6.951  14.340  12.085 -0.1322  0.0404  0.2032
25561W        W43765   1.096   9.335   2.742 -0.3373 -0.1656 -0.0644
25562W        W43766   6.728   4.512  12.134  0.0626 -0.0750  0.1795
25563W        W43767   8.523  16.358   0.189  0.4537 -0.0648  0.0303
25564W        W43768  10.406  13.489  12.447  0.0864 -0.0631  0.1726
25565W        W43769  11.057   6.843   4.264 -0.5366  0.0273 -0.1382
25566W        W43770  17.233   7.958   4.416 -0.1552 -0.0324 -0.1761
25567W        W43771  11.122   8.588   5.602  0.0064  0.0005  0.3289
25568W        W43772   7.499  12.953  12.964  0.0475 -0.0333  0.1710
25569W        W43773   7.025  11.460   3.683 -0.3165 -0.1915  0.1192
25570W        W43774   5.827  14.053   4.002 -0.1494 -0.0067 -0.0461
25571W        W43775  14.515   6.241   0.922 -0.1667 -0.0647 -0.3824
25572W        W43776   6.805   5.439   5.023 -0.0857  0.1869  0.1552
25573W        W43777   0.500   3.524  15.594 -0.1518 -0.0828 -0.1210
25574W        W43778   5.205  14.279   1.139 -0.0447 -0.0085 -0.0766
25575W        W43779  16.451  11.356  13.411  0.0970 -0.1851 -0.0263
25576W        W43780  11.529  11.693   1.948 -0.0117 -0.1400 -0.1263
25577W        W43781   8.251   2.638  14.549 -0.2527 -0.0438 -0.1907
25578W        W43782  12.651   6.679   1.699 -0.1180  0.0310  0.1814
25579W        W43783   9.643   1.924  12.173  0.1682 -0.2366  0.0505
25580W        W43784   4.850  13.439   1.148 -0.4792  0.0344  0.2777
25581W        W43785   4.360  12.181  13.835  0.3482  0.1083 -0.1826
25582W        W43786  11.138  10.262  17.023  0.1294  0.0165  0.0407
25583W        W43787   9.497   6.057   2.924  0.0054  0.0385 -0.3383
25584W        W43788   4.383   4.861  15.881  0.0188 -0.0798 -0.0586
25585W        W43789  16.380   1.687   0.866 -0.1789 -0.1181 -0.0752
25586W        W43790   7.665   0.076  14.384 -0.3869 -0.2127 -0.0355
25587W        W43791   3.535  11.049   3.010  0.1607 -0.0392  0.1898
25588W        W43792  14.197   2.689   3.554  0.0926  0.0443  0.3126
25589W        W43793   1.205  12.412  16.112 -0.3452  0.2986 -0.1123
25590W        W43794  10.207  12.730   4.694  0.0956  0.0921 -0.1786
25591W        W43795  12.153   6.572   1.731 -0.0144  0.2911 -0.1044
25592W        W43796  14.512   3.023   3.982  0.2788  0.0729  0.0959
25593W        W43797   3.080  11.559   4.503 -0.0620  0.0293  0.1460
25594W        W43798   4.633  14.185  13.588 -0.1261  0.0092 -0.1663
25595W        W43799  15.764   8.860  12.297 -0.1115 -0.0218 -0.0347
25596W        W43800   8.287   3.792  16.872  0.2718  0.0770 -0.0177
25597W        W43801   6.991   2.047   1.885 -0.2551 -0.1966  0.0131
25598W        W43802  13.923  13.611  13.666 -0.0349 -0.2769 -0.3218
25599W        W43803   4.780  17.085   4.932 -0.1952 -0.2686 -0.3748
25600W        W43804   2.381  10.159  13.585  0.2113 -0.2666  0.1851
25601W        W43805  12.928  14.781   1.707  0.1449  0.3146  0.0097
25602W        W43806  10.690   8.732   2.766  0.1181 -0.0828  0.2287
25603W        W43807   0.374  14.713   1.142  0.0912  0.0369 -0.2113
25604W        W43808   1.626   4.246   1.785  0.1218  0.1106 -0.2417
25605W        W43809  10.592  16.045  11.848 -0.0723 -0.0845 -0.0731
25606W        W43810  11.907   6.111   2.868  0.0399 -0.2063  0.0264
25607W        W43811   1.216  13.749   0.958 -0.1014 -0.1347  0.0711
25608W        W43812   7.840  14.489  13.320 -0.4143 -0.0529  0.2450
25609W        W43813   9.070   7.695  13.907  0.2139 -0.0294  0.1447
25610W        W43814   5.852  11.675   4.305  0.0696 -0.0024 -0.0581
25611W        W43815   1.788  14.441  15.090  0.0486  0.0120  0.3102
25612W        W43816   3.934  14.654  13.913  0.0685  0.3056 -0.0577
25613W        W43817  12.491   2.807   4.008  0.1186 -0.2545  0.2216
25614W        W43818   0.502   8.259  14.845  0.0147 -0.1725  0.1060
25615W        W43819   3.588   4.397  16.150  0.0137 -0.2283  0.1642
25616W        W43820  16.460  14.338  15.693  0.0246  0.2248 -0.0320
25617W        W43821  12.980   0.787  13.875 -0.0400  0.2016  0.1175
25618W        W43822  10.125  12.309   0.565  0.0774 -0.0026  0.1645
25619W        W43823  10.772  14.793   3.430 -0.2970 -0.0034  0.0087
25620W        W43824  16.919  16.029  12.487  0.1023 -0.0379  0.0844
25621W        W43825  11.252  12.555   1.694 -0.1565 -0.1148 -0.2089
25622W        W43826   3.638   3.590  15.255  0.2989  0.0276  0.1228
25623W        W43827   5.807  10.974  17.397 -0.1256  0.1126 -0.2645
25624W        W43828   9.131   9.525  14.586 -0.0314 -0.0648 -0.0115
25625W        W43829   8.083  12.057   1.353 -0.0481 -0.0399 -0.1133
25626W        W43830   8.738   2.920   0.904  0.0986  0.3069 -0.2106
25627W        W43831   7.664  11.938  16.566 -0.2034  0.0613  0.0037
25628W        W43832  14.611   7.131  14.806 -0.1783  0.0828  0.2530
25629W        W43833   8.708   5.924  12.736  0.1000  0.0639  0.0175
25630W        W43834   5.737   4.050  14.617  0.2007  0.0413 -0.3348
25631W        W43835   6.909   9.357   2.287  0.0624  0.0566  0.2943
25632W        W43836   7.026   7.034  14.476  0.1043  0.0334  0.0021
25633W        W43837   5.517   5.791   1.003  0.0003  0.1703 -0.0876
25634W        W43838   0.822  11.140  12.685 -0.1009  0.0909 -0.0315
25635W        W43839  14.852   8.215  12.586  0.1082  0.1639 -0.3417
25636W        W43840   6.343  16.453  11.405  0.1902  0.3249 -0.0812
25637W        W43841   9.788   0.352  16.394 -0.2713  0.3218 -0.0845
25638W        W43842   4.625  16.033  16.765 -0.0107 -0.1330  0.2269
25639W        W43843   5.626   4.996   3.893 -0.2614 -0.1868  0.2868
25640W        W43844  12.636  14.751  12.197 -0.0963 -0.2360 -0.2423
25641W        W43845   2.999   1.183  13.639 -0.0447  0.0818 -0.0967
25642W        W43846   1.435   1.686   3.002 -0.0579 -0.1223  0.0879
25643W        W43847   8.386  10.612   0.185 -0.1137 -0.0564  0.2132
25644W        W43848   7.491  14.274   2.696  0.1949  0.0796  0.2658
25645W        W43849   9.786   2.074   0.716  0.1276  0.1608 -0.0801
25646W        W43850  13.334  14.961   4.695 -0.3308 -0.0987  0.0368
25647W        W43851   7.586   3.542   2.155  0.0051  0.2588 -0.2851
25648W        W43852  12.504   5.344  16.798 -0.2627 -0.2738 -0.0680
25649W        W43853  16.384  11.458  15.117 -0.1498 -0.1589  0.3323
25650W        W43854  15.690   6.868  16.159 -0.0156  0.0563 -0.0384
25651W        W43855  14.650  12.049  15.606  0.0910 -0.1257 -0.0834
25652W        W43856  15.208   3.615  14.727 -0.1133  0.2426 -0.1652
25653W        W43857   8.512   2.572  17.167  0.2850  0.2439 -0.1008
25654W        W43858  12.406   9.388   0.854  0.2992  0.0357  0.2121
25655W        W43859   1.678   6.341   3.336 -0.4988  0.0291  0.1032
25656W        W43860   9.077   3.404  12.703  0.2193 -0.0085  0.1365
25657W        W43861   0.741  11.250   2.111  0.0070 -0.2164  0.2357
25658W        W43862   9.287   0.171  13.471  0.3680 -0.0424 -0.1236
25659W        W43863   2.616  10.170  14.052  0.0636  0.3552 -0.3748
25660W        W43864  11.252   0.051   3.686  0.2089 -0.1041 -0.3217
25661W        W43865   3.498   9.044   3.456  0.3111 -0.0193 -0.1971
25662W        W43866   6.172   6.794   5.509  0.1040  0.0073 -0.4427
25663W        W43867  11.877   3.596   4.287 -0.1009  0.0763  0.4113
25664W        W43868  14.265  16.444  14.436 -0.0848  0.0822  0.0735
25665W        W43869   1.308  17.076   5.714  0.2623 -0.0713  0.1931
25666W        W43870   0.141   2.305   0.334  0.3962 -0.0246 -0.2550
25667W        W43871   3.766  16.345   1.393  0.1046 -0.3261  0.2843
25668W        W43872  11.727   3.812  17.433 -0.5061  0.1563  0.1482
25669W        W43873   4.542   7.214   0.066  0.1599 -0.0968  0.1212
25670W        W43874   2.562   4.349  11.385 -0.1326 -0.1930 -0.0251
25671W        W43875  16.314   6.630   2.316  0.2034 -0.1826  0.2803
25672W        W43876   7.765   4.909   2.384 -0.3094  0.0609 -0.1276
25673W        W43877   9.136   1.457   3.420  0.2263  0.0083  0.0539
25674W        W43878   7.252  14.884  16.614 -0.0685 -0.0964  0.1141
25675W        W43879  12.543  11.899  12.382 -0.0291  0.0708 -0.3160
25676W        W43880   5.962   4.263  13.266  0.1925 -0.1884  0.0353
25677W        W43881   7.874   1.655   5.278 -0.0011  0.2969  0.2521
25678W        W43882  13.810   5.076  12.744  0.0371  0.0062  0.1509
25679W        W43883   1.464   8.764  15.697 -0.1114  0.0476 -0.1459
25680W        W43884  16.092   2.161   6.339 -0.0079  0.3151 -0.1751
25681W        W43885   2.364  13.682  13.857  0.0778 -0.3771  0.0689
25682W        W43886   3.545  17.222   5.273 -0.1186 -0.1939  0.0195
25683W        W43887  14.175   1.062  13.095  0.0626  0.2349  0.0706
25684W        W43888  14.575   0.203   0.458  0.1525 -0.0050 -0.2986
25685W        W43889   7.342   3.573  14.643  0.0702 -0.4239  0.3117
25686W        W43890  10.961   9.480   1.619  0.2066 -0.1533 -0.1212
25687W        W43891  13.651  10.164  12.624 -0.0380  0.0737  0.0241
25688W        W43892  12.566   6.351   4.145 -0.1650 -0.2575 -0.0225
25689W        W43893   8.982   8.506  15.983  0.4490 -0.0214 -0.0633
25690W        W43894  10.255  13.001   0.752  0.2302 -0.1124  0.1736
25691W        W43895  11.335   5.599   5.233  0.3762 -0.2198 -0.2240
25692W        W43896  13.686  14.572  15.256 -0.2998 -0.0145  0.0342
25693W        W43897   4.021  15.327   4.068 -0.2951  0.1227  0.0959
25694W        W43898   3.559   4.549  14.894  0.1022 -0.0969  0.0729
25695W        W43899   5.389  17.204  16.889 -0.2700  0.1956 -0.1876
25696W        W43900   5.898   1.400  13.231 -0.0705 -0.0220  0.0903
25697W        W43901   0.920  16.019   4.997  0.0996 -0.0594 -0.0312
25698W        W43902   1.418  15.659  14.805  0.1936  0.0076 -0.2908
25699W        W43903   3.775   7.233  13.745  0.2678  0.1646  0.1324
25700W        W43904   2.957   9.422   4.106  0.1351 -0.0562  0.0034
25701W        W43905   3.533   1.617   0.219 -0.0486  0.1786 -0.2266
25702W        W43906  14.503  15.324   4.817 -0.0994  0.0170 -0.0818
25703W        W43907   6.379   2.704   2.456 -0.0303 -0.1381 -0.1223
25704W        W43908   0.360  13.036  16.969 -0.2127 -0.0139 -0.2507
25705W        W43909  13.574   2.198  12.733 -0.3158  0.1839  0.1968
25706W        W43910  10.295  13.736   4.868 -0.1866 -0.0359 -0.0880
25707W        W43911   0.775   1.010   0.580  0.0198  0.0821  0.0842
25708W        W43912  12.360   1.688   5.213 -0.0130  0.0828 -0.1989
25709W        W43913   7.134   5.703   1.915 -0.0181 -0.0517  0.1589
25710W        W43914  13.433  14.551  15.749  0.1692  0.0126  0.0033
25711W        W43915  10.683  12.768  15.115 -0.0581 -0.0524  0.1561
25712W        W43916   3.354   5.517  11.957 -0.0446  0.1211 -0.1356
25713W        W43917   6.400   6.941   4.286  0.1806  0.1801 -0.3080
25714W        W43918   9.531   3.978   0.120  0.0557 -0.0264 -0.1861
25715W        W43919  16.447  11.627  14.604  0.1025 -0.2904 -0.0933
25716W        W43920  14.580   5.594   0.678  0.0246 -0.1494  0.1649
25717W        W43921  13.097  16.635  17.238  0.4080 -0.0611 -0.1079
25718W        W43922   5.929   0.016  13.812 -0.1180 -0.1023  0.1945
25719W        W43923   0.908   3.636   4.725 -0.0036 -0.2264  0.2117
25720W        W43924   5.798  12.650  14.203  0.2342 -0.1352 -0.2202
25721W        W43925   6.516   2.218   1.657 -0.0090 -0.2025  0.0940
25722W        W43926   6.526   6.717  16.775  0.1165  0.0850  0.0241
25723W        W43927   4.167  13.151   2.605 -0.0238  0.1212 -0.2789
25724W        W43928   4.167  11.236  13.126 -0.2290 -0.0714  0.1983
25725W        W43929   9.221  16.813  14.543  0.2031 -0.0734  0.1896
25726W        W43930  14.195  15.339  17.280  0.0011  0.1829  0.0986
25727W        W43931   9.390   9.578  12.287  0.1122  0.0450 -0.1472
25728W        W43932  15.807  11.593  14.209  0.0282  0.0959  0.0727
25729W        W43933   5.857  12.521   3.772  0.1380  0.1963 -0.1234
25730W        W43934  11.936   8.011  13.014  0.0707  0.1494 -0.0110
25731W        W43935   4.047  16.544  12.113  0.1407 -0.0212 -0.0956
25732W        W43936   9.923   8.040  17.206  0.1885  0.2477  0.1910
25733W        W43937   3.327   6.813   4.863  0.0484 -0.0783 -0.3086
25734W        W43938   4.641   4.121   0.278  0.2210  0.1215 -0.1696
25735W        W43939   9.923  16.752   4.420 -0.0225  0.0516 -0.0281
25736W        W43940   7.356   3.145   2.442  0.1305 -0.1282  0.0464
25737W        W43941   3.892   2.022   0.051  0.0711 -0.1964 -0.1674
25738W        W43942  11.485   7.907  14.765  0.0582  0.1823 -0.0823
25739W        W43943  11.044   5.573   3.583  0.1463 -0.1310  0.1621
25740W        W43944   1.939  10.842  16.085  0.0076  0.3086 -0.3088
25741W        W43945  10.249   2.183  16.223 -0.4116  0.3176 -0.1297
25742W        W43946  12.023  12.985   3.310 -0.2370  0.0963  0.1378
25743W        W43947  12.863   8.373   2.395  0.2619  0.0474  0.0114
25744W        W43948   4.046  15.507  15.360 -0.1304  0.1896 -0.0693
25745W        W43949   2.097   8.698  17.331 -0.0096  0.0957  0.2296
25746W        W43950   9.609   7.535   2.133  0.0114  0.4411  0.2663
25747W        W43951   2.363   5.563   1.210  0.1401 -0.0462  0.0217
25748W        W43952   6.281   1.976  14.257 -0.4980  0.0320 -0.1276
25749W        W43953   3.295   3.792  14.656  0.1420 -0.0515  0.0160
25750W        W43954   2.115   3.174   1.009 -0.4015 -0.1917 -0.1687
25751W        W43955  15.183  10.008   4.309 -0.0963  0.2253 -0.0723
25752W        W43956  16.023   7.118   0.581  0.1648 -0.0059  0.2028
25753W        W43957  17.154  15.762   3.328  0.5930 -0.2189 -0.2135
25754W        W43958   4.340   5.613   3.574 -0.1413  0.0885 -0.1876
25755W        W43959   1.538   6.149   1.550  0.2220  0.0309 -0.1277
25756W        W43960  12.175  16.589  14.831 -0.1378 -0.0447 -0.2707
25757W        W43961   6.512   6.346   0.150  0.1801 -0.1235 -0.0467
25758W        W43962   7.594  11.660  15.024 -0.1520 -0.0377 -0.1104
25759W        W43963   4.027   9.902  13.788  0.0377  0.2019 -0.0363
25760W        W43964  10.703   7.327   4.864  0.0926 -0.1076  0.3885
25761W        W43965   8.534  10.861   1.920 -0.0508  0.0960  0.2139
25762W        W43966   5.386   3.585  16.150 -0.1096  0.2286 -0.2787
25763W        W43967   8.140   2.607   0.019  0.0707  0.2537 -0.1802
25764W        W43968   9.573   5.877  16.289  0.0145 -0.2554 -0.0065
25765W        W43969   9.592   0.368   2.213  0.0135  0.1794 -0.0305
25766W        W43970   5.353   8.104  13.614 -0.1957 -0.0483  0.0029
25767W        W43971  16.138   4.272  15.349 -0.0257  0.0938  0.1567
25768W        W43972  12.533  12.760  13.540 -0.2006  0.0922  0.1825
25769W        W43973   2.925  15.735  12.937  0.1040 -0.1491  0.0660
25770W        W43974  13.718   7.773  12.623  0.1589 -0.2974 -0.1285
25771W        W43975  16.683   9.936  14.150  0.0239  0.3691 -0.1097
25772W        W43976  11.006  12.654   3.348  0.2289  0.2365  0.3145
25773W        W43977   5.607  10.169   4.120 -0.0282 -0.0260  0.3012
25774W        W43978  15.662   0.696  13.999 -0.2872 -0.1396 -0.0380
25775W        W43979   8.171  14.068   2.977 -0.1337 -0.1161  0.1334
25776W        W43980   9.358   9.650  17.035  0.1678  0.1288 -0.1301
25777W        W43981  15.909  12.845  15.475  0.1691  0.1014 -0.0804
25778W        W43982  11.963  10.112  14.442  0.1358 -0.1271 -0.4092
25779W        W43983   1.073  13.951   0.457  0.2067 -0.1499  0.3026
25780W        W43984   9.454   1.456   0.023  0.3948 -0.1073  0.2448
25781W        W43985   4.805   2.921   2.318 -0.1060  0.0472  0.0861
25782W        W43986  13.282   5.536   3.879  0.0055 -0.1347  0.1639
25783W        W43987  15.548  14.246   0.601 -0.0485  0.0884  0.1827
25784W        W43988   7.534   4.080   0.501  0.1354 -0.0673 -0.0321
25785W        W43989  11.830  12.113   1.139 -0.0307  0.0376 -0.1457
25786W        W43990  15.657   9.485  14.508 -0.2857 -0.0778 -0.2251
25787W        W43991   4.059   5.961   3.376 -0.2076 -0.4116 -0.1052
25788W        W43992   3.794   2.592   3.034  0.2030  0.0708  0.3116
25789W        W43993   6.003   4.663  12.430 -0.0395  0.1807 -0.0477
25790W        W43994   9.624  12.018  16.432  0.0000  0.0704 -0.0391
25791W        W43995  15.964  11.945  15.006 -0.1967 -0.0675  0.1474
25792W        W43996  10.873  13.611   4.316 -0.0126 -0.1114  0.0596
25793W        W43997   6.133   7.604   4.054  0.0460  0.3292 -0.0676
25794W        W43998   6.651   8.867   0.321  0.0934 -0.0023  0.1018
25795W        W43999  11.827   7.827   2.269 -0.1778 -0.0868 -0.0108
25796W        W44000  13.362   1.866   2.253  0.1691 -0.2972 -0.0228
25797W        W44001   4.138   4.382  16.203  0.2395 -0.0534 -0.0398
25798W        W44002  12.764   2.553  15.860  0.3277  0.2403 -0.1640
25799W        W44003  14.577   6.004   4.958  0.0200 -0.1297 -0.0499
25800W        W44004  16.806   8.631   0.764  0.0845 -0.0681 -0.2698
25801W        W44005  16.924   6.756  12.908  0.1702 -0.0003  0.1225
25802W        W44006  10.031  11.752   5.485 -0.0613 -0.4651 -0.1992
25803W        W44007  16.741   4.363   1.340 -0.0969  0.3360 -0.4522
25804W        W44008  17.200   0.674  11.624 -0.1449  0.1463 -0.0366
25805W        W44009   0.912   0.713   4.862  0.0482 -0.0135  0.1375
25806W        W44010  15.319   0.111   0.190  0.0422 -0.0756 -0.1902
25807W        W44011   2.010  10.872   5.160  0.0931  0.0257 -0.2831
25808W        W44012   5.018   1.112   5.132  0.0758 -0.0751  0.0509
25809W        W44013   0.430   6.481  16.753  0.1731 -0.2580  0.2757
25810W        W44014  11.105  14.529  15.318  0.1040 -0.1080  0.0363
25811W        W44015   7.414   5.383  16.656 -0.0529  0.2522  0.2085
25812W        W44016   3.712  17.116  15.117 -0.1559  0.2777 -0.2008
25813W        W44017   6.950  15.019  17.026 -0.0740  0.1855 -0.0327
25814W        W44018  10.938  12.029  12.477 -0.0694 -0.0480 -0.1413
25815W        W44019  16.867   3.391   4.814 -0.0832 -0.1093  0.3139
25816W        W44020   8.054   1.751   3.740  0.1054  0.0332  0.0920
25817W        W44021  14.342  16.567  12.018  0.1512 -0.2381  0.0360
25818W        W44022  16.920  14.011  12.988 -0.0512 -0.2579 -0.1170
25819W        W44023   5.402  10.801  13.062 -0.1099  0.3015  0.1315
25820W        W44024  16.292   4.735  15.490  0.0225  0.4572  0.1065
25821W        W44025  15.960   2.886  16.804 -0.1912 -0.0865  0.3269
25822W        W44026   8.791  10.067   1.457 -0.1581  0.1128  0.2002
25823W        W44027   2.800   5.776  15.009 -0.3245  0.1531 -0.1077
25824W        W44028   7.045   7.072   2.211  0.2111 -0.2077 -0.0719
25825W        W44029   6.641   6.364  13.924  0.3300 -0.0754 -0.0539
25826W        W44030   6.383   3.943  11.008 -0.1551  0.1686 -0.0069
25827W        W44031   5.025   3.878  15.171 -0.1703 -0.0703 -0.1778
25828W        W44032   9.114  16.737   3.534  0.1401 -0.2090 -0.1523
25829W        W44033   5.935  13.033  12.992  0.1572 -0.0323 -0.3163
25830W        W44034   0.227   1.070  13.705  0.3630  0.2365  0.1107
25831W        W44035   3.121   6.164  12.449  0.0587 -0.0226  0.2600
25832W        W44036   2.946   0.714   1.270 -0.0763 -0.0771 -0.3175
25833W        W44037   1.597   5.275  12.487 -0.1741  0.0459  0.1329
25834W        W44038  13.762  13.867   4.399 -0.0680  0.1384 -0.1757
25835W        W44039   7.835  14.548   1.842 -0.2468  0.1210 -0.1130
25836W        W44040   4.907   1.713   2.801 -0.0850 -0.0750 -0.0672
25837W        W44041  14.159   8.872  13.909 -0.0037  0.1457  0.0470
25838W        W44042   1.833   1.779   2.300  0.2665  0.1035 -0.2278
25839W        W44043  15.223  12.771  12.531  0.0397 -0.0979  0.1702
25840W        W44044   7.789   2.239   3.886  0.1790  0.1292 -0.0802
25841W        W44045  16.343  15.541   2.445 -0.0497 -0.0590  0.0014
25842W        W44046   9.260  12.984   2.327 -0.0572 -0.0093 -0.2561
25843W        W44047   0.787   3.155   1.077 -0.1664 -0.0328  0.3786
25844W        W44048  10.135   7.844  12.910  0.2688 -0.4770 -0.0619
25845W        W44049   2.930   0.250  15.016  0.0143  0.1634 -0.3301
25846W        W44050   3.821   6.504  14.687 -0.2751 -0.0892  0.1262
25847W        W44051   1.093   8.319   1.573  0.0685  0.1345  0.0079
25848W        W44052  14.415  10.281   2.272 -0.1750 -0.1040  0.0791
25849W        W44053  10.774  15.921   2.753  0.0718  0.1156 -0.0121
25850W        W44054   4.006  12.985  15.428  0.1472  0.0226  0.0829
25851W        W44055  11.139   3.528  14.662  0.2453  0.3151 -0.0590
25852W        W44056   7.827   7.898  12.153 -0.0389 -0.1022 -0.0201
25853W        W44057  10.439  13.781  15.120  0.1616  0.0954  0.0608
25854W        W44058  11.917  15.313  16.064  0.3396 -0.1895  0.3143
25855W        W44059   6.028  12.739  15.409  0.0781 -0.2977 -0.3819
25856W        W44060   3.384  16.556  15.701 -0.3470 -0.1428  0.0783
25857W        W44061   9.588   8.097   2.195 -0.0363  0.0225  0.2009
25858W        W44062   6.945  13.008  12.568 -0.3960  0.1270  0.0851
25859W        W44063   9.747  11.753  15.084  0.0890 -0.1125 -0.0831
25860W        W44064  16.660   6.050   3.592 -0.2898  0.0166  0.1139
25861W        W44065  15.789  11.384   3.369  0.2818 -0.0606  0.3112
25862W        W44066   8.122   8.995  11.159 -0.3822 -0.1136 -0.0931
25863W        W44067   3.415  12.027  15.942  0.1128 -0.1861 -0.1639
25864W        W44068  11.302   9.300   2.957  0.1011  0.0167  0.2203
25865W        W44069  13.673   0.924  14.163  0.1542 -0.3292 -0.0149
25866W        W44070   3.997  17.052   0.855 -0.2904 -0.0728  0.0010
25867W        W44071  11.692  16.354  12.681 -0.0379  0.1651 -0.1168
25868W        W44072   3.089   6.161   4.314  0.0342  0.0607 -0.0289
25869W        W44073  11.152  12.117   3.181 -0.1059 -0.0025  0.3092
25870W        W44074  10.187   8.605   2.705 -0.0328  0.1136 -0.2193
25871W        W44075  14.308  10.019   4.807  0.0931 -0.0206  0.1533
25872W        W44076   8.817  12.637  14.191 -0.1917  0.2230 -0.1120
25873W        W44077  12.538   7.955   4.546  0.6738 -0.1709 -0.2161
25874W        W44078   3.779  15.530  16.762  0.0409 -0.2640  0.0993
25875W        W44079  10.798  14.353   5.439 -0.3009  0.0639 -0.1321
25876W        W44080   1.761  11.556  16.807  0.0935  0.1733 -0.0620
25877W        W44081   6.189   7.610  17.327  0.0145  0.1264 -0.2974
25878W        W44082  15.030   1.759  14.962 -0.2896  0.0069  0.0567
25879W        W44083  17.138   5.847  13.316 -0.0081  0.2701 -0.0504
25880W        W44084  14.114   5.518  12.912  0.2140 -0.0489 -0.1900
25881W        W44085   4.619   8.564  13.439  0.5812  0.2871 -0.0539
25882W        W44086  10.295   7.894  15.265  0.0647 -0.0756  0.1195
25883W        W44087   9.192  13.866  16.532 -0.0956 -0.1919 -0.0748
25884W        W44088  16.802   0.314   4.807 -0.1195 -0.0756 -0.1047
25885W        W44089   9.441  15.747  13.543 -0.2451 -0.1283 -0.3707
25886W        W44090   9.859  15.859   2.907  0.1287 -0.1129  0.2271
25887W        W44091   2.083   3.566  16.768 -0.1009 -0.1168 -0.1383
25888W        W44092   4.124  13.730   3.297  0.0430  0.1748 -0.0695
25889W        W44093  14.393  12.786  17.203  0.3301  0.0065  0.1002
25890W        W44094  15.048  10.756  17.055  0.0969  0.4405 -0.3730
25891W        W44095  14.874   2.341   0.404 -0.0370  0.1813 -0.0781
25892W        W44096   4.595   2.737  14.394 -0.2446  0.1902  0.0853
25893W        W44097   5.488  15.241  12.315 -0.0354  0.0685 -0.1242
25894W        W44098   2.064  11.199  17.018 -0.0285 -0.1289 -0.4743
25895W        W44099   8.252   2.682  16.732 -0.0482 -0.3665  0.0705
25896W        W44100  15.496  13.677  15.750 -0.1002 -0.1049 -0.3053
25897W        W44101  11.101  12.336  16.515  0.1702  0.2609 -0.0927
25898W        W44102  15.616  12.675  13.233 -0.3178 -0.3686 -0.3058
25899W        W44103   0.356   6.124   3.886  0.3400 -0.0760  0.0043
25900W        W44104  10.443   5.323  15.909 -0.1218  0.2986 -0.1396
25901W        W44105  11.632  14.832   3.516 -0.0930  0.0620 -0.2059
25902W        W44106   6.222  14.906  14.891  0.0106 -0.2075 -0.0722
25903W        W44107   0.526  13.046  16.333 -0.0784 -0.1393 -0.0150
25904W        W44108   8.708  12.236  13.271  0.0856 -0.1475 -0.1619
25905W        W44109   1.994  10.131   0.179 -0.3428  0.1104  0.1426
25906W        W44110   9.830   2.913  14.368  0.1819  0.0920 -0.0994
25907W        W44111  16.702   4.150   0.498 -0.3687  0.0981 -0.2434
25908W        W44112  13.416   6.110  12.909 -0.2048  0.0432  0.1061
25909W        W44113  10.705  14.286  15.431 -0.0461 -0.2817  0.0725
25910W        W44114   7.360   4.111   4.404  0.0568  0.1987 -0.0060
25911W        W44115  16.246   8.842  16.078 -0.0514 -0.0138  0.2160
25912W        W44116   4.712   4.777   3.673 -0.1494  0.1626  0.2874
25913W        W44117  14.977   9.614  12.737 -0.0254  0.0413 -0.1664
25914W        W44118   7.090  15.656   0.615  0.1400  0.2982  0.1205
25915W        W44119   4.766   2.143  15.438  0.0527 -0.0236 -0.1668
25916W        W44120   5.947   9.630  12.719  0.2158  0.0078 -0.1678
25917W        W44121  17.230  15.714   1.227  0.0104 -0.2035  0.0453
25918W        W44122   9.022  13.183  16.498 -0.1362  0.2552 -0.0497
25919W        W44123   5.465  10.513  12.677  0.0212  0.0429 -0.1259
25920W        W44124  13.566   8.427  16.301 -0.3754 -0.1044 -0.3119
25921W        W44125   6.894   4.640  12.851  0.0658  0.1940 -0.1670
25922W        W44126   9.898  17.185  16.508  0.0773  0.0281  0.1294
25923W        W44127   1.066   1.321   5.277  0.0695  0.0779 -0.1246
25924W        W44128  16.802   7.755   4.704 -0.4252 -0.0022  0.0771
25925W        W44129  11.642  10.801  16.615 -0.3790 -0.1976 -0.3716
25926W        W44130   8.730  16.675   4.874  0.0621  0.1296 -0.2130
25927W        W44131   3.934  16.388  12.576 -0.0355  0.1413  0.1053
25928W        W44132  10.637   6.554  14.643  0.0363  0.0119  0.2355
25929W        W44133   2.893  14.638  16.135  0.4052 -0.0807  0.1670
25930W        W44134  14.282   1.680  15.529 -0.1587 -0.1155 -0.0674
25931W        W44135   2.126   0.272   2.111  0.0031 -0.0111  0.0240
25932W        W44136  12.530   4.708  15.442  0.0440 -0.1852 -0.0570
25933W        W44137   5.102   6.994  13.079  0.0789 -0.1296 -0.2545
25934W        W44138  15.764  17.059   4.083  0.0916 -0.3340 -0.2171
25935W        W44139  11.554  10.835   5.287  0.1365 -0.1554  0.3783
25936W        W44140   7.772   9.497  14.576  0.2489 -0.0139  0.2324
25937W        W44141   9.723  15.910   5.651 -0.0198  0.0871 -0.0179
25938W        W44142  13.398   2.040   1.756 -0.1679 -0.2063 -0.1296
25939W        W44143   6.266   7.187  16.808  0.3441  0.2222  0.0249
25940W        W44144   0.430  13.559  16.586  0.3258 -0.0592 -0.0295
25941W        W44145  10.417   7.710  14.121 -0.1320 -0.0898  0.1641
25942W        W44146   1.175  15.549   1.920 -0.0249  0.1697  0.0201
25943W        W44147   6.502   0.876   3.500  0.1177 -0.2225  0.0455
25944W        W44148  13.702   2.977  12.226  0.3949  0.1769 -0.3253
25945W        W44149  16.021   6.770  13.159  0.1223 -0.0677  0.4009
25946W        W44150  12.911   6.123   4.571  0.0605  0.1313  0.1068
25947W        W44151   2.082   8.308   4.493  0.1475 -0.0651 -0.2930
25948W        W44152  16.194  13.881   5.216  0.1135  0.1195 -0.0315
25949W        W44153   0.463   2.151   2.643  0.0699 -0.2237 -0.1726
25950W        W44154  13.619   5.621  12.754 -0.1434 -0.2137 -0.1253
25951W        W44155  16.356  12.431  13.600  0.1280  0.0297 -0.1284
25952W        W44156  17.200  17.013  12.725  0.0035  0.2429  0.1219
25953W        W44157   3.564   7.453  13.303 -0.2991 -0.0405 -0.0107
25954W        W44158   9.216  14.794  16.208 -0.0451  0.1145  0.0177
25955W        W44159   8.084   8.480   4.161 -0.1009 -0.3002  0.2570
25956W        W44160  14.955  16.077  17.401 -0.1100 -0.1238  0.3031
25957W        W44161  11.973   6.835   2.063 -0.0591 -0.0191 -0.1025
25958W        W44162   8.538   7.001   1.201  0.0111 -0.3073  0.1520
25959W        W44163   3.723   7.095   3.317  0.0160 -0.3294 -0.0615
25960W        W44164  13.781  10.191  13.978 -0.2199  0.0220  0.0262
25961W        W44165  13.538  11.552   3.051  0.0505  0.3647 -0.2797
25962W        W44166   5.817   7.424  12.650  0.0119 -0.1336 -0.0259
25963W        W44167   6.439   0.439  14.542  0.2245 -0.3391  0.0425
25964W        W44168  14.142   8.570  12.527  0.1812 -0.2877  0.0483
25965W        W44169   3.929  16.673  13.337  0.0371  0.2468  0.0566
25966W        W44170   7.340   3.675  11.808 -0.4062  0.4087  0.0347
25967W        W44171   7.733   6.084  15.546 -0.1213  0.0132  0.2426
25968W        W44172   2.527  10.940   5.361  0.3364 -0.3198 -0.2552
25969W        W44173   6.881   3.642  11.920 -0.0852  0.1090  0.3181
25970W        W44174   9.422  12.539   2.633  0.1236  0.2643 -0.2379
25971W        W44175  17.055   4.335   0.800  0.1028 -0.0442 -0.0464
25972W        W44176  10.686   3.253  13.954  0.3624  0.2886 -0.1391
25973W        W44177  10.504   7.971  11.997 -0.0226 -0.0513  0.2720
25974W        W44178  14.583   3.578  16.354 -0.2918 -0.2056  0.0255
25975W        W44179   0.730   1.888   2.247  0.1816  0.0347 -0.1969
25976W        W44180   5.725   0.732   0.957  0.0393 -0.0695 -0.0677
25977W        W44181   4.914   0.462  14.666  0.3268  0.1737  0.2150
25978W        W44182  14.627  11.929  16.902  0.0553  0.0791 -0.2491
25979W        W44183   3.448  15.918   4.932 -0.1047  0.0528 -0.1299
25980W        W44184   4.099   0.861  16.790  0.2361 -0.0302 -0.2491
25981W        W44185   2.510  10.134  12.590 -0.0060 -0.0011  0.0907
25982W        W44186   4.937   9.116   4.051 -0.2261 -0.1825  0.1775
25983W        W44187  16.271   5.723   1.894  0.2887  0.0665  0.0578
25984W        W44188   7.401   9.567   3.722  0.1073  0.0208  0.0175
25985W        W44189  14.789   4.338   4.173 -0.0299  0.0195 -0.1336
25986W        W44190   5.697  10.493   3.716 -0.0171  0.0047 -0.2127
25987W        W44191   6.295   8.230  16.167 -0.0200  0.2993  0.1138
25988W        W44192  13.817   5.684  14.432 -0.0592 -0.2506  0.2235
25989W        W44193   6.575  14.714  12.001 -0.0838 -0.0453 -0.1233
25990W        W44194  13.482  16.337   4.550  0.0788  0.3056  0.1650
25991W        W44195   6.141   6.493   3.942  0.1658 -0.2959 -0.0536
25992W        W44196  16.987   2.742   0.152  0.0025  0.0957  0.0489
25993W        W44197  16.854  16.812  11.757  0.2393  0.2986 -0.0224
25994W        W44198   2.348  11.446  15.491 -0.0461  0.0570  0.0188
25995W        W44199  12.922   6.200  12.737 -0.0678 -0.0017 -0.0299
25996W        W44200  11.101   2.507   2.837 -0.1926  0.0421  0.0507
25997W        W44201  13.513   6.698   1.945 -0.0972 -0.0669  0.0099
25998W        W44202  16.054   3.895   1.273  0.1438 -0.2459 -0.0133
25999W        W44203   6.076   1.636  17.440 -0.2062  0.0058  0.0662
26000W        W44204   4.494   9.687   3.386  0.0966  0.3330 -0.0368
26001W        W44205  15.032   5.316   3.956 -0.0434 -0.0618 -0.0649
26002W        W44206  14.435  15.524  16.061 -0.0497 -0.0178  0.1583
26003W        W44207   4.544   7.299  15.514 -0.2591 -0.1683  0.1735
26004W        W44208   4.653   8.262  14.839 -0.3041  0.1857 -0.0016
26005W        W44209   7.628   7.456  14.270  0.1338  0.0889  0.0877
26006W        W44210  16.654   5.269   3.225 -0.0527  0.0547  0.0061
26007W        W44211   8.369   2.539   1.702 -0.0131  0.0255  0.2371
26008W        W44212   0.939   1.890   0.361  0.0986 -0.1201  0.2366
26009W        W44213  12.189   5.628  17.092 -0.1146 -0.1706  0.1197
26010W        W44214   6.447   8.937  13.357  0.3249 -0.2373  0.1296
26011W        W44215  15.105  12.921  15.096 -0.2706  0.1834 -0.6510
26012W        W44216   7.450   7.553   5.236 -0.4423 -0.2393 -0.3015
26013W        W44217  14.657  10.194   2.712  0.1940 -0.0823 -0.0039
26014W        W44218  14.430   5.103  15.377 -0.0174  0.0031  0.1082
26015W        W44219   7.478  13.640   3.148  0.0065  0.0314 -0.3061
26016W        W44220   6.136   5.900   0.026 -0.2591  0.0347 -0.1650
26017W        W44221  13.576   7.727  16.965  0.0731  0.2643  0.1531
26018W        W44222   6.902  13.484   2.404  0.0160 -0.0214  0.0558
26019W        W44223   3.900  14.602  16.947 -0.2330 -0.0118  0.1499
26020W        W44224   7.262  12.232   1.141 -0.0806 -0.1814  0.1870
26021W        W44225   7.425   0.724  16.809 -0.1029 -0.0351 -0.1590
26022W        W44226  12.598   5.654   5.201  0.4676  0.2512 -0.1166
26023W        W44227   4.790   7.854  12.269 -0.1939  0.1285  0.0586
26024W        W44228  15.991  16.518  16.329  0.2012 -0.2213  0.4547
26025W        W44229   5.410   2.584   2.370  0.2687 -0.0948  0.2834
26026W        W44230   4.738  12.434  14.346 -0.0488  0.0400 -0.1433
26027W        W44231   0.841   9.833  14.889 -0.1670  0.1869  0.0035
26028W        W44232   6.506   3.025  14.629 -0.1839  0.2803 -0.1606
26029W        W44233  14.867   6.885  12.101  0.0855 -0.0597 -0.3256
26030W        W44234   5.504  14.128   1.731  0.2005  0.0381  0.1409
26031W        W44235   6.492  15.790  12.391 -0.0924 -0.2366 -0.0371
26032W        W44236   2.192   7.905  16.894  0.2003  0.1354  0.1909
26033W        W44237   9.762  15.143  12.675 -0.0714  0.0703  0.0408
26034W        W44238   8.589   8.237   1.709 -0.1247 -0.2387  0.0824
26035W        W44239   9.642   8.564   5.058 -0.3555 -0.1585  0.0023
26036W        W44240   9.412   2.108  14.618  0.3321 -0.0572  0.1413
26037W        W44241  13.429  14.034   1.624  0.0652  0.1995  0.3101
26038W        W44242  12.528   4.107   2.618  0.2443 -0.1420 -0.0511
26039W        W44243  11.661  14.315   3.099  0.0769 -0.0572 -0.4509
26040W        W44244  16.767  11.043  16.631 -0.2992 -0.3893  0.3481
26041W        W44245  17.256   0.160   3.338  0.3611 -0.0348 -0.0371
26042W        W44246   4.241   9.075  13.580 -0.3600  0.2626 -0.0757
26043W        W44247   2.113   3.903  17.122  0.1949 -0.0601  0.1099
26044W        W44248   4.908   9.678  13.201  0.4458 -0.1050 -0.0325
26045W        W44249   7.851   7.407  15.252 -0.0591 -0.2114 -0.1504
26046W        W44250  10.191   3.888  11.816 -0.0360  0.2382 -0.0974
26047W        W44251  11.936   8.328   2.393  0.2276  0.2110 -0.0438
26048W        W44252   0.676   2.504  15.762  0.1087 -0.1419  0.3144
26049W        W44253  15.034  11.567   1.433  0.0642 -0.1955  0.1660
26050W        W44254  11.059  11.754  14.987 -0.0519 -0.1504  0.1154
26051W        W44255   3.335  12.890   2.723  0.1275 -0.2127 -0.2674
26052W        W44256   4.890   0.283  16.783 -0.1529  0.1290 -0.3601
26053W        W44257   8.138   3.667   2.765  0.1623  0.4086 -0.0861
26054W        W44258   5.309   7.237   0.063  0.0585  0.1459  0.0032
26055W        W44259   3.949  10.886   3.753  0.1997  0.0651  0.3483
26056W        W44260  10.946  12.678   0.247  0.0204 -0.4357  0.1087
26057W        W44261   0.327   9.529   1.577  0.1595  0.1812  0.0674
26058W        W44262  14.769   6.076   0.554 -0.1484 -0.1265  0.0516
26059W        W44263   1.793  12.339   3.733  0.0605 -0.1519  0.3852
26060W        W44264   9.425   7.463  15.181  0.0067 -0.2621  0.1174
26061W        W44265  14.530  11.838  13.733 -0.1895 -0.2938  0.0505
26062W        W44266  15.960   4.076  14.451  0.0722 -0.3081 -0.1308
26063W        W44267   3.255   3.387  15.463  0.2866 -0.1808  0.2929
26064W        W44268   2.274  12.992  12.449 -0.2584 -0.0127  0.2844
26065W        W44269  10.381   8.832  16.996 -0.0689  0.0891  0.2182
26066W        W44270  11.538  15.769  13.687 -0.0900  0.1535 -0.0345
26067W        W44271   0.478  10.627  14.870  0.0506  0.1800  0.1694
26068W        W44272   3.637   9.170   2.980 -0.0310  0.0208 -0.0695
26069W        W44273   8.034   2.282   1.402 -0.1133  0.1429  0.0395
26070W        W44274   9.056  14.511   0.471 -0.0735  0.0550  0.3115
26071W        W44275  13.394   3.557   0.444  0.1468  0.2621 -0.0279
26072W        W44276   8.941  10.034  16.176  0.0635 -0.0346  0.2290
26073W        W44277   1.918  14.172  13.066  0.0428  0.2462  0.0569
26074W        W44278   9.407   8.356   0.727 -0.1058  0.0452 -0.2039
26075W        W44279  11.285   0.152  16.748 -0.0124 -0.3047 -0.1265
26076W        W44280   3.904   5.621   4.005 -0.1491  0.3319 -0.3003
26077W        W44281  10.177   0.562  12.048  0.0017 -0.1899  0.1040
26078W        W44282  16.784  15.473   4.369 -0.0063 -0.0383  0.1522
26079W        W44283   0.432   9.972   3.659 -0.0945 -0.1311 -0.2157
26080W        W44284  15.792  16.220   1.906  0.0784 -0.0577 -0.1193
26081W        W44285  11.595  13.065   2.468  0.0556 -0.1024  0.0775
26082W        W44286   4.141  17.059   4.157 -0.0470  0.1112  0.0521
26083W        W44287   2.980   5.239  12.871 -0.1554 -0.2604  0.2221
26084W        W44288   8.311  17.039   5.007 -0.0739 -0.1766 -0.3358
26085W        W44289  13.027   6.840   2.071 -0.0313 -0.3671 -0.0940
26086W        W44290   9.916   7.817  11.242 -0.0812  0.3657 -0.3560
26087W        W44291   6.187   4.726   5.072  0.1089  0.0569 -0.0970
26088W        W44292   1.507   2.644   2.708  0.0607  0.2273 -0.0365
26089W        W44293   1.372   9.567  15.856 -0.2315 -0.1504 -0.1499
26090W        W44294  11.048   2.363  12.768  0.3396 -0.0413 -0.1471
26091W        W44295   9.213  17.071   0.419 -0.5184  0.0680  0.1309
26092W        W44296  11.807  15.179  12.806 -0.3284 -0.3346  0.3472
26093W        W44297   1.550  15.061  14.424 -0.2068 -0.0162  0.0156
26094W        W44298  11.230  15.862  16.467 -0.1762 -0.1821 -0.0063
26095W        W44299   9.012  16.317   1.827 -0.1699  0.1735 -0.1123
26096W        W44300   1.177   2.067  15.768 -0.0848  0.1556 -0.1352
26097W        W44301   5.697   8.682  15.650  0.2793  0.1291 -0.1586
26098W        W44302   0.809   6.367   1.504 -0.0088  0.2841 -0.2356
26099W        W44303  16.721   3.682   3.846 -0.1358  0.4639  0.4998
26100W        W44304   9.015  15.843   0.641 -0.2406 -0.2358 -0.2577
26101W        W44305  12.195   4.211   3.587 -0.2430  0.0548  0.1219
26102W        W44306   4.371   7.068  11.853  0.0800  0.1571 -0.3249
26103W        W44307   8.892   4.838   1.457  0.1724 -0.1420 -0.3183
26104W        W44308   4.834  13.410  15.865 -0.1249 -0.2794 -0.1587
26105W        W44309   0.203  11.838  15.425 -0.0650  0.0800 -0.0122
26106W        W44310   1.523   1.200   5.266 -0.1626  0.2077 -0.2254
26107W        W44311   9.585  10.213   3.542  0.1970  0.0478 -0.0566
26108W        W44312   4.813   7.399  16.485  0.3558  0.0973 -0.4516
26109W        W44313  14.514  15.013  16.469 -0.1430  0.2118 -0.2937
26110W        W44314   6.360  13.001  17.449  0.0659 -0.0504 -0.0336
26111W        W44315   5.844  11.875  15.366 -0.2363 -0.0782  0.0928
26112W        W44316  15.458  11.731   2.633  0.2676 -0.1580 -0.1019
26113W        W44317   8.612  11.652  13.433 -0.2291  0.2095 -0.2291
26114W        W44318  14.932   3.174  15.405 -0.1477 -0.2149 -0.0685
26115W        W44319   0.548  14.057   0.432  0.3663  0.0467  0.0884
26116W        W44320  17.047  16.285  13.305  0.1048 -0.0788  0.0725
26117W        W44321  15.574   0.831  15.013  0.0046 -0.0774  0.1248
26118W        W44322  15.706  12.419   0.248 -0.0375  0.0040  0.2331
26119W        W44323   3.171   9.232   1.502 -0.2925  0.0126 -0.0080
26120W        W44324   4.847   7.022   2.316 -0.0448 -0.0563  0.1410
26121W        W44325   8.073  16.710   1.931 -0.0164  0.1178  0.0149
26122W        W44326   8.417   1.394   1.072  0.0539 -0.1133  0.1274
26123W        W44327  10.008  12.663   4.252 -0.0291  0.1407  0.1984
26124W        W44328   6.202  13.955   0.050  0.0349  0.0595 -0.0230
26125W        W44329   7.936  16.650   1.351  0.0241  0.0676 -0.0334
26126W        W44330  15.246  13.974   5.396  0.0573  0.1042  0.3191
26127W        W44331  11.303   4.134   4.438 -0.3258  0.1514 -0.4597
26128W        W44332  14.485  10.936  13.775  0.1773  0.1563 -0.1481
26129W        W44333   4.965   4.577   1.423  0.0531 -0.2027 -0.1728
26130W        W44334  10.580  10.803  13.287  0.0719  0.3574  0.0300
26131W        W44335   8.911  11.373  16.811 -0.0770 -0.0683  0.1220
26132W        W44336   6.549   6.541   2.712 -0.1787  0.1412  0.1004
26133W        W44337   9.485   8.160   0.223  0.1904 -0.0456  0.3220
26134W        W44338  14.114   8.902   0.156 -0.1760 -0.0603 -0.1368
26135W        W44339   8.501  12.897   2.621  0.1558  0.0576 -0.0046
26136W        W44340   0.302   1.508  14.593  0.0285  0.0082 -0.1992
26137W        W44341  12.306   3.895  14.468 -0.3231  0.3054 -0.0458
26138W        W44342   9.248  15.847  13.080 -0.0023 -0.0306 -0.0597
26139W        W44343   4.119   8.143  16.465  0.0931  0.1711  0.0287
26140W        W44344   1.081   2.607   3.370  0.3927  0.1022 -0.1267
26141W        W44345   4.321   4.570   5.031 -0.1278  0.1673  0.1175
26142W        W44346   7.314  15.661  11.586 -0.3921  0.1799  0.4505
26143W        W44347  15.935  12.794  14.184  0.1226 -0.1627  0.0130
26144W        W44348  10.118  11.821  15.456  0.0237  0.0306  0.2371
26145W        W44349  16.694  12.629  13.887  0.0787 -0.0566  0.0597
26146W        W44350  13.546  14.949   1.887 -0.2058 -0.2380  0.4173
26147W        W44351   9.653   8.525   1.997  0.0396 -0.4145  0.1083
26148W        W44352   2.282   4.342   2.571  0.0844  0.1719 -0.1513
26149W        W44353  15.499   6.279   6.001  0.1121 -0.0984 -0.0702
26150W        W44354   5.471  11.897  14.153 -0.1293  0.2328  0.0108
26151W        W44355  13.674   8.310  15.503 -0.0814 -0.0639 -0.0230
26152W        W44356  15.973  14.726   2.768  0.1718  0.2017  0.1771
26153W        W44357   0.364  15.654   0.979 -0.0691 -0.2668 -0.1505
26154W        W44358  12.118  16.514   2.745  0.2404  0.3419  0.0181
26155W        W44359   3.470  11.084   3.892 -0.1356 -0.1577 -0.0445
26156W        W44360  15.083  10.821   3.762 -0.1323  0.3832 -0.4967
26157W        W44361   0.843  13.136  13.579 -0.2181 -0.0682 -0.0683
26158W        W44362   5.271   8.082  17.088 -0.0856 -0.0520 -0.2166
26159W        W44363  10.296   9.600  15.617  0.2146 -0.0109  0.0535
26160W        W44364   9.882   8.448   0.029  0.1005 -0.0288  0.3862
26161W        W44365  17.220   0.795   0.409  0.0884 -0.0307 -0.0685
26162W        W44366  17.107  10.625   3.328 -0.0951  0.1684 -0.3273
26163W        W44367   2.281  16.010   1.502 -0.0086 -0.1356 -0.1620
26164W        W44368   9.273   2.266  13.000 -0.2683 -0.0854  0.1573
26165W        W44369  13.939   8.202  12.825  0.3453  0.1814 -0.0300
26166W        W44370   4.870  13.356  15.081  0.1148 -0.1373  0.0094
26167W        W44371  16.470  16.064   2.298  0.1939 -0.0857  0.1313
26168W        W44372  14.915   0.122   5.479  0.0052  0.2749  0.1529
26169W        W44373   3.188   1.949   1.764 -0.0705 -0.0257  0.2658
26170W        W44374   6.610  17.022  12.003  0.3252  0.2396  0.2167
26171W        W44375   3.601  11.793   4.267 -0.0014  0.1153  0.0174
26172W        W44376   7.029   8.623  13.361 -0.0242  0.5571 -0.1142
26173W        W44377   3.783   5.568  14.938  0.3398 -0.3867  0.1839
26174W        W44378   9.764   3.395  15.050  0.1363  0.0799 -0.1454
26175W        W44379  11.843  12.450   3.652 -0.1045 -0.1735  0.4079
26176W        W44380  13.308   9.415  16.020  0.0431  0.0614 -0.3492
26177W        W44381   1.986   3.607   0.652  0.1103  0.1923  0.2458
26178W        W44382  16.947   9.328   4.454 -0.0604 -0.0051 -0.0749
26179W        W44383  16.760   0.847   5.373 -0.0285 -0.1685  0.0727
26180W        W44384  14.774  12.381  12.787  0.4075  0.2186  0.0400
26181W        W44385   4.277   9.054  14.285  0.1454  0.1183 -0.3121
26182W        W44386  10.066  12.784  16.478  0.4378 -0.3543  0.0604
26183W        W44387   4.647  13.242  13.375  0.0173  0.1601  0.1188
26184W        W44388  12.154   1.229  15.233  0.0772  0.3383  0.2715
26185W        W44389   3.217  14.137   0.394  0.0458 -0.2142 -0.0365
26186W        W44390   7.898   7.193   4.167  0.0020 -0.0632 -0.0687
26187W        W44391   5.544   4.307  12.357 -0.1413  0.0419 -0.0309
26188W        W44392   6.559   8.174   3.496 -0.1638  0.0769 -0.0418
26189W        W44393  16.877   4.649   4.704 -0.0540  0.1104 -0.0078
26190W        W44394  10.153  14.833  12.772 -0.2508 -0.2355  0.0704
26191W        W44395   3.286  13.986  14.356  0.2464 -0.0109 -0.3614
26192W        W44396   4.367   9.623  13.070 -0.1031 -0.1034  0.0617
26193W        W44397   3.300   6.203   3.475  0.1387 -0.0144  0.0089
26194W        W44398   0.059   0.966  12.454 -0.1251 -0.1209  0.3634
26195W        W44399   4.600  11.137   0.793 -0.0597  0.1308  0.0774
26196W        W44400   0.874  14.886  16.347  0.3070  0.2734 -0.2516
26197W        W44401   8.079   9.572  14.959 -0.1049 -0.1676  0.2295
26198W        W44402   3.293  11.262  15.603  0.0194 -0.0088  0.1476
26199W        W44403  13.223   7.728  16.072 -0.0864 -0.2456 -0.0805
26200W        W44404   6.224   8.176   3.008 -0.2539 -0.1271  0.0994
26201W        W44405  15.250   0.514  13.798 -0.3312 -0.0945 -0.0228
26202W        W44406  10.640   8.595  16.096 -0.1871  0.3219 -0.0699
26203W        W44407   7.843   9.836  15.348 -0.0442  0.2759 -0.0780
26204W        W44408  11.067   2.088  15.975 -0.1339  0.0304  0.1091
26205W        W44409  11.481   4.467  14.519 -0.0322 -0.0529 -0.0599
26206W        W44410  15.117  11.222   1.802 -0.1208  0.2673 -0.0959
26207W        W44411   1.321  13.833   2.405 -0.1293 -0.1310  0.1126
26208W        W44412  14.656  15.721   3.144 -0.0298 -0.1101  0.0380
26209W        W44413   0.251   3.720  16.554 -0.0724  0.2555 -0.0802
26210W        W44414   7.132  11.268  13.010 -0.0434  0.1654 -0.1224
26211W        W44415   4.418  10.273   3.347 -0.1869  0.1355 -0.0551
26212W        W44416   9.209   7.439  15.722 -0.0850  0.1398  0.2188
26213W        W44417   8.064  14.363   4.097  0.1887  0.0033 -0.0589
26214W        W44418  10.532   1.935  15.934 -0.2352  0.2786  0.0754
26215W        W44419  10.624   3.297   4.388 -0.1138 -0.0709  0.3082
26216W        W44420   1.035  14.821  17.277 -0.2717 -0.0169 -0.0856
26217W        W44421   4.472   8.655  12.312  0.1084 -0.2749  0.0240
26218W        W44422   0.823   2.315   0.629 -0.3827 -0.0172 -0.1621
26219W        W44423  11.532  11.382   2.671 -0.1062 -0.2044  0.1541
26220W        W44424   9.789  12.281   0.218 -0.2962  0.1033 -0.0560
26221W        W44425  12.187   1.192   1.883 -0.1632  0.0035 -0.0718
26222W        W44426   2.815   5.061  14.372 -0.0835  0.0792  0.0581
26223W        W44427   9.990  14.357   2.559  0.2911 -0.1423 -0.3029
26224W        W44428   5.610   8.985  16.120 -0.0582  0.2714 -0.4227
26225W        W44429   1.146  17.260   1.432 -0.0150 -0.1082  0.0069
26226W        W44430  13.126   3.594   1.111 -0.1738 -0.1805 -0.0925
26227W        W44431   6.345  11.103  15.300 -0.1991 -0.0423  0.1646
26228W        W44432   5.355   4.218   4.728  0.2928 -0.0792  0.1831
26229W        W44433  15.661   4.169  13.684  0.0149  0.0861  0.0047
26230W        W44434  16.831  16.574   1.675  0.0682 -0.0734 -0.0938
26231W        W44435  13.794  10.284   0.426  0.0550  0.0086  0.2181
26232W        W44436  13.460   3.452   1.542 -0.1617  0.3196  0.0792
26233W        W44437   5.739   2.703   3.528  0.3060  0.0454  0.2885
26234W        W44438   1.849   6.782  15.444  0.0166  0.2961 -0.3608
26235W        W44439  14.658   9.870  17.134 -0.0646 -0.0396  0.1873
26236W        W44440  13.313   9.886   4.842  0.1336 -0.1682 -0.0122
26237W        W44441  12.383   9.798   0.329 -0.0598  0.1297 -0.0032
26238W        W44442   2.810  16.210  13.880 -0.0424 -0.1025 -0.0046
26239W        W44443  16.224   1.963   5.413 -0.2782  0.1642  0.2769
26240W        W44444  11.318   0.021  14.307  0.1000  0.0477 -0.0077
26241W        W44445   9.076   0.021  14.356 -0.1752 -0.0467  0.1333
26242W        W44446   7.073   8.296  17.380  0.1117  0.2227  0.0620
26243W        W44447   3.145   8.095  15.085  0.3082  0.3291 -0.2218
26244W        W44448  12.232   9.000  15.222  0.1205 -0.1707  0.2196
26245W        W44449  10.846   1.844  14.925 -0.0596  0.1820 -0.0154
26246W        W44450   8.386  10.369   0.967 -0.1233 -0.1591  0.0800
26247W        W44451  13.400   6.258   3.252  0.1893  0.0518 -0.0867
26248W        W44452   0.617  14.798   2.070 -0.2095  0.2414 -0.2065
26249W        W44453  14.386   6.153   2.861 -0.2698 -0.1567 -0.1271
26250W        W44454   4.978   7.228   4.684  0.1422 -0.2817  0.0182
26251W        W44455  13.002   6.163  12.184 -0.2357  0.2770 -0.0430
26252W        W44456   9.833   1.623   0.896  0.2446  0.2497  0.0649
26253W        W44457   1.843  12.571   1.160  0.3767  0.0109  0.0709
26254W        W44458  10.119  16.776  13.626  0.1871 -0.0961 -0.1879
26255W        W44459   4.360   3.659   2.372  0.0685  0.0488 -0.0170
26256W        W44460   0.180  15.793   3.965 -0.1396  0.1143  0.1643
26257W        W44461  13.305  12.417  16.247  0.1621 -0.4126 -0.2019
26258W        W44462  11.971   4.009   3.024 -0.0933 -0.1516 -0.0382
26259W        W44463  12.197   1.776  12.732 -0.2162 -0.0229 -0.0294
26260W        W44464   3.152   8.399  12.414 -0.1181 -0.0148  0.0934
26261W        W44465   2.780  14.027   3.075  0.1135  0.0288  0.3426
26262W        W44466   3.709   9.838  16.904 -0.1594  0.0946 -0.1239
26263W        W44467  14.966   9.892   2.514  0.1697  0.0702  0.0972
26264W        W44468  14.357   2.538   2.446 -0.2681 -0.0333 -0.2003
26265W        W44469   0.073  17.159   4.963  0.0566 -0.1142 -0.0649
26266W        W44470  12.987   2.499  11.882  0.0499  0.1850  0.1956
26267W        W44471  16.106  14.484   2.014 -0.0031  0.1101 -0.2052
26268W        W44472   4.286   8.682   1.168 -0.3886  0.4855 -0.0849
26269W        W44473   0.049   6.909  15.932  0.1864  0.0437  0.1280
26270W        W44474   2.430  17.072   2.867  0.0519  0.4652 -0.1848
26271W        W44475  14.577  10.996  17.002  0.1844  0.1687  0.1382
26272W        W44476  17.192   4.123   1.573  0.1161  0.0848  0.0915
26273W        W44477   4.450   5.097  12.155  0.0452 -0.0939 -0.3425
26274W        W44478  16.547   8.078   3.479 -0.1228 -0.2244 -0.1725
26275W        W44479   1.168   4.878   2.402  0.1467  0.0710  0.1425
26276W        W44480   4.047  14.464  17.473  0.1460  0.1744  0.0646
26277W        W44481   9.111   5.839  16.067  0.0132 -0.0504 -0.3290
26278W        W44482  14.777   5.723   3.605 -0.2311 -0.1318  0.1233
26279W        W44483   8.605   2.313   1.341  0.0747 -0.2433 -0.0148
26280W        W44484  11.953  11.263   0.743  0.1664  0.3301  0.0061
26281W        W44485   7.570   9.775   2.948  0.1567  0.1045 -0.1285
26282W        W44486   2.735   7.399   1.838 -0.0131 -0.0244 -0.0112
26283W        W44487   1.892  13.634  13.187 -0.1712 -0.0448 -0.1490
26284W        W44488   2.836   4.615   2.568  0.1292  0.2069 -0.2692
26285W        W44489  11.663   8.936   2.879 -0.1288 -0.2156  0.0474
26286W        W44490  10.871  10.747  12.828 -0.0847  0.1304 -0.0211
26287W        W44491  12.320  12.705   4.698 -0.0084  0.0878 -0.1697
26288W        W44492   2.403  13.615  14.877  0.0761  0.2151  0.1643
26289W        W44493   1.548   5.725   5.095 -0.2890  0.0794 -0.0122
26290W        W44494   6.793   8.963  15.567  0.2198 -0.1074 -0.0120
26291W        W44495   3.294  12.244   4.500 -0.0968  0.1612  0.1973
26292W        W44496  15.958   7.145  16.525 -0.2329 -0.1364  0.0155
26293W        W44497   0.410  11.825   5.322  0.0815  0.0519  0.1731
26294W        W44498   3.565  14.272  14.086  0.0346 -0.1057 -0.1112
26295W        W44499  13.523   9.842  13.044  0.0359  0.1041  0.0169
26296W        W44500  12.049   4.204  11.713  0.2864  0.1915  0.0814
26297W        W44501  16.026   0.067  16.750  0.0734 -0.1663  0.1420
26298W        W44502   5.560   6.238   2.479 -0.1806  0.1721 -0.1588
26299W        W44503   1.618   4.279  15.745 -0.0796  0.0145  0.0155
26300W        W44504   0.925   3.497  14.777 -0.1649 -0.2282 -0.0089
26301W        W44505   8.745  10.483   0.569 -0.2853  0.0875 -0.2492
26302W        W44506   5.731  11.167   2.918  0.1607  0.0090 -0.3185
26303W        W44507   6.712   5.046  15.152  0.0669 -0.1020  0.4436
26304W        W44508   5.717  12.185   5.408  0.1217 -0.2068  0.0191
26305W        W44509   7.346   3.390  13.071  0.0126  0.0426 -0.1245
26306W        W44510  12.939   7.985  16.973 -0.1009  0.0250  0.2530
26307W        W44511  16.936   2.264   3.399  0.1346  0.1753 -0.3949
26308W        W44512  12.329  11.303   5.066 -0.1268  0.1350  0.1378
26309W        W44513   5.257   5.790  15.677  0.0675  0.4335  0.1670
26310W        W44514  11.505  13.333   0.367  0.2238 -0.0214 -0.0155
26311W        W44515  13.789   2.989   6.073 -0.2571 -0.1402  0.2854
26312W        W44516  16.674  11.609  17.290  0.0590  0.0043 -0.1124
26313W        W44517  12.393   3.029  12.314  0.1223  0.0197  0.0501
26314W        W44518   6.143  12.635   4.770 -0.1887 -0.2509 -0.0407
26315W        W44519   2.148   5.260   3.949  0.0010  0.0597  0.0565
26316W        W44520  14.159   5.220   2.411  0.0982  0.0409 -0.2249
26317W        W44521  13.775   8.770   3.619 -0.0631 -0.1267  0.2387
26318W        W44522  15.898  15.162  17.049 -0.2366 -0.0214  0.0848
26319W        W44523   2.310   0.380  17.302 -0.0389  0.0363  0.0438
26320W        W44524   4.327  10.733   0.933 -0.2504  0.0500  0.0257
26321W        W44525  12.655  16.996   0.274  0.0578  0.1936 -0.1086
26322W        W44526   4.697  14.844  14.249  0.0376  0.1862 -0.1982
26323W        W44527   6.390  13.312  16.454 -0.1258 -0.2527  0.0417
26324W        W44528  10.359  16.388   2.037  0.0126 -0.1307 -0.0720
26325W        W44529   8.172   1.699   2.915  0.0745 -0.4907  0.0662
26326W        W44530  11.904   5.917  16.058  0.5475 -0.1668  0.0013
26327W        W44531   4.942   6.517  16.529  0.1042  0.0839  0.3061
26328W        W44532   6.975  15.572  11.967 -0.3380 -0.1397  0.2450
26329W        W44533  10.163   4.586   5.368 -0.0430 -0.1313  0.1295
26330W        W44534  13.303  17.038   2.381 -0.2893  0.3151  0.0860
26331W        W44535  16.189  16.464   5.144  0.2935  0.0571 -0.0977
26332W        W44536   2.988   6.034  17.126 -0.1939  0.0126 -0.1540
26333W        W44537  15.727  11.963   0.122 -0.0016  0.1951  0.0047
26334W        W44538   6.153  12.321   5.279 -0.1283  0.1747 -0.1370
26335W        W44539  15.688  17.163  14.459  0.1382  0.0437  0.1830
26336W        W44540   7.783  15.852   4.450 -0.0004 -0.2076  0.0340
26337W        W44541   4.256   2.847   0.303 -0.3567  0.0057  0.0206
26338W        W44542   9.468   7.525   3.496  0.1926  0.0868  0.1409
26339W        W44543   2.835  10.264  16.086  0.1599  0.1452 -0.0988
26340W        W44544  11.394   2.378   2.214 -0.3125  0.0283  0.4175
26341W        W44545  13.311  16.997  14.228  0.2572 -0.2093  0.1660
26342W        W44546  11.657   6.853  15.991 -0.0991 -0.0288 -0.0462
26343W        W44547  14.807   6.908   4.535 -0.4010  0.1026 -0.2508
26344W        W44548   8.260   8.789  16.571 -0.1807  0.0668  0.0233
26345W        W44549   6.126   3.594   3.691 -0.1263 -0.2971  0.0726
26346W        W44550   6.025   6.963   4.760  0.0793 -0.0383  0.0579
26347W        W44551   4.522  11.540  15.409 -0.0771  0.0418 -0.0626
26348W        W44552   2.682  13.390  15.968  0.0772 -0.0766 -0.0377
26349W        W44553  17.154  16.363   1.942 -0.1203  0.0818 -0.1963
26350W        W44554  13.715   7.695  13.652  0.1787  0.0122  0.0699
26351W        W44555   2.852   0.552  12.435  0.1339 -0.3219 -0.0854
26352W        W44556   1.637  10.081   4.134  0.3121 -0.1095  0.0253
26353W        W44557  10.964   8.112  13.463  0.3298  0.1910 -0.3834
26354W        W44558   2.493   4.673  14.538 -0.1616 -0.0925 -0.0457
26355W        W44559  13.748   4.947   4.814 -0.2861  0.0704 -0.0336
26356W        W44560   9.138   8.000  17.198 -0.4139  0.0595  0.0353
26357W        W44561   8.733  14.086   0.258 -0.0009 -0.4032 -0.2124
26358W        W44562   8.487  13.058  15.818 -0.2087  0.3977  0.1476
26359W        W44563   3.142   4.111  15.678  0.1027 -0.0539  0.2385
26360W        W44564  11.153  15.646  16.027 -0.0823  0.0773  0.1065
26361W        W44565  11.414   4.677   2.689 -0.1121  0.3791 -0.1155
26362W        W44566   6.257  12.042   4.396  0.0355 -0.0492 -0.1667
26363W        W44567  13.643  17.214   2.711 -0.1556 -0.0120 -0.0480
26364W        W44568  16.063  15.080  15.334  0.0300  0.1277 -0.0967
26365W        W44569  10.770  17.190   1.741  0.2754 -0.0638  0.0342
26366W        W44570  16.160  10.873  16.184  0.1619 -0.1604 -0.0732
26367W        W44571  14.330   5.532   3.615 -0.0414 -0.1804  0.0697
26368W        W44572   5.311  13.952  13.012 -0.0543  0.2647  0.0786
26369W        W44573  13.756  12.028  15.487  0.2226 -0.1991  0.0178
26370W        W44574   3.395  16.666  12.693 -0.4464 -0.0502  0.2082
26371W        W44575   8.185   1.120  15.431 -0.2795  0.0309  0.0806
26372W        W44576  16.161  13.041   2.643  0.2424  0.2021 -0.1957
26373W        W44577  16.783   5.532  15.277  0.0414 -0.1781  0.1251
26374W        W44578   0.686   8.590   4.249 -0.0962  0.1464 -0.0222
26375W        W44579  13.687   9.067   1.950 -0.0501 -0.1661 -0.0507
26376W        W44580   5.426  13.432   3.644  0.2311 -0.0070  0.1649
26377W        W44581  10.838   2.846  16.379 -0.0662  0.0172  0.1337
26378W        W44582  12.235  11.183  12.844  0.1842  0.1438 -0.3262
26379W        W44583  11.296   7.656   1.325 -0.2620 -0.0280  0.0432
26380W        W44584   3.126  15.200  15.571 -0.1250 -0.1726  0.0498
26381W        W44585   0.956  14.999   2.467 -0.2699 -0.0578 -0.2264
26382W        W44586  12.671  13.752   3.097  0.3762  0.1305 -0.1256
26383W        W44587   5.818  14.665   0.817  0.0896 -0.2845  0.1712
26384W        W44588   1.379   4.354  14.806  0.1184  0.1584  0.1136
26385W        W44589   4.111   3.507  16.333  0.3400  0.3408  0.2400
26386W        W44590  17.179  15.797  16.483  0.3068  0.1208  0.0302
26387W        W44591   4.813  14.975  17.436  0.1172 -0.0140  0.1471
26388W        W44592   6.953   2.830   4.889 -0.0883  0.0930  0.0651
26389W        W44593   2.585   2.400   0.676 -0.3943 -0.0574  0.0317
26390W        W44594  12.859   8.948  13.171  0.1181 -0.1105 -0.0306
26391W        W44595   0.275  15.709  16.198  0.1890 -0.2623 -0.2542
26392W        W44596   1.630  11.096   2.683  0.2215 -0.1168 -0.0711
26393W        W44597   2.634   7.908   1.794 -0.2728 -0.0294 -0.1571
26394W        W44598   3.509   1.659   4.257  0.0803 -0.1157  0.1415
26395W        W44599   2.698  10.771   0.658  0.1334 -0.1223 -0.0285
26396W        W44600   0.257  11.802   6.139  0.0933  0.0248  0.1385
26397W        W44601   5.646  12.355   0.145 -0.3946  0.0577  0.1170
26398W        W44602   5.799   7.714  15.174  0.4036  0.0520  0.1642
26399W        W44603   8.895   1.911   0.141  0.0290 -0.2166 -0.1179
26400W        W44604   1.616   4.755   2.450  0.2750  0.1749  0.0460
26401W        W44605   7.509   1.584   1.547 -0.1120 -0.1312 -0.0888
26402W        W44606  14.965  14.298   2.979 -0.0936 -0.1314  0.3113
26403W        W44607   5.091  12.513  12.940  0.1260  0.1534  0.1116
26404W        W44608   1.978  14.323   1.379 -0.1298 -0.0341 -0.2106
26405W        W44609  15.973  14.501   5.015  0.2137 -0.2125 -0.0522
26406W        W44610   5.516   2.019   0.544  0.2260 -0.0396  0.1207
26407W        W44611   7.257  15.950   1.317  0.1169  0.0936 -0.1226
26408W        W44612  17.005  12.010  15.306  0.1596  0.0639 -0.1384
26409W        W44613   1.762   5.243  14.292  0.2177  0.3140  0.1821
26410W        W44614  17.188  13.466   1.109 -0.1274  0.0069  0.0392
26411W        W44615   3.362   0.416  12.698 -0.0710 -0.0064  0.0670
26412W        W44616   5.935   8.237   5.315  0.2902  0.4397 -0.0039
26413W        W44617   3.237   8.564   5.301  0.1228 -0.3891  0.0207
26414W        W44618   8.620   5.851   0.685  0.0983  0.4509  0.1705
26415W        W44619  15.683   0.669  13.516  0.1951 -0.0446  0.1392
26416W        W44620   7.149   2.183   3.682  0.0420  0.2479  0.1204
26417W        W44621  10.529  10.779   4.454 -0.1358  0.2718  0.0465
26418W        W44622   3.348   9.066   5.207 -0.1453 -0.0980  0.1111
26419W        W44623  15.275   2.327   2.068 -0.0253  0.1709 -0.2140
26420W        W44624   5.955   0.277  13.180 -0.1829  0.3341 -0.0686
26421W        W44625   8.298   5.849   0.282  0.0760 -0.1022  0.2699
26422W        W44626   4.420  12.702   2.833 -0.3148 -0.0214 -0.0954
26423W        W44627   9.328  12.505   2.136 -0.0990  0.3313  0.1000
26424W        W44628  15.162   2.849  15.687 -0.3639 -0.3208  0.1340
26425W        W44629   5.614   6.505  12.720  0.1532 -0.1120  0.0038
26426W        W44630   7.237   3.723   0.336  0.1213 -0.1352  0.0249
26427W        W44631   3.752   4.772  14.490 -0.0575 -0.0754  0.1015
26428W        W44632   7.674   3.136   1.916  0.4409 -0.0972 -0.1853
26429W        W44633   7.288   0.607   2.957 -0.2466 -0.1410  0.0409
26430W        W44634   9.171  17.266   1.435  0.0670 -0.0281 -0.2516
26431W        W44635   0.847   2.967  12.713 -0.1651  0.0395  0.0473
26432W        W44636   4.723  12.652   5.189 -0.1768 -0.3140 -0.2178
26433W        W44637  14.818  10.138  16.047 -0.0260 -0.0274 -0.0623
26434W        W44638  11.393   6.894   3.887 -0.2289 -0.0504  0.1502
26435W        W44639   7.381  12.875  15.575 -0.2159 -0.0235 -0.2158
26436W        W44640  15.632   9.003   1.117  0.0510 -0.1525  0.0481
26437W        W44641  14.643   1.861  13.569  0.1678 -0.1521 -0.0026
26438W        W44642   9.242  17.269   5.173 -0.3561  0.1960  0.0197
26439W        W44643  12.036   1.676  15.037  0.1029  0.0113 -0.0268
26440W        W44644   4.015  10.601  14.971  0.0165 -0.0343 -0.0079
26441W        W44645  16.358  14.889   5.128  0.1113  0.1315 -0.2584
26442W        W44646  11.836  13.215  17.452  0.0700 -0.2916 -0.0818
26443W        W44647  16.308  12.963   3.933 -0.2795 -0.0509 -0.0476
26444W        W44648  14.200  16.846   1.559  0.1650 -0.0470  0.1580
26445W        W44649  12.037  14.597   4.718  0.1926  0.0983  0.0613
26446W        W44650  12.773  15.329  15.372 -0.0292  0.0725 -0.1642
26447W        W44651  11.499  17.218   1.260 -0.1978  0.0026  0.1984
26448W        W44652  11.799  11.316   5.146  0.1369 -0.1441 -0.1134
26449W        W44653  16.749   8.999  15.736  0.2592 -0.0121 -0.0866
26450W        W44654   1.314  10.013  14.459  0.0875 -0.0274 -0.0798
26451W        W44655  14.674  11.420  12.850  0.1426  0.1785 -0.0503
26452W        W44656   6.019  12.007  12.826  0.2487  0.2718  0.0340
26453W        W44657   8.322  13.726  17.039 -0.0093  0.1013  0.0531
26454W        W44658   4.961  15.827   3.067 -0.1416 -0.0616  0.3408
26455W        W44659  10.265   6.674  14.039  0.1933 -0.0021 -0.0547
26456W        W44660   1.404   5.691   0.176 -0.1912 -0.2414  0.0176
26457W        W44661   2.778  11.727   4.949 -0.2776  0.1110  0.0792
26458W        W44662   4.416   4.602  16.950 -0.0346  0.0743 -0.1235
26459W        W44663   2.536   9.785  14.751  0.1495 -0.2765  0.1937
26460W        W44664   3.653   5.608   1.230 -0.0771  0.2065 -0.3678
26461W        W44665   5.353  14.013  16.762 -0.0744  0.0634 -0.0157
26462W        W44666   1.572  16.574   0.508  0.1810 -0.0272 -0.0639
26463W        W44667   6.365  12.197   2.599 -0.1884 -0.2837 -0.0112
26464W        W44668   3.004  15.738  11.916 -0.0336  0.3535  0.1508
26465W        W44669  13.725  14.855   5.003  0.2317 -0.1204 -0.1267
26466W        W44670   4.481   6.542  15.555  0.1638 -0.1674  0.1738
26467W        W44671   8.933  15.550   4.971  0.1619 -0.2573 -0.1376
26468W        W44672  10.571  13.902   5.287 -0.1671 -0.1442  0.2940
26469W        W44673   7.634   8.557   1.755  0.2730 -0.0252  0.0918
26470W        W44674   5.239   2.043  15.212  0.0258  0.0564  0.0202
26471W        W44675   7.068  10.870   5.315  0.3111 -0.0321  0.0122
26472W        W44676  16.240   1.461  13.889 -0.1243 -0.0864  0.2898
26473W        W44677  16.763   4.447   2.282  0.0413 -0.1910 -0.0946
26474W        W44678   1.402   3.667  17.162  0.0891  0.0857  0.1565
26475W        W44679   0.598  16.234   3.601  0.1078  0.0977 -0.2323
26476W        W44680  10.181  10.433   4.671 -0.2332 -0.0204 -0.0907
26477W        W44681  15.511   2.661   3.586 -0.0341 -0.0200 -0.0522
26478W        W44682   6.926   8.769   4.255 -0.0661 -0.2866 -0.1010
26479W        W44683  14.706  14.849  15.411 -0.1880 -0.1838  0.0830
26480W        W44684  15.129  11.666  17.113 -0.1403 -0.1670 -0.1930
26481W        W44685  15.426  14.113  14.525  0.3451  0.0099 -0.0409
26482W        W44686  14.243  15.816  17.498  0.0351 -0.0880  0.0503
26483W        W44687  13.801   5.486  16.447 -0.1045  0.0274  0.0711
26484W        W44688   4.903  14.780   1.093 -0.4566 -0.2362 -0.1909
26485W        W44689  17.148   4.598   1.314 -0.1086 -0.2292 -0.0827
26486W        W44690   9.780   2.423   3.839 -0.0356  0.0384 -0.3190
26487W        W44691  13.042   3.156  17.151  0.2642  0.5155 -0.0176
26488W        W44692  10.035  11.163   1.784  0.3775 -0.0813  0.2543
26489W        W44693   0.792  10.880   5.550 -0.1332  0.1912 -0.4469
26490W        W44694  12.992   9.243  14.605  0.3305  0.0870  0.1436
26491W        W44695   4.997  14.478   0.756  0.2317  0.0051 -0.2275
26492W        W44696  12.668  10.907  14.161 -0.0172 -0.1154  0.2108
26493W        W44697   6.867   1.315  16.405  0.0637  0.1437  0.2192
26494W        W44698   8.778   9.339  14.248  0.0097 -0.2437  0.0151
26495W        W44699   3.520  17.101   3.639  0.4947 -0.0137 -0.0429
26496W        W44700   5.126   4.492  13.705  0.2605 -0.1290  0.0196
26497W        W44701   1.354   1.858   1.049  0.2482 -0.0041  0.2355
26498W        W44702   1.071   5.519  15.384  0.1062  0.3482  0.1725
26499W        W44703   7.181  16.312   0.806 -0.2217 -0.0653  0.1662
26500W        W44704   9.144  10.436  12.786  0.2163  0.3364 -0.1719
26501W        W44705  12.570   5.598   1.626 -0.0695  0.2735  0.1621
26502W        W44706   8.937  16.230   0.963 -0.0922  0.3633  0.0396
26503W        W44707   8.801  12.722  11.976 -0.1700  0.3884  0.0968
26504W        W44708  15.228   0.504   4.537 -0.1334 -0.1851 -0.1216
26505W        W44709   5.761   9.867  13.152  0.0035  0.1560 -0.1352
26506W        W44710   3.451   6.763  16.430  0.2566 -0.1191 -0.3004
26507W        W44711  15.816  10.659   1.966 -0.2747  0.0169  0.0435
26508W        W44712   6.753  17.007   2.691 -0.0480 -0.2637 -0.1117
26509W        W44713  15.918   3.478   2.798 -0.0192 -0.1892  0.1854
26510W        W44714   5.469   0.026   3.106 -0.3524  0.0117 -0.5271
26511W        W44715  11.936   2.512   0.510  0.2596 -0.3027 -0.0847
26512W        W44716   4.191   6.211  12.907 -0.0847 -0.0396 -0.0578
26513W        W44717   5.038  16.292   0.009 -0.2670 -0.1722  0.0825
26514W        W44718  17.022   4.174  12.404 -0.0622  0.2364 -0.1145
26515W        W44719  13.001   8.159  14.781  0.0032  0.3107  0.2500
26516W        W44720  16.762   1.922   3.055 -0.0062  0.2903 -0.3413
26517W        W44721   2.885   4.900   1.606 -0.2616  0.2566 -0.0765
26518W        W44722   0.174  13.005   2.528 -0.0259 -0.0232 -0.0652
26519W        W44723   3.587  10.454  13.182  0.2009  0.0177  0.0470
26520W        W44724  11.241   0.367   1.295  0.0669  0.3831 -0.3315
26521W        W44725  14.567  13.879   3.498  0.0228  0.2122 -0.1704
26522W        W44726   3.125   9.464  16.034  0.3521  0.1804 -0.0714
26523W        W44727   3.710   0.473  13.911 -0.1360 -0.1692 -0.1760
26524W        W44728  12.441  15.711   2.233 -0.3511 -0.2585  0.0781
26525W        W44729  15.198  11.194  15.213  0.1039  0.1643 -0.0421
26526W        W44730   0.234   0.289   1.155  0.1851  0.0072 -0.2288
26527W        W44731  14.162   2.743  14.731  0.1885  0.0951 -0.0485
26528W        W44732  15.850   1.198  15.206  0.1221  0.1105  0.1729
26529W        W44733   2.458   9.735  16.650  0.1604  0.4438 -0.3108
26530W        W44734   2.165   8.737   4.092 -0.0371 -0.0782  0.0581
26531W        W44735   3.541  16.384   3.749  0.3878  0.0534 -0.1726
26532W        W44736  10.908   7.941  11.132  0.0823 -0.1444  0.0912
26533W        W44737  14.712   1.311   4.415 -0.0531  0.1056 -0.1139
26534W        W44738   4.509   5.459  14.745  0.0261  0.0827  0.0058
26535W        W44739  12.850  15.260   3.299 -0.0225  0.3295  0.1701
26536W        W44740   0.963  16.284   0.663 -0.0111  0.2133 -0.2736
26537W        W44741   1.492   1.466   2.477  0.0211 -0.3483  0.2008
26538W        W44742   2.333   2.592   2.263  0.1913 -0.2421  0.0931
26539W        W44743   8.378   6.691   0.513 -0.1165 -0.2150 -0.0270
26540W        W44744  15.870   8.844   3.812 -0.1101 -0.3807 -0.1473
26541W        W44745   7.525  12.706  16.012 -0.0957 -0.2213  0.1618
26542W        W44746   5.013   1.511   1.027 -0.1554  0.2183 -0.0162
26543W        W44747  14.778  15.541   4.405 -0.1297 -0.4409  0.0487
26544W        W44748  11.735  12.322  14.392  0.0971 -0.0416  0.1478
26545W        W44749   7.096  14.665   2.396  0.2205  0.2977 -0.3271
26546W        W44750  10.336   3.817   3.465  0.2258  0.2369  0.1645
26547W        W44751   5.531   9.642  17.455 -0.0881 -0.0864  0.1212
26548W        W44752   1.323   9.511  13.031 -0.0994  0.1367  0.1882
26549W        W44753   1.316   1.549   3.488 -0.0354 -0.0200 -0.0198
26550W        W44754   9.909   8.969  16.637  0.0997  0.1249 -0.0762
26551W        W44755   1.095   6.339   0.692  0.1440  0.3540 -0.0381
26552W        W44756  16.894   4.697  15.385  0.2005 -0.2622 -0.0939
26553W        W44757  17.160   1.735  14.525 -0.1733  0.0087  0.1229
26554W        W44758  16.808   9.758   1.640 -0.1828 -0.1482 -0.0881
26555W        W44759   1.194   6.507  14.710  0.2955 -0.1989 -0.1426
26556W        W44760  14.715   1.343   2.060  0.1365 -0.2388 -0.2342
26557W        W44761  13.058   4.555   4.243  0.1076  0.1047  0.2265
26558W        W44762  15.180   3.850  13.712 -0.0680 -0.0095 -0.0329
26559W        W44763  10.902  10.556   5.755  0.2265  0.2424  0.2786
26560W        W44764  15.696  13.189  17.435  0.1878  0.0193 -0.2312
26561W        W44765   2.256   6.047  16.749 -0.1659 -0.0384 -0.1171
26562W        W44766  10.564   8.234   4.934 -0.0394 -0.0272  0.0023
26563W        W44767  13.064  13.811   2.057  0.1078 -0.0358  0.3705
26564W        W44768   2.695   0.156   4.096 -0.0786  0.2647  0.0747
26565W        W44769   9.240  15.801   5.648  0.4229  0.2728  0.0581
26566W        W44770  14.016   0.002   4.334  0.0807 -0.1745 -0.0998
26567W        W44771  10.936   1.698  14.443 -0.2958  0.1283  0.0603
26568W        W44772  16.441   3.331   4.135 -0.0783 -0.3027 -0.0704
26569W        W44773   2.680   5.751  16.660 -0.0000 -0.0193  0.2472
26570W        W44774   0.130   1.108   4.748 -0.0843  0.0255  0.3085
26571W        W44775  14.343   4.674  13.221 -0.0244  0.1846 -0.0839
26572W        W44776  13.321  17.154   1.446  0.0117  0.2051  0.2875
26573W        W44777  10.091   7.170   0.818  0.2601  0.0956  0.4905
26574W        W44778  10.620   0.540  12.976  0.0301  0.1612  0.1404
26575W        W44779  16.248  11.180  17.406 -0.0417  0.1059 -0.1869
26576W        W44780   3.649   7.201  17.082 -0.0973  0.1170 -0.3681
26577W        W44781  12.827  14.142   3.394 -0.0850 -0.1678 -0.0553
26578W        W44782   7.803  13.637  13.590 -0.0920  0.4755  0.0890
26579W        W44783  15.794   4.438   0.439 -0.1445  0.1888 -0.0947
26580W        W44784   7.924   8.197   2.033  0.0720 -0.0119 -0.0633
26581W        W44785   4.270  15.255  12.503 -0.0194 -0.2549 -0.1221
26582W        W44786   6.232  15.251  15.241  0.0192  0.1511  0.0503
26583W        W44787  14.083   2.352  14.433  0.0373  0.1384  0.3039
26584W        W44788   0.813  16.160  16.981 -0.0856 -0.0751  0.1949
26585W        W44789  12.652  13.832  16.291  0.1326 -0.0567 -0.0164
26586W        W44790   5.492  14.316  15.108 -0.1433 -0.0470 -0.0695
26587W        W44791  15.189   8.643  14.191 -0.0071 -0.3530 -0.3112
26588W        W44792  11.207  12.815  15.233  0.3913  0.2857  0.0257
26589W        W44793  16.592  10.067   5.126 -0.0236 -0.1106  0.3896
26590W        W44794   6.313   0.370   2.080 -0.1683  0.0856 -0.2312
26591W        W44795   3.917  14.277   1.069 -0.0495 -0.1142 -0.1737
26592W        W44796   2.276  11.135  14.657  0.4635 -0.0695 -0.0264
26593W        W44797  17.031  13.110  13.158  0.0194  0.0281 -0.1680
26594W        W44798  10.205  10.648  16.869 -0.0200 -0.0594  0.2084
26595W        W44799  15.239   3.145   0.636 -0.1949  0.2135  0.0705
26596W        W44800   6.818  15.416  12.503  0.1455  0.0437  0.0100
26597W        W44801   2.028   6.435   2.468 -0.1365  0.0223 -0.0436
26598W        W44802  10.191   0.192  12.392 -0.2216 -0.3025 -0.0568
26599W        W44803  17.063   2.012  14.084  0.2835 -0.1228  0.1748
26600W        W44804   2.715   9.302   3.653 -0.3086  0.1725  0.0070
26601W        W44805  13.301  16.661   1.532 -0.1138  0.0281 -0.1650
26602W        W44806  11.974  11.880  12.206  0.2020 -0.1017  0.1880
26603W        W44807   7.823  12.593   5.233  0.0420 -0.1753 -0.0841
26604W        W44808   1.277  12.908  12.673 -0.1577  0.0797  0.2111
26605W        W44809   0.814  11.481   0.415 -0.0629 -0.2155  0.1831
26606W        W44810   2.328   4.971   3.173 -0.0674 -0.2839  0.1988
26607W        W44811   9.423  14.653  16.773  0.2789  0.0845 -0.0995
26608W        W44812  15.797   5.528   0.044  0.2682 -0.1624 -0.4478
26609W        W44813   2.409  14.557   2.414 -0.1356 -0.0020  0.1015
26610W        W44814   1.970   0.162  12.653 -0.1137 -0.2360  0.1037
26611W        W44815   9.339   7.277   0.728 -0.4620  0.0455 -0.1874
26612W        W44816  11.025   0.021  12.313 -0.2174 -0.0794  0.3166
26613W        W44817  16.241   1.593   2.324 -0.1811  0.2664 -0.0806
26614W        W44818  14.670   2.900  15.783  0.2181  0.0613 -0.0214
26615W        W44819   1.635   2.854   0.279  0.1059  0.0716 -0.1019
26616W        W44820   3.804   5.913  14.188  0.1490  0.1371  0.0655
26617W        W44821   5.185   9.240  14.915  0.0739  0.0156 -0.2287
26618W        W44822   0.438  10.635   0.107 -0.1939 -0.2855 -0.1815
26619W        W44823   6.928   1.842   4.452 -0.1996 -0.0214 -0.3079
26620W        W44824   8.851   8.054  16.811  0.0382 -0.2741  0.1626
26621W        W44825   5.825   1.358   2.951  0.2261 -0.1227  0.1893
26622W        W44826   5.833  10.087   5.556  0.1903  0.0932 -0.1239
26623W        W44827   3.982  11.110  14.924 -0.0617 -0.1225  0.0774
26624W        W44828   6.656  13.975   2.436  0.2220  0.2192 -0.2639
26625W        W44829   8.588  12.105   1.113  0.0063  0.0646 -0.1190
26626W        W44830  14.326   3.800  14.006  0.1957  0.0147  0.2688
26627W        W44831   7.341   1.292   3.243 -0.1693 -0.4002  0.0465
26628W        W44832   1.785   7.497   1.534  0.0603  0.0978 -0.0114
26629W        W44833  13.431  13.556  13.720  0.1717  0.0030  0.1527
26630W        W44834  15.599  16.086   4.461 -0.3170  0.3004  0.4083
26631W        W44835  10.382  13.880   3.155  0.3060  0.1314 -0.1224
26632W        W44836   0.972   7.687   2.823  0.1818  0.1041 -0.2434
26633W        W44837   2.162  12.631  14.087 -0.0972  0.0665 -0.0630
26634W        W44838   8.375   6.610   2.388  0.0237 -0.0955 -0.4048
26635W        W44839  12.558  10.748   0.852 -0.1858 -0.2134 -0.1533
26636W        W44840   3.848   0.029   3.366 -0.0449 -0.3179 -0.0935
26637W        W44841   1.941  12.543   2.180  0.1816 -0.0145  0.1692
26638W        W44842   3.129  11.531  16.057  0.2524 -0.0706 -0.0376
26639W        W44843   3.670  12.132  12.366  0.0460  0.1348  0.1749
26640W        W44844   8.871   4.970  13.617  0.3213 -0.0164 -0.1984
26641W        W44845   8.646   3.368  12.459  0.2641 -0.1150 -0.2408
26642W        W44846  14.117   7.918   0.170 -0.0625  0.1483 -0.4000
26643W        W44847   2.902  13.773   0.547  0.1893 -0.1316  0.2370
26644W        W44848   4.149  10.194  11.999 -0.1029 -0.1026 -0.2535
26645W        W44849   8.950   4.295   0.666  0.0279 -0.0112 -0.0356
26646W        W44850   0.888  12.155   4.956 -0.2644  0.1109  0.0242
26647W        W44851  16.696   7.072   5.334  0.3575 -0.0438 -0.1200
26648W        W44852   2.124   2.541   4.056  0.1679 -0.0587  0.2877
26649W        W44853   7.767  17.145   1.633  0.3395  0.2966  0.2195
26650W        W44854  10.615   1.783   0.433  0.1264  0.1384 -0.1720
26651W        W44855   3.010   1.836  16.916  0.0676 -0.1558  0.1192
26652W        W44856   4.896   4.978  15.914  0.1181 -0.0594 -0.0168
26653W        W44857   9.659  12.574  16.189 -0.0411 -0.2700  0.1126
26654W        W44858   6.848  12.729  15.966  0.2847  0.2857  0.0430
26655W        W44859   1.775   6.034   2.269 -0.0392  0.0417 -0.3117
26656W        W44860  10.407  17.154  16.570  0.3490 -0.1575  0.1789
26657W        W44861   5.627  10.003  15.801  0.0067  0.0652  0.1448
26658W        W44862  12.460   9.934   4.146 -0.0209 -0.0495  0.0650
26659W        W44863   8.919   8.584   4.040  0.0910  0.1299 -0.1679
26660W        W44864   9.101   7.250  14.203  0.1951  0.2056  0.1618
26661W        W44865  14.233   3.502  17.346 -0.0242  0.0717  0.2097
26662W        W44866  13.589   1.345   5.344 -0.1521  0.1839  0.3452
26663W        W44867   3.032   0.672  14.576 -0.0528 -0.0609 -0.1822
26664W        W44868   5.250  11.123  16.108 -0.0913  0.0044 -0.0112
26665W        W44869   0.136   4.820   3.178  0.1574 -0.0099 -0.3157
26666W        W44870   3.525   4.760   3.036  0.0158 -0.2900  0.0592
26667W        W44871  16.595  16.934  13.940 -0.1148 -0.0894 -0.1742
26668W        W44872   1.968  14.926   4.171 -0.0375  0.1534 -0.3194
26669W        W44873   3.330   1.536  15.230  0.1826 -0.2041 -0.1653
26670W        W44874  13.592   8.904  17.499  0.1935 -0.1741 -0.1102
26671W        W44875  13.202   9.726  12.573 -0.1403 -0.2250  0.0841
26672W        W44876   3.585   4.063  15.173 -0.2692  0.0083 -0.2862
26673W        W44877  14.201   7.463   2.785  0.0027  0.1671 -0.1033
26674W        W44878   4.720  13.763  16.261 -0.0749  0.3160 -0.1757
26675W        W44879  15.932   0.304  15.151 -0.0248 -0.1401  0.1892
26676W        W44880   1.541   9.362  15.442 -0.2611 -0.0251 -0.1521
26677W        W44881   8.372   5.795   1.466 -0.4928  0.3346  0.0446
26678W        W44882  13.161  15.797   0.925  0.1153  0.0646  0.0260
26679W        W44883  14.487   2.376  15.094 -0.0696 -0.2402 -0.1259
26680W        W44884  13.767  11.838   4.243 -0.3263 -0.0173  0.0243
26681W        W44885  12.690  15.508   1.000 -0.1699 -0.3324 -0.0802
26682W        W44886  13.622  10.689   4.202 -0.1273 -0.2555 -0.2044
26683W        W44887   1.598   7.545   4.127 -0.0699 -0.4230 -0.0580
26684W        W44888   4.806   8.112  13.636  0.1093  0.4041 -0.0018
26685W        W44889   8.060   8.406  15.813  0.0848  0.1205  0.3288
26686W        W44890  12.251  13.595  14.801 -0.2126  0.0810 -0.3660
26687W        W44891   0.487   5.888   2.377 -0.1167  0.1692 -0.1763
26688W        W44892   0.281   3.160   2.715  0.0237  0.1340 -0.2489
26689W        W44893  10.840   0.747  15.998  0.0546  0.1544 -0.0896
26690W        W44894   0.244  11.242  13.555 -0.2087  0.3000 -0.2522
26691W        W44895   5.369  11.825  15.608 -0.2759  0.0999  0.0952
26692W        W44896   7.810   4.859  15.894  0.0499 -0.2269 -0.0189
26693W        W44897  10.311  15.743  13.618 -0.1308  0.1511  0.2079
26694W        W44898   1.418   8.457   5.434  0.0994  0.0880  0.2133
26695W        W44899   1.731   6.746   2.723 -0.0795 -0.0413 -0.2725
26696W        W44900   2.155   1.473  13.565 -0.0508 -0.1324 -0.2881
26697W        W44901  11.057   5.532   0.788 -0.0198 -0.1408 -0.2851
26698W        W44902   3.077  12.877  16.252 -0.1390 -0.0031 -0.0467
26699W        W44903   0.920   7.985  16.571  0.1519 -0.0186 -0.0643
26700W        W44904   4.202  12.355  16.091 -0.0330  0.1714 -0.1488
26701W        W44905   4.985  17.175   1.906  0.1895  0.0231  0.0107
26702W        W44906   6.947   7.362  13.072  0.0672 -0.1116 -0.0293
26703W        W44907   7.138   9.657  16.825 -0.2153  0.1970  0.1453
26704W        W44908  16.153   7.155   5.126 -0.0326 -0.0983  0.1173
26705W        W44909   7.534   0.074  17.125 -0.1750  0.0766 -0.1292
26706W        W44910   4.951  14.076   3.941 -0.2562 -0.1302 -0.1624
26707W        W44911  13.997  16.684  17.287  0.0956  0.2035 -0.2021
26708W        W44912   9.565   8.922   3.384  0.1915  0.1471 -0.2421
26709W        W44913  15.338  11.402   3.034 -0.0263  0.0698  0.3680
26710W        W44914  15.457   8.313   0.629 -0.0716 -0.0091  0.1784
26711W        W44915  16.997   8.554  16.696 -0.1193 -0.1193  0.3637
26712W        W44916   1.055  16.818  13.942  0.1407  0.0473  0.1176
26713W        W44917  12.583   7.895  16.613 -0.0568  0.1873 -0.0552
26714W        W44918   0.301  15.194   4.704  0.0615  0.0776 -0.0516
26715W        W44919   0.096  16.285   4.108 -0.1991 -0.0355  0.1557
26716W        W44920   8.272  13.916   2.084  0.0151  0.0159  0.3350
26717W        W44921  10.517   2.486   0.074  0.0720  0.0476 -0.1235
26718W        W44922  13.397   3.292   5.170 -0.1425 -0.0946  0.3093
26719W        W44923   1.797  16.562  15.466 -0.0442  0.3497 -0.0926
26720W        W44924   2.883   9.600   2.492  0.1475  0.1708  0.2263
26721W        W44925   4.352   7.018   2.566  0.1899  0.1138  0.4049
26722W        W44926  15.190  16.734  15.492  0.6443 -0.0389  0.0421
26723W        W44927   8.119  11.781  16.469  0.0723  0.1343 -0.0067
26724W        W44928  15.446   6.758   5.282  0.2263 -0.0734  0.1184
26725W        W44929  14.290  13.627  15.918 -0.0169  0.1386  0.1326
26726W        W44930   0.974   3.568  15.346 -0.2117 -0.1089  0.0173
26727W        W44931  10.201   6.591  15.822  0.0910  0.0248  0.0710
26728W        W44932  14.024   5.986  12.566 -0.0829 -0.0952  0.2336
26729W        W44933  10.598  15.659  12.283 -0.1630  0.0853 -0.0588
26730W        W44934  15.712   0.017  17.336  0.0660 -0.1957 -0.0470
26731W        W44935  16.491  13.345  15.187 -0.1604  0.0407 -0.3279
26732W        W44936   4.702   3.011  16.543 -0.3681 -0.2018  0.1453
26733W        W44937   9.820   2.588   0.609 -0.0785  0.2063  0.1725
26734W        W44938   0.418   6.911   0.949 -0.0414  0.3167  0.1836
26735W        W44939  12.004   7.929   3.284  0.0451 -0.1163 -0.3161
26736W        W44940  11.109  12.728  16.179  0.1129  0.2670  0.3658
26737W        W44941   3.517  10.718   0.262  0.5178  0.1794 -0.0136
26738W        W44942  10.352   6.727   4.989  0.1968  0.0970 -0.0129
26739W        W44943   1.782   1.269  12.474 -0.1443  0.1904 -0.2176
26740W        W44944   3.195   4.077   0.120 -0.0609 -0.0187 -0.1086
26741W        W44945   4.267   8.518   5.052  0.0395 -0.3732 -0.2017
26742W        W44946  14.567   7.507  16.624  0.1831 -0.1554 -0.1325
26743W        W44947  16.524   2.957  17.465  0.1987  0.0143 -0.0706
26744W        W44948  12.114  14.668  16.393  0.0447  0.0587  0.0522
26745W        W44949   1.167  15.837  12.491  0.0103  0.1270 -0.1739
26746W        W44950  12.001   7.959   4.642 -0.0572 -0.2988  0.0419
26747W        W44951   7.364   9.128  16.707  0.0304 -0.1577 -0.2273
26748W        W44952  12.575   7.366  15.149  0.0496  0.1540  0.2609
26749W        W44953   2.153  11.250   0.002  0.2533  0.1645  0.1115
26750W        W44954   5.042   1.477  14.433 -0.1969 -0.0221 -0.2529
26751W        W44955   8.930  14.570  16.525  0.0561 -0.2305 -0.1258
26752W        W44956   3.990   3.919   2.661 -0.1554  0.0515 -0.0791
26753W        W44957   3.250   0.963   1.601 -0.1132 -0.0136 -0.0673
26754W        W44958   2.403  10.371  17.423  0.1320 -0.0824  0.0744
26755W        W44959  16.210   8.557   1.728  0.2706  0.3054  0.1194
26756W        W44960   9.790  13.106   0.941  0.3856  0.5573  0.0225
26757W        W44961   3.881  12.538  17.385  0.1247  0.1583  0.0717
26758W        W44962  13.409   6.582   2.724 -0.2005 -0.0497 -0.1822
26759W        W44963   5.721   0.962   2.688  0.0494 -0.5518  0.1134
26760W        W44964   4.534   9.685  15.234  0.1743 -0.0533 -0.0668
26761W        W44965   4.969   3.395  12.750  0.1689 -0.1519 -0.1625
26762W        W44966   9.133   5.547   2.861  0.0859  0.0528  0.0559
26763W        W44967  11.589   4.906   4.106 -0.0675 -0.0050  0.2414
26764W        W44968   3.085  14.749   4.237  0.0424  0.0203 -0.0295
26765W        W44969   6.295   4.859   5.529 -0.0903  0.4266 -0.0950
26766W        W44970   8.025  11.767   4.509 -0.0814  0.2505  0.1653
26767W        W44971  14.654   2.952   0.557 -0.2524  0.1189 -0.2408
26768W        W44972  13.905  12.618  17.460  0.2217 -0.1991  0.0669
26769W        W44973  15.939  14.368  16.339 -0.1733  0.0990 -0.3103
26770W        W44974   0.772   6.737  17.369  0.1424 -0.0289  0.1200
26771W        W44975   1.840  11.981  14.857  0.1491 -0.0167 -0.0835
26772W        W44976   0.464   1.261   2.247  0.1537  0.4531  0.2151
26773W        W44977  10.890   2.336   4.173 -0.0727 -0.0755 -0.3204
26774W        W44978  17.201  12.692  14.309  0.0549 -0.0166  0.2426
26775W        W44979   6.826  16.853  12.705 -0.3204 -0.0111  0.1061
26776W        W44980   6.455  14.007   4.080 -0.0702 -0.3915  0.0682
26777W        W44981   1.156   9.467   0.304  0.0597  0.4288  0.2534
26778W        W44982  17.100  17.097   2.906  0.1732  0.1086 -0.3155
26779W        W44983   4.158   2.235  14.736 -0.0703  0.2274 -0.3362
26780W        W44984  12.141   3.550  13.513 -0.2325  0.1742 -0.1667
26781W        W44985   5.702  14.272  13.332  0.0169 -0.2652  0.0218
26782W        W44986   2.346  10.568  13.794  0.1652  0.0250 -0.3029
26783W        W44987   7.279   5.691   1.352 -0.0646 -0.0180 -0.2698
26784W        W44988  14.112   8.382   0.596 -0.0451 -0.0138  0.2029
26785W        W44989   8.834   3.109  13.908 -0.1119 -0.0870  0.2736
26786W        W44990   2.712   4.099  15.357 -0.1308 -0.0161 -0.0478
26787W        W44991  10.102  13.348  12.960 -0.1203 -0.0538 -0.2117
26788W        W44992   7.220  17.289  13.317  0.2583 -0.1298  0.0062
26789W        W44993  13.954  15.364  12.125  0.1162 -0.0513 -0.0438
26790W        W44994   9.790   8.940  14.626  0.2945  0.4009  0.1525
26791W        W44995  14.529   3.976   5.079  0.1104 -0.1627 -0.1852
26792W        W44996   3.945  15.836  14.966  0.0638  0.2998  0.4745
26793W        W44997  16.840  11.772   1.333 -0.2560  0.0762  0.1271
26794W        W44998   4.017   4.319  15.235  0.0519  0.2097 -0.0936
26795W        W44999  15.982  13.350   3.511  0.1907  0.3083  0.2551
26796W        W45000  15.403   1.916   2.898  0.0807 -0.0392 -0.2655
26797W        W45001   2.809   9.203  12.980 -0.2220 -0.1515  0.0619
26798W        W45002  14.981  15.453  13.399  0.0157  0.1361 -0.0491
26799W        W45003  15.651   3.777   2.018  0.0968 -0.0117 -0.2189
26800W        W45004  14.510   8.193  16.223 -0.4208  0.1985  0.2068
26801W        W45005   4.629   7.426   0.746 -0.2263  0.1854 -0.0032
26802W        W45006  12.839  11.602  13.331 -0.0041  0.2046 -0.1774
26803W        W45007   0.506  16.422   0.439 -0.3706  0.2102  0.0576
26804W        W45008   9.591   4.181   4.620  0.2808  0.0364  0.1359
26805W        W45009  11.772  15.321  11.824  0.1692 -0.0669  0.1327
26806W        W45010   3.967   1.730   2.604  0.0775 -0.3175  0.1947
26807W        W45011   5.636   9.772   5.200 -0.0346 -0.1846 -0.1336
26808W        W45012  15.359   8.694  12.112 -0.2165 -0.2029  0.2598
26809W        W45013   3.744  16.450   2.836  0.0337 -0.0976 -0.0870
26810W        W45014   1.801   3.092  14.277 -0.3436 -0.1151 -0.2622
26811W        W45015   6.477   6.057   3.990  0.3333  0.0568 -0.0109
26812W        W45016   5.044   0.015  17.248  0.1407  0.2832 -0.0073
26813W        W45017  11.783   5.982   2.334  0.0359  0.1812  0.0100
26814W        W45018   9.387  13.441  14.313  0.1488  0.2363 -0.2370
26815W        W45019   4.314   9.724   2.872 -0.0475 -0.3087 -0.4644
26816W        W45020  16.151  15.993  15.681  0.0609  0.0208  0.2309
26817W        W45021  16.843   3.026   3.809  0.0192  0.0017 -0.0932
26818W        W45022   9.072  10.010   2.209  0.0222  0.3648  0.1237
26819W        W45023  14.845   9.752   3.992 -0.0510 -0.1433 -0.2955
26820W        W45024  11.669  12.666   1.262  0.0175  0.1977  0.1710
26821W        W45025   6.240  13.970   2.690 -0.2059 -0.1650  0.2173
26822W        W45026   1.357   6.660   2.997  0.2172  0.1554  0.0216
26823W        W45027   7.297   2.442  11.745  0.0106 -0.1132  0.2400
26824W        W45028   7.870  14.465  14.874  0.2171  0.2608 -0.1896
26825W        W45029   6.754   1.050  15.390  0.1757  0.1865 -0.2086
26826W        W45030   4.203   2.389  13.412 -0.1211  0.2229 -0.0429
26827W        W45031   7.886   2.984  14.343  0.0718  0.2077  0.1807
26828W        W45032   0.749  12.548   1.708 -0.2845 -0.0484 -0.1385
26829W        W45033   9.516  17.044  16.145 -0.0421 -0.1707 -0.0931
26830W        W45034   3.639   4.031  13.913 -0.0979 -0.1746  0.0839
26831W        W45035   5.638   6.066  15.912  0.3615 -0.0346  0.2072
26832W        W45036   3.670   4.005   4.045  0.1219 -0.1869 -0.2301
26833W        W45037  11.986   1.502  16.636  0.1815 -0.0229 -0.2349
26834W        W45038   0.393  11.285   3.854 -0.0823  0.0724 -0.3087
26835W        W45039  16.423  10.641  16.507 -0.4987 -0.1472 -0.0063
26836W        W45040   5.722   1.703  16.378 -0.1136  0.3381 -0.3430
26837W        W45041   0.522  15.698  15.814 -0.0767  0.2039 -0.1060
26838W        W45042  11.370  13.314  12.397 -0.2198  0.3006 -0.0179
26839W        W45043   7.439   4.056  12.619  0.0469 -0.2823  0.0144
26840W        W45044  12.994  11.233  15.324  0.0416 -0.0345 -0.1324
26841W        W45045   3.987   7.951  15.522 -0.0118 -0.1815 -0.0170
26842W        W45046  14.913  12.858   3.116  0.0202  0.1138  0.3389
26843W        W45047  10.291  10.302   4.189  0.0223  0.1109 -0.2052
26844W        W45048  16.607  10.509   4.615 -0.0656  0.2656 -0.0576
26845W        W45049  11.315   5.083  16.202 -0.0041  0.3425  0.1807
26846W        W45050   7.249  17.080  15.406  0.0013 -0.0107  0.0636
26847W        W45051   3.706  12.422  16.043 -0.1718 -0.0253 -0.1932
26848W        W45052   7.177   8.644  15.518  0.3012 -0.0566  0.2678
26849W        W45053   2.214  12.892   5.554 -0.1127 -0.1701  0.0221
26850W        W45054   1.884  12.381  15.217 -0.1620  0.1346  0.2192
26851W        W45055  12.580   5.239   4.418  0.3682 -0.0133  0.1054
26852W        W45056  10.005   7.987  13.972 -0.2216 -0.0097  0.3449
26853W        W45057  11.881   8.847   4.328 -0.1399 -0.0374 -0.0255
26854W        W45058   3.204   8.600  15.122  0.0474  0.0639  0.0985
26855W        W45059   9.172   0.157   2.396 -0.2987 -0.0065 -0.0780
26856W        W45060   1.319  17.293   3.248 -0.0160  0.0908  0.1281
26857W        W45061   9.418   0.370   1.376  0.1142 -0.3201  0.0744
26858W        W45062  13.274  16.470   3.590 -0.3376 -0.0236 -0.4098
26859W        W45063  15.054   9.939   3.522 -0.0771  0.0141 -0.0727
26860W        W45064   9.741   5.282  13.469 -0.1129  0.1569  0.0752
26861W        W45065  11.808   1.260  14.179  0.3055  0.2332  0.0964
26862W        W45066   8.333  14.283  13.159  0.1304  0.2017  0.0828
26863W        W45067   0.355  16.589  12.388  0.0116  0.0584 -0.2328
26864W        W45068   6.029   3.424   5.069 -0.1470  0.1469  0.4432
26865W        W45069  15.854  11.728   2.192  0.1987 -0.1992  0.3986
26866W        W45070   0.999   7.477  14.506 -0.0136  0.2722  0.0184
26867W        W45071  11.431   5.345  13.986 -0.3344  0.1832  0.0563
26868W        W45072  14.236  14.159   4.210  0.2720 -0.0616  0.1892
26869W        W45073  10.319  14.996   0.373 -0.0903  0.0298 -0.1306
26870W        W45074   4.089   8.462   1.573  0.0845  0.1375 -0.2934
26871W        W45075   6.601  14.686  13.137 -0.4085  0.2930  0.1549
26872W        W45076   4.607  14.922  12.678  0.0676 -0.0086  0.4001
26873W        W45077   2.009   5.161   1.202 -0.0342  0.0492  0.0090
26874W        W45078   1.302   2.719  16.946  0.0433  0.0427  0.1808
26875W        W45079  16.405  16.276  15.405 -0.1162 -0.2208  0.1101
26876W        W45080   7.984  12.407  14.713 -0.0452  0.0840 -0.0793
26877W        W45081  15.167   3.427  12.400  0.0845  0.0597  0.0409
26878W        W45082   6.979  12.366   3.894  0.0356  0.1994  0.1317
26879W        W45083   8.038  12.772   2.922 -0.3306  0.0650 -0.0879
26880W        W45084   1.756   0.793  15.599 -0.1387 -0.0469  0.0706
26881W        W45085   8.576  10.062   2.292 -0.0768  0.0532 -0.3278
26882W        W45086  10.029   2.086  15.262 -0.0038 -0.0224  0.3176
26883W        W45087   8.975  11.772   1.182 -0.1305  0.1495 -0.2568
26884W        W45088   0.416  14.133   5.362  0.1685 -0.0893  0.0510
26885W        W45089  14.118   2.225  15.391 -0.1729  0.2468 -0.1386
26886W        W45090   0.758  12.833  14.668  0.1597  0.0672  0.1071
26887W        W45091   6.081   1.449   1.165 -0.0687 -0.0449 -0.3863
26888W        W45092  16.462   1.382  14.710  0.2559  0.2425 -0.1595
26889W        W45093   0.902  11.619   4.822  0.1835 -0.0646  0.2833
26890W        W45094   0.590  13.145   1.301  0.1365  0.3769 -0.0347
26891W        W45095  12.597   3.919   0.461  0.1907  0.1782  0.0421
26892W        W45096  11.705   7.495   1.171 -0.0913 -0.1198 -0.0056
26893W        W45097   4.254   6.202  13.831 -0.0652 -0.0537  0.1483
26894W        W45098   7.006  14.562   1.868 -0.2543 -0.0389 -0.0538
26895W        W45099  15.990   7.516   0.286  0.4194 -0.1029  0.0977
26896W        W45100   0.211   9.148  13.368  0.2679 -0.1599  0.0703
26897W        W45101  14.662  13.001   5.356  0.1709  0.1289  0.0435
26898W        W45102  14.674  13.034  13.281 -0.1852 -0.2704 -0.1890
26899W        W45103  16.498   9.344   3.449  0.1385 -0.2236 -0.0537
26900W        W45104   8.479   9.781  16.901 -0.3000  0.0866 -0.1542
26901W        W45105   3.907   1.353   0.481 -0.1355 -0.0540  0.1009
26902W        W45106  14.767   2.952  17.144  0.1068  0.3562 -0.0178
26903W        W45107  13.722   0.550  17.510 -0.3055  0.0256  0.1694
26904W        W45108   7.417   2.871  13.484  0.1997  0.0491 -0.0486
26905W        W45109   2.971   9.217   0.986 -0.1561  0.1307 -0.1646
26906W        W45110   6.145   9.687   1.952  0.2454 -0.1983 -0.0545
26907W        W45111   5.762  13.658  14.353  0.1120 -0.1097 -0.0126
26908W        W45112   0.699  10.632   5.039 -0.1412  0.0925 -0.1713
26909W        W45113   9.651  10.027  15.709 -0.4825  0.2073  0.0531
26910W        W45114  14.476   3.243  14.086 -0.3868 -0.1194 -0.2822
26911W        W45115  13.183  14.754   2.155  0.1153 -0.3650  0.3480
26912W        W45116   7.540   9.767   5.163 -0.1543 -0.0295 -0.0403
26913W        W45117  14.248   0.675  12.654 -0.0696 -0.1366  0.1111
26914W        W45118   6.463   3.887  11.489  0.0763 -0.1646 -0.2442
26915W        W45119   8.981   5.906   3.760  0.2377 -0.1591  0.0646
26916W        W45120   7.131   9.973   1.054 -0.2383 -0.1459  0.1660
26917W        W45121   9.722  16.478  13.760 -0.1194 -0.0329 -0.0794
26918W        W45122  12.751   3.004   1.022 -0.1174 -0.0447 -0.0235
26919W        W45123  15.079  15.309  17.264  0.3147  0.1799  0.4513
26920W        W45124   1.711   1.478   0.355 -0.0151 -0.2766 -0.0318
26921W        W45125   2.700   2.898   2.052 -0.0592 -0.1601 -0.2005
26922W        W45126   9.017   7.152  16.782  0.2922 -0.0691  0.0368
26923W        W45127   4.486  10.182   2.775 -0.1431 -0.0350  0.1891
26924W        W45128  14.581   1.574  17.289 -0.0779 -0.0573 -0.0231
26925W        W45129  15.182   5.970  14.184 -0.1660 -0.1458  0.1777
26926W        W45130   6.287  15.932  13.578  0.0456  0.0927 -0.0525
26927W        W45131   4.652   2.274  13.866  0.0379  0.4031  0.2158
26928W        W45132   6.720  10.888  12.308  0.0260  0.2180 -0.0365
26929W        W45133  14.241   2.244   1.133  0.2528  0.0645  0.2243
26930W        W45134   1.604  14.271  16.086 -0.4243 -0.0751 -0.0337
26931W        W45135   1.366   0.379   3.611  0.0973  0.1339  0.0754
26932W        W45136   4.407   8.613  14.539 -0.3541 -0.1103  0.0745
26933W        W45137   2.221  16.613   0.331 -0.1591 -0.1146 -0.0001
26934W        W45138   6.030   6.186  12.953  0.4260 -0.2644 -0.3712
26935W        W45139   4.862  13.246  14.279  0.1153  0.1532 -0.2114
26936W        W45140  15.861  11.375   4.288 -0.1087 -0.2687 -0.0178
26937W        W45141   4.017   1.174   2.704  0.0733 -0.0155 -0.2494
26938W        W45142   9.023   5.067  14.104  0.0189 -0.0596 -0.1517
26939W        W45143   5.055   8.792   1.194 -0.0808  0.0957 -0.3647
26940W        W45144  13.511  17.289   3.650  0.2936  0.1308 -0.2100
26941W        W45145   5.462   1.195  13.180 -0.1341 -0.0254 -0.3300
26942W        W45146  11.980   0.312  12.822  0.1812 -0.4722 -0.1143
26943W        W45147  14.988  11.862   0.155  0.0406  0.0107  0.2828
26944W        W45148  12.043   5.611  16.548 -0.0958 -0.0268 -0.0068
26945W        W45149  10.799   5.659  12.865  0.1687  0.0373 -0.1357
26946W        W45150  15.774   8.368   4.179  0.1233 -0.0237 -0.2686
26947W        W45151  16.619  10.584   5.249 -0.3319  0.0705 -0.1154
26948W        W45152   4.367   1.702   0.338  0.3323  0.0191  0.2204
26949W        W45153  13.054  15.237   1.905 -0.3833  0.0843 -0.1314
26950W        W45154   2.680  15.788   4.516  0.1307 -0.0327  0.1623
26951W        W45155   5.003   1.795   3.344 -0.1237 -0.2980 -0.1298
26952W        W45156   9.466  16.085   3.707 -0.2115 -0.0648  0.1965
26953W        W45157   0.642  14.507  12.391 -0.1086 -0.1126  0.1603
26954W        W45158  15.013  12.080  16.573 -0.0339 -0.2563  0.2447
26955W        W45159   8.326  15.000   4.643  0.1960  0.0324  0.1367
26956W        W45160   5.438  13.770  14.892  0.0722  0.1114 -0.0410
26957W        W45161  10.240   6.659   4.331  0.1776  0.3898  0.0596
26958W        W45162  11.123  15.116   3.236  0.2343 -0.0489  0.0060
26959W        W45163  15.561  14.805  15.431  0.0478 -0.2099  0.0169
26960W        W45164   6.879  14.206  14.708 -0.3062 -0.1901 -0.2112
26961W        W45165  15.304  11.216  16.764 -0.0109 -0.2406 -0.1941
26962W        W45166  15.263   2.782   1.293 -0.0493 -0.0928 -0.0289
26963W        W45167   9.180   9.114  14.011  0.0956  0.2981 -0.1247
26964W        W45168  14.389  16.394   1.513 -0.0820 -0.1542  0.2534
26965W        W45169   8.155  10.826  13.866 -0.1047 -0.2452  0.1715
26966W        W45170  10.129  16.222   4.235 -0.0257 -0.0787 -0.1153
26967W        W45171  16.544   7.336   4.892  0.3393  0.1186  0.2365
26968W        W45172  13.930  15.803  14.687  0.1470 -0.2412 -0.1161
26969W        W45173   8.472   2.323   5.049  0.0026 -0.2092 -0.1544
26970W        W45174   7.000  13.818  16.853 -0.0838 -0.3364  0.2444
26971W        W45175  10.818   1.330   2.738  0.1337 -0.0366 -0.0841
26972W        W45176   1.974   4.046   0.424 -0.1148  0.0872 -0.3106
26973W        W45177   6.766   4.509   0.030 -0.0197 -0.0326 -0.1550
26974W        W45178  11.370  14.053   2.092  0.0955  0.2543  0.0327
26975W        W45179   2.676   0.296  13.452 -0.2716  0.1304 -0.1235
26976W        W45180  13.452   2.623   2.485 -0.1896 -0.2234 -0.0918
26977W        W45181   8.233  13.273  12.736 -0.2530  0.0827  0.2309
26978W        W45182  14.810   6.733   0.631 -0.2481 -0.0275  0.2110
26979W        W45183   5.362   9.723   1.420  0.2692 -0.0043  0.0374
26980W        W45184  13.082   7.432  13.555  0.0868 -0.0695  0.2576
26981W        W45185   4.414  13.407   0.139 -0.0201 -0.1138  0.0857
26982W        W45186   1.640   0.011   1.276  0.0126 -0.0845 -0.1414
26983W        W45187   4.889  16.423   4.335 -0.2134 -0.0217 -0.1027
26984W        W45188  14.439   7.173  15.372 -0.0866  0.1407 -0.1968
26985W        W45189   3.213   7.620  11.857 -0.0908  0.1738  0.0770
26986W        W45190   2.543   8.361   5.149 -0.1179  0.1892  0.0773
26987W        W45191   4.244   0.983   0.694 -0.1437 -0.1461  0.0632
26988W        W45192  13.834  16.255  16.546  0.1031  0.1157  0.1944
26989W        W45193  15.328   6.604  15.016 -0.5497  0.0003  0.1179
26990W        W45194   3.950  12.192  14.132 -0.0891 -0.1901 -0.0710
26991W        W45195   1.263  14.672   0.243  0.1898 -0.2925 -0.6802
26992W        W45196   6.293  15.090  16.537  0.2524  0.0725 -0.0466
26993W        W45197   3.856   0.025   0.470 -0.3026  0.1549  0.0906
26994W        W45198  13.613  14.748   5.517 -0.0083  0.0528 -0.1731
26995W        W45199   7.485  16.151   0.387  0.0905  0.1328  0.1066
26996W        W45200   1.343   5.437   3.147 -0.0532  0.1993  0.0727
26997W        W45201   7.975  12.846   0.020 -0.1678  0.0500 -0.2377
26998W        W45202   3.780  15.019   5.060 -0.0336  0.0311 -0.0695
26999W        W45203   0.742   9.440   3.894  0.0500 -0.1104 -0.0633
27000W        W45204  14.755   3.230   1.901  0.1782 -0.0172 -0.0926
27001W        W45205  11.858  11.605  16.509  0.1239  0.0694  0.1890
27002W        W45206   7.105   6.892   3.210 -0.0356  0.1328  0.1520
27003W        W45207  11.196   5.870   3.143 -0.3043  0.0829 -0.0505
27004W        W45208   2.518  10.544   3.426  0.1422  0.3833  0.0804
27005W        W45209  16.713   5.483  13.135 -0.1724 -0.1029  0.0592
27006W        W45210   9.537  12.904  16.567  0.2325  0.0236  0.2193
27007W        W45211   5.639  13.587   1.553 -0.2322  0.0159 -0.2374
27008W        W45212   1.663   8.396  15.991 -0.0453  0.2040 -0.1180
27009W        W45213   1.991   7.655   2.703  0.0355 -0.1115 -0.0767
27010W        W45214   3.551   6.497  12.402 -0.0360 -0.1612  0.0804
27011W        W45215   8.571   5.273   1.485  0.0360 -0.3049 -0.0349
27012W        W45216  14.843   0.734   4.226  0.1991  0.2489 -0.2766
27013W        W45217   9.534  13.279   4.875  0.1333 -0.1317 -0.0427
27014W        W45218  16.734   9.933  13.219  0.3295  0.0803  0.1639
27015W        W45219   4.248  10.603   2.893  0.0208 -0.0573  0.3538
27016W        W45220   9.673   1.282  13.144  0.2055  0.3357  0.1998
27017W        W45221  16.380   7.290  15.083 -0.0356  0.1254 -0.0125
27018W        W45222  13.856   7.750  15.270  0.1721  0.0606 -0.1324
27019W        W45223   1.068  15.332  12.570  0.2088 -0.2931  0.1932
27020W        W45224   7.435   1.325  13.327 -0.0353  0.2112  0.1972
27021W        W45225   9.230   5.766   5.131 -0.3980  0.0868  0.0809
27022W        W45226   3.741   2.549  13.414 -0.0390  0.3159  0.3018
27023W        W45227   8.629   9.027  16.951 -0.1143 -0.0278  0.1988
27024W        W45228  10.743  16.383  12.888 -0.0706  0.0093 -0.1259
27025W        W45229   1.097   7.909  12.259 -0.2106 -0.0817  0.0650
27026W        W45230  14.090   6.569  16.538  0.0058  0.0647 -0.0379
27027W        W45231   5.301   7.795  16.343 -0.0714  0.1681  0.2139
27028W        W45232   9.924  15.432  16.202 -0.5417 -0.1121  0.3337
27029W        W45233   3.119  10.471  15.183  0.0719  0.0085 -0.0988
27030W        W45234   9.469   3.520  17.478  0.2271  0.0485  0.2255
27031W        W45235   0.424   6.021   3.362 -0.3283  0.0751 -0.0945
27032W        W45236  11.875  10.887   4.936  0.1506 -0.1494  0.1762
27033W        W45237   9.049   2.997  12.406 -0.2829  0.0381 -0.1569
27034W        W45238   6.636   3.740   3.747 -0.2417 -0.3975 -0.2761
27035W        W45239   0.774   7.931   5.803  0.2002 -0.1286  0.1152
27036W        W45240   7.196   2.629  13.910  0.2316  0.1215  0.1692
27037W        W45241  14.663  15.018   2.468  0.1091  0.0438 -0.2312
27038W        W45242  13.770   0.076   0.576  0.0641 -0.2709 -0.0298
27039W        W45243   0.546  15.355  14.752 -0.0023  0.1243 -0.0915
27040W        W45244  12.324   4.784   1.182 -0.0618 -0.3234  0.0472
27041W        W45245   8.295   7.923  16.939  0.2176  0.0029  0.4338
27042W        W45246   5.246   1.186  12.470 -0.1302  0.1907 -0.3154
27043W        W45247  12.301   5.490  11.993  0.0609  0.0836  0.1634
27044W        W45248   2.656   8.377   4.574 -0.0775  0.0059  0.1328
27045W        W45249   7.183   0.143   3.824 -0.0071 -0.1018  0.1104
27046W        W45250   2.150   2.043   2.646 -0.1291  0.2289  0.1849
27047W        W45251   9.025  14.674   2.933 -0.0325  0.4079  0.1749
27048W        W45252  16.885   1.442  17.419 -0.2268 -0.2175  0.0862
27049W        W45253   9.004  15.583   4.256 -0.1655  0.0514  0.0096
27050W        W45254   7.296   3.828   1.377  0.0572 -0.1197 -0.0251
27051W        W45255   8.625  14.654  16.909 -0.2401  0.0369 -0.3144
27052W        W45256  10.141  16.750  14.600  0.2623  0.0561 -0.1370
27053W        W45257   9.968  14.510  13.142 -0.0272 -0.1579 -0.0446
27054W        W45258   6.665   2.276   3.679 -0.4217  0.2710  0.0532
27055W        W45259   3.528  11.777  13.341 -0.1031  0.3794  0.0451
27056W        W45260  17.115   1.795   4.131 -0.1216 -0.0203  0.1008
27057W        W45261  15.000   4.260  14.467  0.2207  0.0063  0.0045
27058W        W45262  14.330  11.486  12.493 -0.1333 -0.2589 -0.1381
27059W        W45263   5.533   4.931   0.282 -0.2266 -0.0025  0.0062
27060W        W45264   2.798   8.000  11.647 -0.0135  0.1568  0.1748
27061W        W45265   3.583   6.914   1.587 -0.2990  0.1617  0.0726
27062W        W45266   6.981  11.409  13.708  0.1217  0.3957  0.0344
27063W        W45267   6.574  13.072  12.134  0.1588 -0.0028  0.0111
27064W        W45268   9.983  14.424  17.166  0.1496  0.0384 -0.0855
27065W        W45269  13.755  15.546   3.550 -0.1177 -0.0482  0.0626
27066W        W45270  12.642  14.225  16.829  0.1419  0.2413  0.0656
27067W        W45271   5.325   0.259  15.209  0.0360  0.0654  0.1156
27068W        W45272  17.290   8.881   3.778 -0.1959 -0.1226 -0.3435
27069W        W45273  12.909   0.925   4.542  0.0115  0.1357  0.0179
27070W        W45274   6.289  16.668  13.383 -0.3859 -0.3049  0.3584
27071W        W45275  15.005  12.383   4.023 -0.1718  0.3603  0.0672
27072W        W45276  15.883  15.827  13.521  0.1507  0.0962  0.1268
27073W        W45277   8.475  15.254  13.193  0.3022  0.4158  0.0620
27074W        W45278   0.874  14.069  12.297 -0.0222 -0.5085 -0.1734
27075W        W45279   7.041   0.615   4.958 -0.1146 -0.1682  0.0179
27076W        W45280   5.004  15.629   1.157  0.2232  0.2336 -0.1833
27077W        W45281   6.477   0.921   2.085  0.1671  0.0863  0.2587
27078W        W45282   4.639  12.064   3.924 -0.1559 -0.1918 -0.0957
27079W        W45283  10.096   5.370  16.266  0.1745  0.3271 -0.2383
27080W        W45284   1.349   9.172   1.888  0.0781 -0.1503  0.0766
27081W        W45285  15.055   7.563  17.272  0.1384  0.1519 -0.0750
27082W        W45286   7.092   0.785  13.936  0.0285  0.1802 -0.0881
27083W        W45287  13.844   7.817   2.933  0.1437  0.0537 -0.2914
27084W        W45288   3.972   8.440  14.640  0.1404  0.3858 -0.0339
27085W        W45289  15.834   2.508   0.676  0.0376  0.0003  0.0859
27086W        W45290   3.109   4.842   4.804  0.0156  0.1470  0.2834
27087W        W45291  11.426  11.577  12.809 -0.2098  0.1658 -0.2263
27088W        W45292   5.887  10.895   5.031  0.1217 -0.3441  0.0242
27089W        W45293   9.861   9.843  12.441  0.1358  0.1356  0.2122
27090W        W45294   4.455   0.475  14.382 -0.2283 -0.1584  0.0787
27091W        W45295   3.766  15.565   1.948 -0.2920  0.1638 -0.1560
27092W        W45296  13.861  16.520   2.952  0.3720 -0.1205 -0.0698
27093W        W45297   0.603  12.061   1.113 -0.1167 -0.1258 -0.1167
27094W        W45298   8.330  10.620  16.612 -0.0649 -0.1915  0.2363
27095W        W45299   2.946   3.368  12.810 -0.1205  0.0402 -0.0561
27096W        W45300   6.906   4.233  13.933 -0.2873 -0.2302  0.0608
27097W        W45301  16.886  15.507   4.971  0.2544 -0.0378 -0.3462
27098W        W45302   6.016   1.114   0.775  0.2631  0.0383  0.1575
27099W        W45303  13.821   9.446   5.399  0.0822  0.1920  0.2863
27100W        W45304   3.463   3.597   4.408  0.0646  0.0428  0.1564
27101W        W45305   5.174   3.063   1.854 -0.0645 -0.2344 -0.0682
27102W        W45306  13.614   8.148   5.140  0.1556  0.0810  0.0762
27103W        W45307  14.136   4.526  16.669 -0.1627 -0.0575  0.0179
27104W        W45308   8.696  10.846  15.828 -0.0101  0.1892  0.2028
27105W        W45309  12.346  11.235   2.735  0.0377 -0.0469  0.0291
27106W        W45310  15.562  12.760   1.905  0.0293  0.4037 -0.1899
27107W        W45311   6.866   5.729  12.577  0.0096 -0.0165 -0.1932
27108W        W45312   3.314   0.450  15.481  0.0477  0.0469 -0.3758
27109W        W45313  16.519  14.844   1.256  0.1621  0.1181 -0.1797
27110W        W45314   8.988   2.333   4.904 -0.0344 -0.0249 -0.1530
27111W        W45315   2.783   0.505  17.265 -0.0246  0.2596  0.0046
27112W        W45316   3.752   6.333   3.716 -0.1290  0.5976 -0.1035
27113W        W45317   4.184   8.652  16.577 -0.2390  0.0171 -0.1027
27114W        W45318   8.413  10.790  13.004 -0.0211  0.0074 -0.2159
27115W        W45319   2.691   4.439   1.265 -0.0085  0.0366  0.0813
27116W        W45320   9.202   8.985  16.348 -0.0653  0.1779 -0.0997
27117W        W45321   8.921  10.786   6.596  0.2805 -0.2338  0.0418
27118W        W45322   6.255  15.323   3.436  0.2575  0.2036 -0.1958
27119W        W45323  16.140   9.924   4.138 -0.1940 -0.1281  0.0246
27120W        W45324   8.436  11.302   6.498  0.2915  0.0831 -0.2085
27121W        W45325   4.112   4.068   1.093 -0.3165  0.0446 -0.0220
27122W        W45326   3.537  17.123  14.595 -0.3975 -0.1779 -0.0483
27123W        W45327  14.128  14.510   0.318 -0.0867  0.0011  0.0781
27124W        W45328   3.955   6.955  14.890 -0.0480 -0.1095  0.1849
27125W        W45329   7.551   6.875   2.750  0.0325 -0.2383  0.3174
27126W        W45330   5.198   7.648   3.876 -0.3505  0.1658  0.2097
27127W        W45331   1.428   5.662   4.495  0.0628  0.1382 -0.2243
27128W        W45332  16.123   8.928   0.133  0.0164  0.0335 -0.2444
27129W        W45333   1.693   0.409  16.471 -0.1882 -0.1390  0.1575
27130W        W45334  12.934  10.829  15.715  0.3770  0.2646 -0.1810
27131W        W45335   4.934  12.834   4.183 -0.0246 -0.0692 -0.0278
27132W        W45336  13.530  16.627   5.445 -0.0507 -0.2101  0.0750
27133W        W45337   2.973   6.184  14.721  0.0350 -0.2625  0.0662
27134W        W45338   2.874   6.869   0.094  0.2331  0.3809 -0.4074
27135W        W45339   4.859  16.348   2.925  0.0262  0.1772  0.0068
27136W        W45340  14.221   1.787  13.183  0.2576  0.0748 -0.0656
27137W        W45341  13.282   8.943   5.077 -0.1119 -0.1296 -0.0441
27138W        W45342   1.125   2.703   4.365  0.1222  0.3793  0.0812
27139W        W45343   8.381   0.523  16.006 -0.7403  0.1768 -0.0020
27140W        W45344   2.063  16.532   2.257  0.0386  0.3447 -0.1815
27141W        W45345  14.286  14.958  14.730 -0.3424 -0.3961  0.1201
27142W        W45346  12.144   0.685  17.161 -0.0890  0.0314 -0.2403
27143W        W45347   4.702  16.047  15.431  0.0703 -0.1693 -0.0630
27144W        W45348   7.117   3.505   5.159 -0.1329 -0.1152  0.1079
27145W        W45349   1.454  14.256   2.226 -0.2154  0.2852 -0.0201
27146W        W45350  16.613  10.121   4.295 -0.0963 -0.1801  0.0747
27147W        W45351   8.478   2.621  12.879  0.2134 -0.0470 -0.2609
27148W        W45352   3.356   2.260   2.118  0.0024 -0.2454  0.2707
27149W        W45353  14.733   8.286   2.569  0.0623  0.0486  0.1161
27150W        W45354   6.423  10.541  14.117  0.2358 -0.0114  0.3011
27151W        W45355  17.298  13.074   5.445  0.0866  0.1227  0.1381
27152W        W45356   0.788  10.100   3.003  0.3346  0.2642  0.1620
27153W        W45357  11.266   3.099  14.503  0.1442  0.0648 -0.0563
27154W        W45358   6.189   7.396   0.303 -0.0228 -0.1794  0.1822
27155W        W45359  10.562   0.938   5.333  0.0529 -0.1466  0.2100
27156W        W45360  13.694  14.786  14.722 -0.1011 -0.0874  0.2296
27157W        W45361   2.075  13.676   4.508 -0.1379 -0.2412 -0.1532
27158W        W45362   2.771   9.086   2.508 -0.0474 -0.0173  0.2197
27159W        W45363  15.462   7.285  17.188  0.2550  0.2846 -0.1484
27160W        W45364  11.248  11.052   0.258  0.0468 -0.0942 -0.0460
27161W        W45365   7.384  14.954   1.128 -0.1804  0.0108 -0.2337
27162W        W45366  11.115  11.528   3.952  0.0038 -0.0108  0.2468
27163W        W45367   5.021   0.159   0.799 -0.0175 -0.1484  0.1095
27164W        W45368  11.206  12.202   0.198 -0.0750  0.2241 -0.0211
27165W        W45369  10.427  14.665  15.278  0.1221 -0.0044  0.3324
27166W        W45370   8.113   3.140   5.538 -0.4831 -0.0638  0.0025
27167W        W45371   7.081   7.439   0.312  0.0652 -0.0089 -0.0402
27168W        W45372   0.969   1.306  14.172  0.0495  0.2954 -0.1329
27169W        W45373   2.686   9.690  12.819 -0.2999 -0.0548 -0.0091
27170W        W45374  16.857  12.618  15.713 -0.0201 -0.0115 -0.1414
27171W        W45375   8.492  11.803   5.205  0.0042  0.2137  0.0774
27172W        W45376   0.453   8.465   0.366 -0.1297  0.2056  0.3100
27173W        W45377   0.328   8.390  12.370  0.2091 -0.2340 -0.0191
27174W        W45378  13.710   4.494  16.231  0.1146 -0.1437  0.1273
27175W        W45379  16.743   5.372   0.821 -0.0466  0.1272  0.0103
27176W        W45380  13.069   9.544  17.089  0.3694 -0.0342 -0.0025
27177W        W45381   5.831   7.978  16.202  0.1725 -0.0422  0.2544
27178W        W45382  16.532   0.439  13.041 -0.2042  0.2505  0.1117
27179W        W45383   8.380   1.513   2.466  0.2310  0.1608 -0.0626
27180W        W45384  14.004   7.920   0.663  0.0560 -0.0292 -0.0422
27181W        W45385   8.926   1.185  15.105 -0.2230 -0.0426 -0.1067
27182W        W45386  13.201  16.435  16.727  0.0866 -0.2169  0.2675
27183W        W45387  11.562   1.749   1.868 -0.4278 -0.0550 -0.0258
27184W        W45388   2.661   2.583  12.159 -0.0137  0.2791 -0.1927
27185W        W45389   7.182  16.223  15.871  0.0958 -0.3500  0.1666
27186W        W45390   5.275  13.512  15.352 -0.3375  0.4200  0.2286
27187W        W45391  13.482   7.062   2.333 -0.0240 -0.2825 -0.1166
27188W        W45392   2.482  16.791   5.532  0.1281 -0.1621 -0.0848
27189W        W45393  10.354  10.255  16.519 -0.1882  0.0839  0.1940
27190W        W45394   3.417   6.069   1.267  0.2817  0.2020 -0.0885
27191W        W45395  16.314   6.861  17.237 -0.0964  0.1769 -0.0131
27192W        W45396   1.187   3.056  15.261 -0.0020 -0.0278 -0.0140
27193W        W45397   4.259  12.157   5.333  0.0875  0.2124  0.1652
27194W        W45398   8.395  14.461  16.453  0.4624  0.1244  0.0365
27195W        W45399  12.684   4.956  12.005  0.1831 -0.1361 -0.1389
27196W        W45400  13.477   8.930  13.414 -0.0404 -0.2877  0.1241
27197W        W45401  10.354  11.653  17.159 -0.1628  0.2881  0.3258
27198W        W45402   7.946   8.231  14.852  0.0922 -0.1798  0.0204
27199W        W45403   7.304   5.078   2.011 -0.0532 -0.0377 -0.3045
27200W        W45404   9.258  11.735   2.968 -0.0095  0.2060  0.4010
27201W        W45405   5.835   4.779   3.026  0.0243  0.1695  0.0470
27202W        W45406  13.729   7.249  13.440 -0.1234  0.0496  0.0878
27203W        W45407  12.560   3.535  15.857  0.0155 -0.2623  0.3265
27204W        W45408   6.514   4.564  13.182  0.0591 -0.0957  0.1411
27205W        W45409  15.859   3.364   4.514 -0.1340 -0.0380 -0.1774
27206W        W45410   1.784   4.721   0.907  0.0433 -0.5422  0.3259
27207W        W45411   1.633   8.377   1.682  0.1492  0.0508 -0.1014
27208W        W45412  16.840  15.660   1.533 -0.1367  0.0109  0.2073
27209W        W45413  12.676   5.821  16.045  0.0677  0.1062  0.1056
27210W        W45414   4.358   3.802   0.569  0.3075 -0.1003 -0.1270
27211W        W45415   7.196  11.696  12.198  0.1650  0.1907  0.0712
27212W        W45416  15.499  14.070   4.503  0.1471  0.0151  0.4479
27213W        W45417   7.499  13.626   0.981 -0.2126 -0.3773  0.1326
27214W        W45418  16.308   7.600  14.428  0.0254  0.0130  0.1024
27215W        W45419  12.410   0.457   3.931 -0.0360 -0.1062 -0.0571
27216W        W45420  13.461   1.468  15.565 -0.1305  0.3199  0.1791
27217W        W45421  11.861   2.097   4.016  0.4540  0.1693  0.0434
27218W        W45422  10.564   3.438  16.511  0.1466  0.0160 -0.1795
27219W        W45423  16.290   3.768  14.811 -0.0536  0.0486  0.0954
27220W        W45424   2.791   4.450  15.664  0.0077 -0.3112  0.1425
27221W        W45425   8.889   9.554   1.013 -0.2476 -0.1655  0.1091
27222W        W45426  17.059  10.930  15.014  0.2636 -0.2058 -0.1444
27223W        W45427   0.127   2.357   0.880 -0.1577  0.2451 -0.1124
27224W        W45428  14.373  16.529   1.969  0.0242 -0.0172 -0.0804
27225W        W45429  11.804   0.529  15.569 -0.0083 -0.0141  0.2508
27226W        W45430  17.205  14.519   3.549  0.0108 -0.0843 -0.1609
27227W        W45431   7.386   0.756   1.779 -0.1312 -0.0422  0.2378
27228W        W45432   7.821  12.654  14.269 -0.1472 -0.0538 -0.0861
27229W        W45433   4.625  13.260  16.356  0.2060 -0.1833 -0.4094
27230W        W45434  11.741   7.745   4.054  0.0150  0.1001  0.1681
27231W        W45435   5.165  10.191  16.692 -0.0809 -0.1276 -0.2813
27232W        W45436   9.191   4.788  13.225 -0.0840  0.1286 -0.2894
27233W        W45437  11.114  11.574  14.253 -0.1646  0.1639 -0.1478
27234W        W45438   8.489   4.493   2.295  0.2764 -0.0905  0.2378
27235W        W45439   9.563   5.180   0.594  0.0330 -0.1090 -0.0820
27236W        W45440   0.989   5.951   0.332  0.0524  0.0133 -0.1279
27237W        W45441  14.526   8.190   0.385 -0.0967 -0.1110  0.0312
27238W        W45442   7.134   5.251   1.531  0.1447 -0.1812 -0.0724
27239W        W45443   2.014   4.655  11.921 -0.1010 -0.0132  0.1605
27240W        W45444  16.156  13.429  13.299  0.3176 -0.2962  0.0989
27241W        W45445   2.493   4.224  14.239 -0.2326 -0.2933  0.0519
27242W        W45446  16.593  16.616  17.488 -0.1720  0.1566 -0.0063
27243W        W45447  13.976   7.075   0.482  0.0706 -0.0190 -0.1124
27244W        W45448   5.296  15.933  14.144 -0.0991 -0.0939  0.1379
27245W        W45449  15.481   5.085  14.316  0.0615  0.1918 -0.3962
27246W        W45450  16.587  10.547   4.025 -0.1771  0.2614 -0.3129
27247W        W45451  10.353  15.791  15.993 -0.1336  0.2050  0.1293
27248W        W45452   9.915  11.497  12.014 -0.2790 -0.1140 -0.2717
27249W        W45453   6.610  15.009   4.911  0.0605  0.1854 -0.2055
27250W        W45454  12.631   2.266   1.759 -0.1295  0.2159 -0.1164
27251W        W45455   1.442   5.708   1.875 -0.3359 -0.1068  0.0762
27252W        W45456   0.609   3.694   5.173  0.0517 -0.2775  0.0135
27253W        W45457  16.120  13.445  17.164  0.0406  0.1301  0.1678
27254W        W45458   0.343  12.560  16.545  0.1036  0.1674 -0.1581
27255W        W45459   6.519   5.011   1.308 -0.2912 -0.0549 -0.4724
27256W        W45460  10.504  16.606  15.235  0.0457 -0.1108 -0.2376
27257W        W45461   8.316   8.173   3.293 -0.1079 -0.1804 -0.0010
27258W        W45462   1.120   9.733   3.099 -0.1669 -0.2481 -0.0876
27259W        W45463   7.766   6.637  12.517 -0.1294 -0.0166  0.0301
27260W        W45464   6.989   5.296  15.495  0.2086 -0.1850 -0.0180
27261W        W45465   6.020   8.245  12.967  0.1424 -0.1294 -0.0808
27262W        W45466  12.735  11.405  12.417 -0.0980  0.2640 -0.1635
27263W        W45467  11.932   4.274  13.227 -0.0830  0.0559 -0.1275
27264W        W45468  14.422   4.358  15.727  0.2252 -0.5009  0.2962
27265W        W45469  10.011   1.214   1.207 -0.1670 -0.1460 -0.0881
27266W        W45470   9.217   6.796   2.545 -0.2513  0.0082 -0.0705
27267W        W45471  11.478   3.098   1.821 -0.1242 -0.0265 -0.2308
27268W        W45472   5.720   5.215  14.921 -0.3080  0.1359 -0.1996
27269W        W45473   9.516   8.046  16.823 -0.1217 -0.0448  0.0852
27270W        W45474  15.061   8.793  16.872  0.1141  0.0465 -0.1297
27271W        W45475   9.969   9.070  13.691  0.1338 -0.2926 -0.1986
27272W        W45476   1.748   0.374   1.660  0.2660 -0.0805  0.0144
27273W        W45477   2.413   1.771  14.833  0.0966  0.5959  0.0997
27274W        W45478   7.553  16.126  15.552 -0.0359  0.0994  0.0061
27275W        W45479   8.251  13.482  16.090 -0.0748  0.1548  0.1155
27276W        W45480   6.258  13.409  15.183  0.0155  0.2063 -0.1111
27277W        W45481  16.100   0.964  13.943 -0.2327 -0.0913  0.1152
27278W        W45482   5.117  16.974   0.810 -0.0761  0.1553  0.1025
27279W        W45483  13.881   3.178  12.721  0.2850  0.0850  0.2435
27280W        W45484   4.207  16.904  15.059 -0.0195 -0.3098  0.0634
27281W        W45485   9.918  15.292   0.217  0.1724 -0.0564  0.0137
27282W        W45486   3.646  14.965  12.424 -0.1458  0.1189  0.1599
27283W        W45487   9.559   7.668  17.174  0.1097  0.2603  0.2936
27284W        W45488   4.098   6.562  12.523 -0.0664  0.4500 -0.1282
27285W        W45489   2.341  11.057  13.417  0.0263 -0.1942 -0.1833
27286W        W45490  12.210   8.383   4.383  0.2022 -0.0833  0.1263
27287W        W45491   8.006   1.382  12.571  0.0232 -0.1998 -0.0055
27288W        W45492   2.912  15.896  14.357  0.1211  0.1077 -0.3679
27289W        W45493   6.038  15.815  12.972 -0.1843 -0.2231  0.1413
27290W        W45494  13.988  14.467  16.832  0.1222 -0.1228  0.2119
27291W        W45495  15.000   9.310   1.654  0.0409  0.0108 -0.1353
27292W        W45496   7.850  13.674   2.727  0.0748  0.1259  0.3537
27293W        W45497   3.317  15.694   2.381 -0.3451  0.3120 -0.1121
27294W        W45498   5.825   9.528   1.419 -0.2778  0.1420 -0.1022
27295W        W45499   3.572  11.682  16.897  0.1852  0.0602 -0.0411
27296W        W45500  11.940  11.579  17.486 -0.3757 -0.1442 -0.0276
27297W        W45501  16.479   9.388   4.202  0.1118  0.0672  0.0215
27298W        W45502  16.591   5.440  14.053  0.2230  0.2090 -0.1390
27299W        W45503   1.574   2.707   1.249  0.1748  0.2799  0.2016
27300W        W45504   7.061   0.810  15.710 -0.0522 -0.1159 -0.2382
27301W        W45505  11.390  13.982  14.156  0.0970 -0.3579  0.0390
27302W        W45506   4.267   2.801  15.660 -0.0488 -0.2080 -0.1789
27303W        W45507  12.438  14.964   1.638 -0.3668 -0.2609  0.1166
27304W        W45508   5.022  14.418   4.738 -0.3015  0.1923  0.0879
27305W        W45509  15.892   7.351   3.091  0.0713  0.2407 -0.1579
27306W        W45510  16.661  13.482  14.722  0.2175 -0.1985 -0.2616
27307W        W45511   9.214   0.232   2.911  0.0922  0.0236 -0.1227
27308W        W45512   9.923  12.886  13.806 -0.0861 -0.2923 -0.0198
27309W        W45513   6.946  15.614  16.358  0.0852 -0.0676 -0.1700
27310W        W45514  10.157  16.223   3.073 -0.1731 -0.0530 -0.2640
27311W        W45515  12.852  11.266  13.762  0.2435  0.1992 -0.0055
27312W        W45516  17.007  16.381   4.419  0.0994 -0.1028  0.1376
27313W        W45517  13.843  12.569  11.513 -0.1142  0.0506  0.0312
27314W        W45518   4.849  16.041   5.127 -0.1785 -0.1124 -0.0904
27315W        W45519  17.205  12.228   2.934  0.0968  0.1716  0.2719
27316W        W45520   7.293  12.223   2.738 -0.0119  0.0913 -0.2120
27317W        W45521  14.185  12.577   3.746 -0.1162 -0.2295 -0.0382
27318W        W45522   2.945   0.178   1.348 -0.0875 -0.0327 -0.4683
27319W        W45523   5.619   2.058  15.532 -0.0309  0.2771  0.1061
27320W        W45524  15.576   0.777  16.609 -0.1537  0.4304 -0.0236
27321W        W45525  12.726  17.240  12.565 -0.0482 -0.1047  0.2927
27322W        W45526   6.847  15.475   2.130  0.1618  0.0266 -0.2499
27323W        W45527  16.964  14.500  14.080 -0.0155  0.1265  0.0723
27324W        W45528  12.898  14.024   4.902  0.1623  0.3848  0.0900
27325W        W45529  15.014  10.531   4.973 -0.0236  0.0524 -0.1214
27326W        W45530   3.642  15.820   3.545  0.0896  0.1701  0.1697
27327W        W45531   5.716   1.526   2.331 -0.1200  0.1935  0.0344
27328W        W45532  11.345   0.527  14.244 -0.0245  0.1434  0.1272
27329W        W45533  11.713   3.305  11.831 -0.0599  0.1730 -0.3970
27330W        W45534   0.006  14.558   4.865 -0.0171  0.0357  0.2065
27331W        W45535   4.296  15.973   5.024 -0.1911 -0.1306  0.0067
27332W        W45536  14.709   2.127  12.627  0.2296 -0.0227 -0.0036
27333W        W45537   1.246  13.473  13.519 -0.0421 -0.1365 -0.1614
27334W        W45538  14.735   7.568  15.682  0.1895 -0.1148 -0.0057
27335W        W45539  15.064  15.498  15.006 -0.1346 -0.0195 -0.1908
27336W        W45540  16.837  16.391   3.953 -0.1178 -0.0702 -0.1405
27337W        W45541   4.203   0.507   4.865  0.1284 -0.0380 -0.1155
27338W        W45542   7.643  16.670   2.737 -0.1243  0.0619  0.3840
27339W        W45543   4.373   8.750   3.607  0.0391 -0.0219 -0.2321
27340W        W45544  17.001   8.998  13.227 -0.0604 -0.2586 -0.2126
27341W        W45545   4.029  12.574   1.724 -0.0934 -0.0270 -0.1825
27342W        W45546   4.972  16.191   5.585  0.0609 -0.0882 -0.3467
27343W        W45547   4.017  15.535   0.257 -0.0736 -0.1183 -0.0375
27344W        W45548   8.364   1.343   5.366 -0.0643  0.0583  0.2249
27345W        W45549   8.491  13.077   0.217 -0.0945  0.0589 -0.0227
27346W        W45550   2.522   7.228  12.296  0.3228 -0.2689  0.2145
27347W        W45551  10.848  15.739  14.723  0.1184  0.0485  0.1374
27348W        W45552   3.823  14.863   4.070  0.3090  0.3352 -0.1860
27349W        W45553  15.902  10.846  12.878 -0.0359 -0.1807  0.3182
27350W        W45554  12.128   0.218   1.875  0.3467 -0.1055  0.3345
27351W        W45555   7.600   2.131  17.207 -0.0346  0.1790  0.1922
27352W        W45556   7.497  12.744   2.817  0.0538 -0.2146 -0.1525
27353W        W45557  14.202   0.202  12.413 -0.0389 -0.0602  0.1807
27354W        W45558   0.840   1.825  13.188  0.2269 -0.1269 -0.1075
27355W        W45559   4.947  10.543   2.247 -0.2305 -0.0355  0.0906
27356W        W45560   2.905   2.016   4.585 -0.3095 -0.2317  0.2537
27357W        W45561   4.904   7.972  15.615  0.2773  0.1682 -0.0158
27358W        W45562   4.749   4.911  12.467 -0.1784 -0.1384 -0.0265
27359W        W45563  13.160   6.344   1.900  0.0072 -0.0036  0.2497
27360W        W45564   5.180  14.411  16.968 -0.0522  0.0928 -0.1067
27361W        W45565   6.181   5.869  13.282  0.0668  0.1270 -0.2039
27362W        W45566   1.763   3.664   3.580 -0.1253 -0.3291 -0.0626
27363W        W45567   6.838   6.912   1.278 -0.0198  0.0921 -0.2664
27364W        W45568  14.003   4.752   2.216  0.0437  0.0691 -0.0271
27365W        W45569  17.101  14.963  12.862 -0.1533 -0.0976 -0.0045
27366W        W45570   8.566   0.752   3.564  0.0725  0.3740  0.1963
27367W        W45571  15.925  11.915   1.714  0.1465 -0.0289  0.1252
27368W        W45572   7.521  13.902  16.635 -0.0303 -0.0821  0.1697
27369W        W45573   3.779   9.605  12.932 -0.0337 -0.2440 -0.1144
27370W        W45574   8.955   3.537   3.032 -0.1397 -0.1561 -0.0692
27371W        W45575   3.946  13.900  17.336 -0.0370 -0.0166  0.1887
27372W        W45576  15.804  13.227  15.768  0.0539  0.2508 -0.0343
27373W        W45577  16.544  13.446   5.233 -0.0025  0.1179  0.2822
27374W        W45578   7.896  12.313  16.199  0.2385 -0.0233 -0.0523
27375W        W45579  12.910   2.793   2.183  0.1347 -0.0839  0.0779
27376W        W45580  12.071  13.109  12.015  0.0255 -0.0994  0.1437
27377W        W45581   1.748  13.477   3.029  0.1227 -0.0760  0.0838
27378W        W45582  16.341   3.573   4.604  0.0636 -0.1561 -0.0576
27379W        W45583   0.941  16.891  15.978  0.0502  0.0817 -0.1950
27380W        W45584  14.362   7.091   1.869  0.0305 -0.1138 -0.0378
27381W        W45585   2.242   1.699  12.313  0.0591 -0.0861 -0.0009
27382W        W45586   9.937   5.192  12.869  0.1661  0.1236  0.0076
27383W        W45587  13.807  10.881   1.331  0.0742 -0.0925 -0.0936
27384W        W45588   5.573   4.864  15.738 -0.3186  0.1813 -0.3116
27385W        W45589   7.357  11.285   3.185  0.1164  0.0917 -0.0673
27386W        W45590  10.399   8.535   0.631  0.0260  0.0828  0.0309
27387W        W45591   6.689   7.839  14.659 -0.1269 -0.1055  0.1112
27388W        W45592  12.647   9.681  15.096 -0.0357 -0.2448 -0.0679
27389W        W45593   2.394   1.121  15.655  0.2409  0.1353 -0.2043
27390W        W45594   9.875   8.884   6.485  0.1253  0.0266  0.0490
27391W        W45595  10.497   4.828  17.436 -0.2816  0.2844 -0.0023
27392W        W45596   9.326   0.198  16.039  0.1102  0.2302  0.1832
27393W        W45597   6.022   6.502   2.608  0.0889  0.1790 -0.2771
27394W        W45598   2.007   7.419  14.161  0.0808  0.1104  0.1390
27395W        W45599   9.974   9.388  12.204  0.4788  0.0828  0.1059
27396W        W45600   5.141  15.243   0.558 -0.1160  0.1133 -0.3215
27397W        W45601   0.286  13.045  12.468  0.1985 -0.2970  0.2636
27398W        W45602   9.368   1.992  17.407  0.0685  0.0056  0.1159
27399W        W45603  13.845  13.279  16.093  0.1817 -0.2679 -0.3460
27400W        W45604  16.815   1.340   4.033  0.1044 -0.2454  0.1895
27401W        W45605   2.308   9.779  14.242  0.0513 -0.0337  0.0744
27402W        W45606   5.554  17.292   5.713  0.0524  0.0227  0.0379
27403W        W45607   5.387  13.006   4.394 -0.2068  0.0286 -0.3382
27404W        W45608   9.507   1.220  15.206 -0.1858 -0.0845  0.0737
27405W        W45609  11.884  12.926   3.815  0.1503 -0.0230  0.0864
27406W        W45610   9.706  16.084   0.105  0.0752 -0.0325  0.2155
27407W        W45611   0.287  13.107   3.091 -0.1141  0.0466  0.0858
27408W        W45612  10.699  13.952  13.383  0.0470 -0.3290 -0.2456
27409W        W45613  10.465   1.040  11.363  0.0761 -0.0545 -0.2703
27410W        W45614   0.550  11.994  12.705 -0.0091 -0.0022  0.0957
27411W        W45615   2.690   0.656   5.357  0.1941 -0.0768  0.0259
27412W        W45616  11.136  11.450   4.446 -0.0340  0.0071  0.1085
27413W        W45617   4.147   9.585  12.539 -0.0150  0.1133 -0.0318
27414W        W45618  11.034   6.727  15.509 -0.0980  0.2348  0.0711
27415W        W45619  11.625  11.189  15.131  0.2367 -0.1638 -0.1001
27416W        W45620  15.453   8.296  15.310  0.1099  0.0803  0.0070
27417W        W45621   4.887  16.249  16.334  0.0963  0.1078 -0.0346
27418W        W45622  13.295   9.556   3.642 -0.1804 -0.1133  0.1302
27419W        W45623  11.656   9.114   2.384  0.0713 -0.1053  0.2112
27420W        W45624  10.407  10.042  15.251  0.0655 -0.1377 -0.2367
27421W        W45625  15.570   7.131  14.954  0.1944 -0.0979  0.0158
27422W        W45626  16.946   2.842  12.670 -0.2088  0.0333  0.2990
27423W        W45627  12.376   7.990  15.215  0.0770 -0.4417  0.0443
27424W        W45628  15.349   5.863  16.868 -0.1260  0.1116  0.1837
27425W        W45629   7.703  14.936   3.274  0.0393  0.1082 -0.1112
27426W        W45630   7.756   4.022  16.444  0.1406 -0.1107 -0.3306
27427W        W45631   4.156   8.325   4.645 -0.0058  0.2724  0.2396
27428W        W45632   4.982   2.713  12.214 -0.0395  0.0660 -0.2860
27429W        W45633  16.759   2.018  13.271 -0.3269  0.0371 -0.0047
27430W        W45634   0.604   5.264   1.566  0.1340 -0.0057 -0.1444
27431W        W45635   9.226   6.381  12.620  0.1025  0.1927  0.0754
27432W        W45636   4.035   5.944  17.025 -0.2597 -0.0739  0.1539
27433W        W45637   2.391  15.140   3.747  0.2504 -0.0147  0.2197
27434W        W45638   7.011   2.743   1.347 -0.0734  0.1390 -0.0018
27435W        W45639   9.749  10.890   0.615  0.0050 -0.2443 -0.1221
27436W        W45640  13.022  14.259   1.761 -0.1206 -0.3712 -0.0510
27437W        W45641  14.348  10.731   5.462 -0.0888 -0.0391 -0.0214
27438W        W45642  15.533   9.223  14.995  0.0864  0.0750 -0.0657
27439W        W45643   9.505  16.038  14.906  0.1396  0.0278 -0.3245
27440W        W45644  15.230  13.124   4.478 -0.4016 -0.0802 -0.0356
27441W        W45645   3.798   8.971  14.025 -0.1058  0.0071 -0.1579
27442W        W45646  10.711   8.502  17.182 -0.2080  0.0199 -0.1770
27443W        W45647   5.577   0.280  12.784 -0.0575 -0.2566 -0.0646
27444W        W45648   6.880  17.157  13.651 -0.0158  0.0356  0.1203
27445W        W45649  13.002   1.326  13.699 -0.0301  0.0202 -0.0305
27446W        W45650   8.894  13.725   1.736  0.1163 -0.1397 -0.0139
27447W        W45651   1.305  11.344   0.303 -0.0093 -0.0785 -0.1722
27448W        W45652  13.128   2.342  12.562 -0.0369 -0.0875 -0.2600
27449W        W45653  15.450  10.173   0.630  0.1802 -0.1584  0.0772
27450W        W45654   3.234   5.744   2.703  0.1285  0.2484  0.0979
27451W        W45655  16.015  13.620   0.127  0.0015  0.1215  0.2873
27452W        W45656  12.573   7.965   3.445  0.2798 -0.0796  0.0779
27453W        W45657  15.403  15.355   1.394 -0.2590 -0.0698 -0.0181
27454W        W45658   2.799  17.088  13.544  0.0133  0.2211 -0.0549
27455W        W45659  10.741   8.919  14.559  0.0249 -0.0942  0.0763
27456W        W45660   9.153   8.353   4.926 -0.0905 -0.0678 -0.1835
27457W        W45661   1.332   3.042  13.522 -0.0864 -0.0320  0.0496
27458W        W45662  13.369   2.879  13.232  0.2766  0.2656  0.2786
27459W        W45663   4.955   4.052   1.450  0.1073 -0.0077  0.3568
27460W        W45664  17.254  10.073   3.362 -0.1948 -0.1349  0.1482
27461W        W45665   8.525  14.350   3.799  0.0046 -0.4734 -0.3310
27462W        W45666  15.389  15.489  14.637  0.0712 -0.3112  0.0252
27463W        W45667   5.029   0.268   2.164  0.1476  0.3249  0.3882
27464W        W45668  13.534   4.705   0.205 -0.0946 -0.1130  0.1768
27465W        W45669  14.524   9.228  14.070 -0.0385  0.1974 -0.2007
27466W        W45670  12.756   3.854   5.392  0.2436  0.0224 -0.0858
27467W        W45671   9.876   6.852  11.988 -0.1698  0.0265 -0.0878
27468W        W45672   1.757   2.818   4.998 -0.1613 -0.2123  0.1884
27469W        W45673   9.396   4.241  14.274 -0.1382 -0.0336  0.1659
27470W        W45674   5.379  15.178   3.129  0.0020 -0.1568  0.0536
27471W        W45675  11.705   5.345  17.248  0.0167  0.1628 -0.0643
27472W        W45676   6.164  16.737  14.151 -0.4670  0.1849  0.1559
27473W        W45677   5.143   9.025  13.985 -0.0040  0.2443  0.1411
27474W        W45678  15.371  11.590   4.244 -0.0641  0.0251 -0.2197
27475W        W45679  15.411   2.151  15.140  0.1128 -0.3959 -0.1428
27476W        W45680  12.387  11.489  16.481 -0.1447  0.0288  0.0063
27477W        W45681  15.982   8.110   1.769  0.3631 -0.2939 -0.4241
27478W        W45682   0.164  10.830  13.219  0.0086 -0.0169 -0.0575
27479W        W45683  12.639   6.230  14.257  0.1006  0.0008  0.0847
27480W        W45684  15.605  11.528   1.044  0.2313  0.1711 -0.0162
27481W        W45685   3.628  16.970  13.125  0.1161 -0.1001 -0.2799
27482W        W45686   1.591   9.197   1.111  0.0876 -0.0665  0.1935
27483W        W45687  15.887   6.607  15.748  0.1866 -0.0793  0.2651
27484W        W45688   3.045  12.626   3.014  0.0296 -0.2131 -0.1145
27485W        W45689  12.391   1.948  13.390 -0.2995 -0.2182 -0.0857
27486W        W45690  16.032  15.668  16.943 -0.2232 -0.1467  0.1181
27487W        W45691   7.345   7.033  12.584  0.0767  0.0397 -0.0960
27488W        W45692   3.831  15.837   5.230  0.1568 -0.1830  0.0592
27489W        W45693   0.148   6.454  13.501 -0.2551 -0.0680  0.4343
27490W        W45694  10.118   9.338   0.830  0.1315 -0.1367 -0.0018
27491W        W45695   6.034  15.654   2.437 -0.0133  0.1827  0.0935
27492W        W45696  16.881  15.916   4.717  0.2610  0.1780  0.2552
27493W        W45697  14.646   8.831   5.321 -0.1165 -0.1236 -0.0426
27494W        W45698  10.921  14.455  17.469  0.0706 -0.0702  0.0194
27495W        W45699   1.304  11.799   3.135  0.1807  0.1009 -0.0460
27496W        W45700   7.486  16.200  17.435  0.0007 -0.0771 -0.0323
27497W        W45701   3.567   4.579  13.003 -0.3382 -0.1260  0.2059
27498W        W45702   2.897   3.573   0.226 -0.0404  0.1906  0.0392
27499W        W45703   0.109   0.580  12.757 -0.1505 -0.3065  0.1017
27500W        W45704   8.505   7.409  10.654  0.2642  0.2258 -0.0636
27501W        W45705   3.760   5.664   3.006  0.1917  0.2154 -0.0762
27502W        W45706  13.478  15.719   2.043 -0.4318 -0.1260 -0.4082
27503W        W45707  14.512   4.123  13.003 -0.1815 -0.1542  0.0173
27504W        W45708   7.115   2.435  15.744  0.1226 -0.0902  0.0256
27505W        W45709   7.795  12.813  13.298 -0.0197 -0.4344 -0.0115
27506W        W45710   1.728   1.564  13.232 -0.0189 -0.0332  0.0299
27507W        W45711   9.073  12.192   0.843  0.0962 -0.2688 -0.1772
27508W        W45712   1.477   7.583   3.408  0.2214  0.2333 -0.3699
27509W        W45713   7.501  13.143   0.857  0.1738  0.0637  0.0800
27510W        W45714   4.074  11.861  12.387  0.4833 -0.0679 -0.2020
27511W        W45715   5.141  16.280  15.286 -0.0442  0.1632  0.1009
27512W        W45716  10.823   6.075   3.542  0.0783  0.0039 -0.2369
27513W        W45717  13.598  14.994  12.268  0.2561  0.0100 -0.2119
27514W        W45718   5.201  10.154   2.096  0.1796 -0.0614  0.1464
27515W        W45719  13.091  17.019  14.770  0.1589  0.0375  0.0232
27516W        W45720   8.531   3.353  14.649  0.3465  0.0895  0.3649
27517W        W45721   1.826   4.589  16.453  0.2171  0.0978 -0.1706
27518W        W45722   2.761   1.000   4.680 -0.0486  0.1133  0.5563
27519W        W45723   1.346  14.139   4.684 -0.1072  0.1382  0.3288
27520W        W45724  13.574   7.186  15.592  0.0769  0.2546  0.0260
27521W        W45725  17.026  16.597  12.480  0.2780 -0.0252  0.2736
27522W        W45726  11.868   6.968  13.648  0.0188 -0.1047 -0.0403
27523W        W45727  15.581  17.115  15.212 -0.1748  0.1392 -0.0707
27524W        W45728  14.885   8.946  16.038 -0.3435 -0.0456 -0.0733
27525W        W45729  10.159   2.523  15.045 -0.1768 -0.0290 -0.1293
27526W        W45730   1.480  13.507   3.498 -0.0701 -0.1841  0.2228
27527W        W45731   4.607  17.093  17.490  0.0378 -0.2340 -0.3501
27528W        W45732  10.841   5.332   2.715 -0.1888  0.1380 -0.4781
27529W        W45733  13.056   8.291   0.371  0.1028  0.1010  0.0252
27530W        W45734  14.481  15.322  13.374 -0.0035  0.1443  0.0609
27531W        W45735   6.096   0.756   1.816  0.3597 -0.0247  0.0471
27532W        W45736  11.680   7.667   0.204 -0.1864  0.1972 -0.0064
27533W        W45737   6.871  12.094  15.293  0.1415  0.3197  0.2579
27534W        W45738  16.857   5.464   4.146  0.2090  0.1716  0.1235
27535W        W45739   2.461   5.429  12.845 -0.0385  0.0627  0.2992
27536W        W45740  16.623   7.647  15.377  0.1966  0.1424  0.0056
27537W        W45741  10.077   2.476  14.152  0.3216 -0.0984 -0.2940
27538W        W45742  15.941   1.288   2.607  0.1733  0.0059  0.2344
27539W        W45743  13.645   2.903   4.129  0.0285  0.0246 -0.0492
27540W        W45744  15.124  10.377  13.645  0.0083 -0.1930 -0.0808
27541W        W45745   1.196   5.229   4.216 -0.0312 -0.1708 -0.2026
27542W        W45746   8.965  16.843   1.746  0.0269  0.2846  0.2300
27543W        W45747   5.850   1.246  16.785 -0.2534 -0.2497  0.0903
27544W        W45748  16.251   1.989   4.470 -0.0796 -0.1298 -0.0213
27545W        W45749   7.353   3.503  15.164 -0.0797  0.3605  0.2834
27546W        W45750   6.085  16.675   3.507  0.0424 -0.0197 -0.4735
27547W        W45751  16.413   8.199  12.756 -0.0371 -0.2537 -0.1397
27548W        W45752   9.864  12.415  16.725  0.0729  0.1325 -0.0836
27549W        W45753   8.386   5.130   4.275  0.3378  0.0740 -0.1794
27550W        W45754   9.846   9.944  16.494 -0.1654 -0.0032 -0.1342
27551W        W45755  16.059  11.552   0.508  0.1291  0.0334 -0.1029
27552W        W45756   1.711  16.351   3.012 -0.1210  0.2293  0.1066
27553W        W45757   3.404   9.119  16.783 -0.1025 -0.0641 -0.1535
27554W        W45758   2.320  12.093  16.096 -0.1052  0.0635  0.1855
27555W        W45759  12.842   5.571  12.188 -0.2598  0.1942 -0.0963
27556W        W45760   9.257  11.898  14.387  0.0700 -0.2363 -0.0564
27557W        W45761   2.550  16.992  15.657 -0.1393  0.4190  0.2195
27558W        W45762  16.884   8.102   6.274 -0.2002 -0.0127 -0.3429
27559W        W45763  17.143   7.434   3.711  0.1505  0.1854 -0.1454
27560W        W45764  11.723   2.941   4.299  0.0070  0.0567 -0.1207
27561W        W45765  12.748  16.258   3.426 -0.0008  0.1996 -0.1310
27562W        W45766  16.669  11.260  12.606 -0.0408 -0.0408  0.2062
27563W        W45767  15.879  12.766   3.881  0.2843  0.1422 -0.1973
27564W        W45768  15.805  13.042   2.243 -0.0688  0.1795  0.0610
27565W        W45769  10.238   0.450  17.247  0.1148  0.3984  0.0425
27566W        W45770  11.333  10.720  12.622  0.0913  0.2249 -0.0534
27567W        W45771   9.422   2.116   1.595 -0.2951  0.2030  0.0311
27568W        W45772  12.038   2.913  14.924 -0.4801  0.1075  0.1264
27569W        W45773   7.068  17.206  17.051  0.1807  0.1817  0.2270
27570W        W45774   5.368   0.133   3.607 -0.3222 -0.1442  0.0585
27571W        W45775  11.578  11.310  15.728 -0.2794  0.3310  0.3120
27572W        W45776   5.942   7.802   0.215  0.0341  0.0538  0.1163
27573W        W45777   1.156   2.315   1.010  0.4501 -0.4750 -0.2364
27574W        W45778   3.477  15.642  16.359 -0.0777  0.0597  0.1402
27575W        W45779  11.342  13.209  16.080 -0.1785  0.0588  0.0657
27576W        W45780  10.337  15.230   0.800 -0.1285  0.1101  0.1449
27577W        W45781  17.257   8.405   2.675 -0.1614  0.0157  0.1276
27578W        W45782  12.114   5.025  11.913 -0.1709 -0.1621 -0.3361
27579W        W45783  10.683   8.717  15.487 -0.2687 -0.1907 -0.1221
27580W        W45784   5.594   8.138  15.503 -0.0254  0.1174  0.0169
27581W        W45785  13.023  11.848   0.634  0.1439 -0.1789 -0.1749
27582W        W45786   6.187  11.867  12.176 -0.0270  0.1389  0.4082
27583W        W45787   2.834   3.908  13.861 -0.1697 -0.2942 -0.0227
27584W        W45788   5.309   8.946  14.497  0.1654 -0.0463 -0.5538
27585W        W45789   9.099  11.506   0.086  0.1630  0.0151 -0.0372
27586W        W45790   6.058   0.822  16.326 -0.2225 -0.3506  0.4159
27587W        W45791   0.364   7.772   5.211 -0.0080 -0.1383  0.1533
27588W        W45792   3.765  11.162  15.732  0.0301 -0.1364  0.2455
27589W        W45793   6.942  10.377   5.016 -0.1356  0.0065  0.1648
27590W        W45794   6.440   9.684   4.499  0.1268 -0.0999  0.1867
27591W        W45795   0.148  11.230  15.889 -0.1417 -0.1423 -0.0865
27592W        W45796   8.113   8.912  17.170 -0.2491 -0.1772  0.0176
27593W        W45797   1.463  10.397  15.970 -0.0012  0.1354  0.0405
27594W        W45798   6.589   3.431  14.319  0.4392 -0.2326 -0.1023
27595W        W45799   3.118  16.751   0.559 -0.1301 -0.2504 -0.0440
27596W        W45800   2.699   0.004  17.449  0.0436  0.0233 -0.0095
27597W        W45801   5.353   6.296   0.262 -0.1172  0.1172  0.2199
27598W        W45802   8.272   3.904   2.264  0.0836  0.0267 -0.0029
27599W        W45803   7.177   6.628  12.283 -0.0172 -0.0799 -0.2361
27600W        W45804   0.725   6.039   5.326 -0.0948 -0.0908 -0.0090
27601W        W45805  14.058   0.024  13.598 -0.0754 -0.1140  0.0271
27602W        W45806   3.432   6.178   0.601 -0.1984 -0.0444 -0.1458
27603W        W45807   7.969  12.960   0.556 -0.0981  0.1867 -0.0141
27604W        W45808  14.970   4.086  13.152 -0.1014  0.0288 -0.0208
27605W        W45809   0.629  11.489   2.548  0.0980  0.0055 -0.4751
27606W        W45810   5.588   6.730  14.795  0.2762 -0.0285 -0.2150
27607W        W45811  11.146  14.037  17.236 -0.3843  0.0043 -0.2274
27608W        W45812  15.130   4.089  14.931 -0.0210  0.2456  0.0292
27609W        W45813  13.886   6.044   0.546 -0.1008 -0.1885 -0.0877
27610W        W45814   4.735   3.467   4.074  0.1649  0.2234 -0.0841
27611W        W45815  11.608   9.258  17.208 -0.0615 -0.1572 -0.2514
27612W        W45816   8.694   6.432   2.753 -0.0144  0.0594  0.1849
27613W        W45817  12.344   7.402   0.622  0.0497 -0.4709 -0.2347
27614W        W45818  14.599   4.116   3.166 -0.0836 -0.0937 -0.0320
27615W        W45819  12.751  10.082  16.470 -0.1416  0.1162 -0.0417
27616W        W45820   1.998   7.788   0.223  0.1569 -0.1576 -0.1385
27617W        W45821   5.874   2.454   0.422 -0.2266 -0.1288  0.1152
27618W        W45822   9.795  12.265   2.298  0.1660 -0.1133 -0.2952
27619W        W45823  14.831   5.566   0.280  0.0969  0.1136 -0.0118
27620W        W45824   2.680   0.421  16.201 -0.0103  0.0898  0.0594
27621W        W45825   4.070   2.137   3.495  0.1461 -0.2424  0.2994
27622W        W45826   3.740  14.123  15.061 -0.0953 -0.0277 -0.2424
27623W        W45827  16.452   7.957  15.726  0.0619  0.3033 -0.3342
27624W        W45828   8.787   9.138  13.049  0.1847  0.0365 -0.0848
27625W        W45829   8.361   7.010  14.723 -0.0304 -0.2149  0.0611
27626W        W45830   1.017  15.081   0.668 -0.0746  0.1572  0.4075
27627W        W45831  16.305   0.597  14.948  0.3757  0.0889 -0.0514
27628W        W45832   7.709  15.769  15.187  0.1561 -0.2005  0.0906
27629W        W45833   6.943   4.011   4.117 -0.3643 -0.1105  0.0732
27630W        W45834   7.075   8.778   1.507 -0.2521  0.2070  0.2939
27631W        W45835   6.138   8.815  15.794  0.0585 -0.0378  0.1334
27632W        W45836   9.208   4.123  15.448 -0.2539  0.0655 -0.1864
27633W        W45837   0.732  11.488  14.501 -0.0878 -0.1080 -0.4249
27634W        W45838  11.644  14.898  16.288  0.0480 -0.0145 -0.0991
27635W        W45839  15.871  16.758   2.029 -0.1733 -0.0715  0.3217
27636W        W45840  10.386  16.013   3.731 -0.1257  0.0032  0.0692
27637W        W45841   1.263  15.697  17.499  0.0042  0.0940 -0.0699
27638W        W45842   8.565  14.320   4.833  0.2617  0.0261 -0.0300
27639W        W45843   5.259   0.133   2.595 -0.0047  0.0736 -0.0276
27640W        W45844   4.714  12.431  16.197 -0.3012 -0.0609 -0.1725
27641W        W45845   7.001  13.246  16.606 -0.0186 -0.2009  0.1518
27642W        W45846  10.022  10.718  12.686 -0.2631  0.1621  0.0216
27643W        W45847   4.706   4.692   0.939  0.0444  0.2294  0.2117
27644W        W45848  11.689   1.815  13.562  0.0117 -0.0090  0.2229
27645W        W45849  16.247  10.984   1.410 -0.2049  0.0153 -0.0426
27646W        W45850  11.963  15.114   1.443  0.0739  0.4673 -0.4999
27647W        W45851   3.078  10.912   0.378  0.3327 -0.0529 -0.1588
27648W        W45852   3.458  14.673  11.478 -0.0495  0.0576 -0.0520
27649W        W45853   1.176  12.586   0.980  0.2495  0.0843  0.1088
27650W        W45854   0.123  16.547   0.150  0.0166 -0.1272  0.1270
27651W        W45855   5.445   2.542   0.706 -0.0058  0.0993  0.0927
27652W        W45856   1.510  11.523  12.990  0.2057  0.2424  0.1813
27653W        W45857   8.278   7.098  16.244 -0.0193  0.0101 -0.0218
27654W        W45858   4.645   6.611   2.457  0.0941  0.0343  0.0134
27655W        W45859  11.935   0.863   0.186 -0.1565  0.0752  0.1502
27656W        W45860  13.173  16.475  13.907 -0.0278  0.0957 -0.1009
27657W        W45861   9.059   2.137   1.265  0.0702  0.2041 -0.0251
27658W        W45862  12.806   4.953   5.783 -0.0138  0.1061 -0.0827
27659W        W45863   9.570   8.542   1.525 -0.0958 -0.0001  0.0017
27660W        W45864   2.891   0.555   4.831  0.0015  0.0407  0.0769
27661W        W45865   7.779  15.190  16.031  0.1787 -0.1935 -0.0768
27662W        W45866  14.391   4.923   1.396 -0.3689 -0.1260 -0.2430
27663W        W45867   0.139  13.610  15.104 -0.3350  0.0930 -0.1880
27664W        W45868   6.819  10.046   0.576 -0.1293  0.1539  0.2186
27665W        W45869  10.797  13.218  14.178  0.1433 -0.4501  0.2973
27666W        W45870   2.645   2.090   0.200  0.0610 -0.0681  0.2452
27667W        W45871   2.112   4.613  17.097  0.2024 -0.0020  0.2608
27668W        W45872   8.733   3.533  13.633  0.1017 -0.1904  0.1092
27669W        W45873  16.712  11.833  13.344  0.0024  0.4071  0.3318
27670W        W45874  13.625   1.803  11.541 -0.1794 -0.0228  0.2276
27671W        W45875   0.795  11.946   4.458  0.0780 -0.0737  0.1668
27672W        W45876   4.075   9.147   0.377 -0.0305 -0.2560  0.0821
27673W        W45877   9.693  12.303  13.809 -0.2200 -0.0488  0.0201
27674W        W45878  13.948  12.693   5.374 -0.1015  0.0577  0.0391
27675W        W45879  12.613   2.245   2.860 -0.1356 -0.0124  0.1482
27676W        W45880  13.896  16.858  14.350  0.2760  0.1390 -0.3350
27677W        W45881   4.617   0.465   5.593  0.1738  0.1419 -0.0870
27678W        W45882   0.896   6.895   1.128  0.0172 -0.0207  0.0055
27679W        W45883  14.187  12.077   3.696 -0.2445  0.0456  0.0072
27680W        W45884  12.294  15.865   1.127  0.2921  0.0219  0.0265
27681W        W45885   7.521  17.241   4.823  0.0511 -0.1714 -0.0082
27682W        W45886   3.679  15.197  13.326  0.0895  0.0280  0.3734
27683W        W45887  15.468   1.049   2.478 -0.0063 -0.0347  0.0825
27684W        W45888   4.206   7.810   0.955  0.0866 -0.1887 -0.1148
27685W        W45889   2.783   3.818  14.925  0.1762  0.1871 -0.6446
27686W        W45890   4.261  11.561   4.511 -0.0256 -0.1564  0.3150
27687W        W45891   9.368  15.517   1.412  0.3420 -0.2142  0.1045
27688W        W45892  13.080   0.085  13.828 -0.0889  0.0432 -0.1553
27689W        W45893   2.522   1.070  13.548  0.1359 -0.0618  0.1303
27690W        W45894   4.643  14.945  12.150  0.0015  0.0519  0.1647
27691W        W45895  10.332  14.356   1.348  0.1334 -0.1294  0.2120
27692W        W45896  14.202   1.270   1.825  0.1623 -0.2626 -0.0312
27693W        W45897  16.125   4.196  16.714 -0.2295 -0.0764 -0.3470
27694W        W45898   3.812   4.946  13.357  0.0168  0.3197  0.1206
27695W        W45899  10.206   1.122  14.747  0.1936  0.0092 -0.2511
27696W        W45900   3.731   5.032   0.690 -0.0663  0.0923  0.0804
27697W        W45901   0.148  14.470  14.119 -0.1052  0.1310  0.1049
27698W        W45902  15.686   6.358  14.657 -0.0269  0.1833  0.1999
27699W        W45903  16.256   0.499   1.794 -0.0702  0.2988 -0.2584
27700W        W45904  13.016   1.306   3.200 -0.0427  0.2837 -0.0275
27701W        W45905   6.631   0.518  11.561 -0.1222 -0.1537  0.3212
27702W        W45906  12.777  13.611  15.135 -0.0022  0.1182 -0.0895
27703W        W45907  11.791   6.177  15.316  0.0842  0.0740 -0.6504
27704W        W45908  11.454   5.295  14.683 -0.1431  0.0076  0.0445
27705W        W45909   6.340   8.192  13.988 -0.0410 -0.1107  0.3491
27706W        W45910   2.626   1.712   2.671  0.0235  0.0878 -0.0555
27707W        W45911  14.999   2.902   3.755  0.0774 -0.1760  0.0889
27708W        W45912   2.621  11.682   4.107  0.0037  0.1035 -0.0733
27709W        W45913   5.229  13.558  13.994 -0.0724 -0.0027  0.1807
27710W        W45914   7.871  11.882  14.625 -0.2982 -0.1136 -0.1690
27711W        W45915   2.622   3.285   4.958  0.3581 -0.3675 -0.0625
27712W        W45916  12.243   8.821  14.051  0.2119 -0.1509  0.0132
27713W        W45917   6.586   9.626  16.297 -0.1133  0.1796  0.1516
27714W        W45918  16.241  12.350   1.661  0.2305 -0.1793  0.0994
27715W        W45919  14.836  16.520   1.661 -0.0750 -0.0205 -0.0957
27716W        W45920  13.190  12.807  16.949  0.0337 -0.0085 -0.1171
27717W        W45921   8.253   8.625  14.670 -0.0421  0.3615  0.3517
27718W        W45922  11.133  11.160  12.893 -0.2248  0.1602  0.0808
27719W        W45923   7.944   7.390  12.042 -0.1909  0.0868 -0.0673
27720W        W45924   1.833  16.429   4.869  0.1660  0.0242 -0.3371
27721W        W45925   2.306  11.157   1.525 -0.0304  0.1167  0.1652
27722W        W45926   3.849   8.428   2.476 -0.0976  0.0249 -0.1655
27723W        W45927   6.057  16.117  16.269 -0.1095  0.1992 -0.0357
27724W        W45928  10.558   6.686  17.079  0.1100 -0.1510  0.1525
27725W        W45929   1.683   5.891  12.335  0.1980 -0.0240  0.0534
27726W        W45930   8.329  10.309  16.041 -0.2996  0.1162  0.0065
27727W        W45931  12.460   7.785  15.674  0.0698 -0.1725  0.1637
27728W        W45932   6.539  16.300   2.228  0.3563  0.0271 -0.0643
27729W        W45933   2.512   4.549   1.725  0.2866 -0.1218  0.0597
27730W        W45934   0.643  13.027   1.825  0.0726  0.2426  0.1054
27731W        W45935  10.291   0.221  16.275 -0.0085 -0.3290  0.0477
27732W        W45936   4.706   6.108  16.352 -0.0576 -0.0541  0.3108
27733W        W45937   2.782   3.444  15.262 -0.0431  0.3567 -0.0166
27734W        W45938   8.991   5.621  12.973  0.2388  0.0281 -0.2052
27735W        W45939  16.655   8.787   4.877  0.1922  0.1435  0.3135
27736W        W45940   4.244  10.340  15.903  0.1109 -0.1890 -0.3096
27737W        W45941   1.337   1.964  13.200  0.0814  0.1735  0.3936
27738W        W45942  11.846   1.568   5.653 -0.2833 -0.3512  0.0277
27739W        W45943  15.435  12.897   1.364  0.3611  0.0167 -0.1341
27740W        W45944  11.602   0.647  16.488  0.2626 -0.0793 -0.0277
27741W        W45945  11.565  10.385   4.069 -0.2492  0.1621  0.2556
27742W        W45946   3.032   0.501  16.622 -0.0040 -0.0979 -0.0179
27743W        W45947   0.989   9.414   5.284 -0.1180 -0.0904 -0.1691
27744W        W45948   5.107   3.073   3.130  0.0898  0.0627  0.1219
27745W        W45949  14.855  17.231   4.405 -0.0022 -0.0080  0.1443
27746W        W45950   0.757  16.383  13.979  0.1815  0.4701 -0.0081
27747W        W45951  16.679   6.402   0.371  0.0708  0.2064 -0.1085
27748W        W45952   3.751   6.520  12.901 -0.4292  0.0382  0.3684
27749W        W45953   5.113   0.939  16.064 -0.0907 -0.1570 -0.2704
27750W        W45954   3.004  11.562  16.874  0.2415 -0.0700 -0.0312
27751W        W45955  15.244   2.019  15.944 -0.2121 -0.1234 -0.5095
27752W        W45956   4.468  11.117  17.357  0.0709  0.0005 -0.2221
27753W        W45957  13.819   6.681  12.319  0.2168 -0.1922  0.1864
27754W        W45958  15.411   6.186  16.270  0.0034  0.1351  0.2567
27755W        W45959  12.207   3.231   2.574  0.2250 -0.1429 -0.1513
27756W        W45960   3.185  12.052  15.247 -0.0006 -0.1680  0.2887
27757W        W45961   8.239   3.768   1.572 -0.0347  0.0251 -0.2421
27758W        W45962   7.462  15.714  11.082  0.1429 -0.2560  0.0049
27759W        W45963   4.303  16.174   3.717 -0.1508  0.0995  0.0089
27760W        W45964   5.307   8.886   2.019  0.0592 -0.2643  0.0929
27761W        W45965   7.729   2.776   5.443 -0.4113 -0.2162 -0.1361
27762W        W45966  12.820   8.595   1.933  0.0147 -0.2155  0.1259
27763W        W45967   9.089   6.005  13.872 -0.0615 -0.3016 -0.0777
27764W        W45968   4.788   3.373   2.139 -0.1022 -0.1608 -0.0757
27765W        W45969   1.097  12.204   1.809 -0.0152  0.0108  0.0159
27766W        W45970   8.529   8.172  13.185  0.0043 -0.0356 -0.0754
27767W        W45971  12.250   0.533  12.174  0.2512  0.0260  0.0763
27768W        W45972   9.740  10.738   3.484  0.0609  0.0579  0.0151
27769W        W45973   8.598   5.358  13.257 -0.0949  0.0756 -0.0121
27770W        W45974  14.240   5.558  16.721  0.1997 -0.0905 -0.3451
27771W        W45975   4.568   9.225   0.396 -0.1919  0.0597  0.3166
27772W        W45976   0.108   3.432   0.385 -0.2439  0.2007 -0.0265
27773W        W45977  16.596  16.756   4.263 -0.1186  0.3187  0.0938
27774W        W45978  16.904   4.113   3.586  0.0368 -0.1363 -0.1724
27775W        W45979   8.016   0.461   1.225  0.2331 -0.3613 -0.0001
27776W        W45980  16.316   0.968   2.578  0.1268  0.0013  0.0851
27777W        W45981   2.497   0.395   4.523  0.3256  0.1615 -0.3374
27778W        W45982   6.441  13.844  12.681  0.0735 -0.1642  0.0487
27779W        W45983   0.901  16.153   2.790  0.0357 -0.1465  0.1162
27780W        W45984  15.650  14.552  15.890  0.0916 -0.0197  0.3557
27781W        W45985  15.968  10.999   3.626  0.0320  0.1501  0.3045
27782W        W45986   9.392   6.811  11.847 -0.2469  0.1112 -0.1171
27783W        W45987  15.934   5.128   2.532  0.1732  0.1331 -0.0763
27784W        W45988  14.051   9.377   2.090 -0.1725 -0.2668  0.1437
27785W        W45989  12.241   0.963   3.338 -0.0225 -0.1361 -0.0254
27786W        W45990   1.212  15.075   2.875  0.0197  0.2256  0.1967
27787W        W45991   1.003   1.804   3.174 -0.2181 -0.3296  0.0865
27788W        W45992   1.833   5.474   2.183  0.1702 -0.0791 -0.0335
27789W        W45993  13.694  13.871  12.887  0.1187  0.0897  0.0236
27790W        W45994   4.265  11.476   0.603 -0.3536 -0.2304 -0.2645
27791W        W45995  10.272   9.856   4.937  0.0585 -0.1516  0.3444
27792W        W45996  15.323  12.556   0.652  0.2088  0.0859 -0.0794
27793W        W45997   8.613  14.080  15.046  0.1307  0.0797 -0.3375
27794W        W45998  11.822   9.009   1.100  0.2491  0.1390  0.0452
27795W        W45999   1.742  15.703   4.084 -0.4233  0.0515  0.2728
27796W        W46000   3.007   2.965  15.154  0.1765 -0.0586 -0.4397
27797W        W46001   3.856  11.378   4.043 -0.2469 -0.0094 -0.2408
27798W        W46002   2.890   8.878  14.937  0.0210  0.1278  0.0165
27799W        W46003  10.012   2.995  12.879  0.0801 -0.1268 -0.1786
27800W        W46004   5.345   7.036   2.365  0.1000 -0.1271  0.2267
27801W        W46005   3.436   1.295  13.799  0.4732  0.0695  0.0747
27802W        W46006   8.703  13.560   0.301  0.0174 -0.0324 -0.0470
27803W        W46007   8.939   3.669  14.757 -0.0055 -0.1848  0.1724
27804W        W46008   2.147   7.583   4.096  0.2520  0.2721  0.2126
27805W        W46009  13.880  14.216  13.596 -0.0669  0.0750  0.0544
27806W        W46010  15.581   0.505   2.552 -0.2879 -0.2195 -0.1999
27807W        W46011   1.290   1.004   2.279  0.0660  0.0866 -0.5502
27808W        W46012  15.870   3.119  14.568  0.0330  0.0824  0.0323
27809W        W46013   6.859  16.024   5.005  0.1526  0.0717  0.1941
27810W        W46014   4.028   5.278  14.635 -0.0724  0.0718 -0.0700
27811W        W46015   3.095   1.083  14.975  0.0219 -0.0632  0.0757
27812W        W46016  16.581  13.947  15.363 -0.1377 -0.0408 -0.0538
27813W        W46017   0.301  11.711  13.612 -0.0643  0.0485  0.3248
27814W        W46018  11.120  13.255  16.966 -0.0833 -0.2324 -0.0509
27815W        W46019   6.298   6.385  12.030 -0.0001  0.0853 -0.0054
27816W        W46020   9.238   5.175  16.559  0.0078  0.0387  0.1552
27817W        W46021  13.212   0.199   4.567 -0.2116 -0.1547  0.1578
27818W        W46022  16.563  12.999  14.767  0.0560  0.0253 -0.3721
27819W        W46023  14.911   6.195   2.640 -0.1347 -0.1476  0.0187
27820W        W46024  10.464  10.571  15.294  0.1008  0.2260  0.2033
27821W        W46025  11.723  13.875  13.567  0.0090  0.0043  0.0521
27822W        W46026   6.251  10.492   2.953  0.1555 -0.1246 -0.1069
27823W        W46027   5.805   4.489  17.189  0.2213 -0.4120 -0.1507
27824W        W46028  16.356   3.780   2.728  0.0301 -0.2458  0.1264
27825W        W46029   3.410   9.099  15.085  0.1138  0.0183  0.1744
27826W        W46030  16.338   6.781  15.050 -0.1045  0.1111 -0.4434
27827W        W46031   6.763   3.072  15.537  0.1399  0.2745 -0.3218
27828W        W46032   3.087  11.014   1.971 -0.1026 -0.0775  0.0008
27829W        W46033  16.322   6.415  16.909 -0.0450 -0.1704 -0.0041
27830W        W46034  10.071  17.164   0.982  0.0533  0.1259  0.3289
27831W        W46035   3.830  15.430   1.160 -0.0965  0.0955 -0.1999
27832W        W46036   1.957   8.654   2.014 -0.1102  0.3126 -0.1182
27833W        W46037  11.482  15.174  15.293  0.2116  0.0301 -0.0743
27834W        W46038   2.141  14.906  12.563 -0.0608  0.1322 -0.0275
27835W        W46039  12.288   9.654  12.856  0.2697  0.1005 -0.1460
27836W        W46040  10.763  13.653  15.480 -0.0570 -0.1650  0.1490
27837W        W46041   8.220   2.084   3.261  0.0333 -0.2879  0.1184
27838W        W46042   6.694  15.343  17.305 -0.1000 -0.3695 -0.0290
27839W        W46043   4.927   8.968   5.098  0.0045 -0.5308  0.2959
27840W        W46044  15.758  12.364  14.774  0.0546 -0.0267 -0.1101
27841W        W46045   0.607   4.950   2.344 -0.2994 -0.1207 -0.1047
27842W        W46046  11.614   6.340  15.773 -0.2069 -0.1036  0.1080
27843W        W46047   5.557   1.691   4.310  0.1723  0.1161 -0.2126
27844W        W46048  16.720   0.405  14.673  0.0392  0.3466  0.0314
27845W        W46049  12.496  11.634   1.231  0.0570  0.2071 -0.2568
27846W        W46050  14.342  14.578  13.176 -0.2986 -0.0257  0.0259
27847W        W46051   3.361   4.405   4.691 -0.3316  0.1946 -0.0025
27848W        W46052   7.633   1.734  14.774  0.0786  0.2401 -0.2502
27849W        W46053   7.830  13.967  13.147 -0.0380  0.1304 -0.0768
27850W        W46054   6.704  15.558   2.655 -0.0231  0.1205  0.2625
27851W        W46055  10.276  11.244   2.210 -0.0307  0.4357  0.1919
27852W        W46056   7.418   5.624  17.098  0.1534 -0.0800  0.0700
27853W        W46057   1.434  14.495  16.842  0.0713 -0.1720 -0.1246
27854W        W46058   2.013   9.456  14.537  0.2089 -0.2601  0.2863
27855W        W46059   4.066   0.789   3.163  0.1125  0.0722  0.0127
27856W        W46060   4.517   3.327  11.556 -0.0130  0.0424 -0.2386
27857W        W46061  17.105   9.945  16.768  0.1203  0.0231  0.0582
27858W        W46062  10.017  10.524  14.972 -0.1502  0.1634 -0.0473
27859W        W46063  15.573  12.421  16.344  0.0391  0.1828 -0.0129
27860W        W46064   0.093   9.743   2.524 -0.0122  0.4621 -0.1273
27861W        W46065  12.934  15.586   2.272 -0.0440 -0.1192 -0.0143
27862W        W46066   4.649   0.395  13.404 -0.1786  0.2276  0.2755
27863W        W46067  16.580   9.249   4.821 -0.0859  0.2624  0.3570
27864W        W46068  12.672   6.811   0.114  0.1147  0.3083 -0.0729
27865W        W46069  16.562  12.348  16.011  0.2059 -0.2549 -0.0373
27866W        W46070  15.631  12.726  12.736 -0.3200 -0.2386  0.1004
27867W        W46071  13.516   9.664   2.573  0.1460 -0.0876 -0.0613
27868W        W46072   3.166   3.476  16.249  0.0040 -0.1149 -0.1200
27869W        W46073   5.942   3.463   1.759 -0.4483 -0.3920 -0.0722
27870W        W46074  15.512  13.595   4.214  0.0256 -0.1387 -0.0351
27871W        W46075   1.844   0.292   5.479  0.2710  0.0264 -0.3720
27872W        W46076  10.402   8.289  14.136 -0.1569  0.2822  0.1108
27873W        W46077   6.058   5.976   2.525 -0.0673  0.1880 -0.0758
27874W        W46078  11.789   5.481  13.469 -0.1292  0.2710  0.2089
27875W        W46079  10.092   5.272   0.638  0.2206  0.0057 -0.0230
27876W        W46080   6.702  15.862  13.993  0.0634 -0.1790 -0.0925
27877W        W46081   6.642   1.743  14.692 -0.2271  0.0748  0.1092
27878W        W46082   7.966   6.745   2.023 -0.0429  0.0452 -0.1372
27879W        W46083  10.947   8.865   2.043 -0.3292 -0.1655 -0.1372
27880W        W46084   3.252   2.988  12.587  0.2642 -0.1084 -0.0134
27881W        W46085   5.984  16.172  17.148  0.0509 -0.0717 -0.1842
27882W        W46086   1.489   6.634  17.277 -0.1255 -0.2420 -0.1808
27883W        W46087  14.336   9.606  15.402  0.1773  0.1850  0.1031
27884W        W46088  16.891   4.581  12.743  0.0793  0.0164  0.3492
27885W        W46089   3.978  10.923  13.487 -0.0085  0.1873 -0.2057
27886W        W46090   5.693  15.321   3.538 -0.1289  0.0815  0.0661
27887W        W46091   6.064  12.199  17.395 -0.1673 -0.2141 -0.1974
27888W        W46092  12.307  13.603   1.947  0.0335  0.2907 -0.1700
27889W        W46093   7.580  14.742   4.976  0.1627  0.0347 -0.0096
27890W        W46094   6.898   6.008  16.121 -0.1765 -0.1406  0.0708
27891W        W46095  13.859   2.424   2.672  0.1620  0.0710  0.1800
27892W        W46096   1.709  16.663   4.373  0.0748  0.0957  0.0262
27893W        W46097  10.805   0.198   3.585 -0.1301  0.0079 -0.0126
27894W        W46098   3.351  11.349   0.488  0.0779  0.1969 -0.0976
27895W        W46099   0.141  13.622   3.455 -0.1554  0.0203 -0.1342
27896W        W46100   5.435   8.237  16.522 -0.0553  0.0982  0.2917
27897W        W46101   9.449   1.833   2.433  0.1273 -0.1919  0.1891
27898W        W46102   2.403   8.428  14.404 -0.1187 -0.0549 -0.1616
27899W        W46103   2.426   3.182  16.651  0.0980 -0.2161 -0.0289
27900W        W46104  12.549  15.962   3.755 -0.0682 -0.1238 -0.0344
27901W        W46105  15.544  16.138  13.367  0.0614 -0.0277  0.3188
27902W        W46106   4.199  16.655   2.996  0.0927  0.2069 -0.1275
27903W        W46107   1.736  16.152  12.425  0.2937  0.3110  0.2808
27904W        W46108  14.659   8.312  13.732  0.1641 -0.0843  0.0755
27905W        W46109  14.720  15.033  15.870 -0.1032 -0.2157  0.2530
27906W        W46110   8.776   7.353   1.944  0.1584  0.2897 -0.2920
27907W        W46111  10.457  11.904   3.716  0.0073 -0.1921 -0.1670
27908W        W46112   4.029  14.053   2.183  0.0869  0.1487  0.0255
27909W        W46113  13.495  16.246   1.891 -0.2161  0.0284 -0.0351
27910W        W46114   9.024  16.999   2.195  0.0030  0.2642  0.0368
27911W        W46115   5.128  10.853   4.617  0.2809  0.0435  0.1223
27912W        W46116  15.679  10.958   5.115 -0.2027 -0.2113  0.2740
27913W        W46117   8.120  10.269   2.589 -0.1939  0.0560 -0.0751
27914W        W46118  10.306   6.243  17.174  0.0659  0.0666 -0.0045
27915W        W46119   6.961   5.424  11.596  0.2663 -0.1275  0.3702
27916W        W46120  13.090   6.948   0.835 -0.3506  0.0146 -0.0679
27917W        W46121  16.536  15.341  14.062  0.2508 -0.1605  0.4589
27918W        W46122  14.531  16.391   1.024 -0.0680  0.0205  0.1108
27919W        W46123  13.839   4.154   2.824 -0.2369  0.1069 -0.1020
27920W        W46124   6.626  13.792  12.169 -0.0878  0.0167  0.1541
27921W        W46125  12.848   8.695  15.254 -0.0974 -0.3135  0.0625
27922W        W46126  16.126   3.609  14.307  0.3122 -0.1354  0.3089
27923W        W46127   8.968   7.400  13.395 -0.1814  0.1697 -0.1594
27924W        W46128   1.919   5.856   1.833 -0.2981 -0.0500  0.0482
27925W        W46129   1.126  15.647   2.646  0.0342 -0.1296  0.4684
27926W        W46130  10.486   3.611   2.329 -0.0739  0.1291 -0.4264
27927W        W46131  11.461   2.905   2.266  0.2881 -0.0597 -0.2010
27928W        W46132  12.826   1.441   2.750 -0.2219  0.2294 -0.1349
27929W        W46133   2.470   2.972  16.048 -0.2386  0.1181 -0.0604
27930W        W46134  14.748   2.986  12.375 -0.3192  0.0887  0.2460
27931W        W46135   6.948   1.129  13.458  0.0843 -0.1094  0.1882
27932W        W46136   9.760  12.204  15.413  0.1901 -0.0473 -0.0190
27933W        W46137   9.964   8.143   2.762  0.1296  0.0501  0.0515
27934W        W46138   0.726   6.409   1.029  0.3368  0.3199  0.1190
27935W        W46139   2.673   2.403   6.029  0.3482  0.0504 -0.2295
27936W        W46140   6.957   0.735  16.655 -0.1384  0.0440 -0.0660
27937W        W46141   9.141   0.692   3.736  0.1259  0.0594  0.0945
27938W        W46142   3.409   5.161  13.683  0.0593  0.0340 -0.0618
27939W        W46143  12.599   1.681  12.409  0.1912  0.0796  0.0079
27940W        W46144   3.576  15.787  15.409  0.0528 -0.0724 -0.1465
27941W        W46145  14.621  13.607   2.169 -0.1258  0.0824  0.2025
27942W        W46146  11.630  14.594  16.877 -0.1740 -0.2115 -0.1741
27943W        W46147  15.366   3.161  12.813  0.0907 -0.1746 -0.2207
27944W        W46148   7.281   3.362  13.732  0.0231 -0.2050 -0.0068
27945W        W46149  11.895   5.092  16.190  0.1260  0.1651 -0.0004
27946W        W46150   4.438   2.247  15.824  0.1589 -0.2111 -0.1089
27947W        W46151   8.879   0.976   0.577  0.0388  0.0242  0.0551
27948W        W46152   8.908  13.448  14.482 -0.0940  0.3498  0.3736
27949W        W46153  15.252   8.237  16.327 -0.0020 -0.1835  0.0496
27950W        W46154   3.395   6.674   0.882 -0.0637 -0.0036 -0.2978
27951W        W46155  16.590  12.050  13.813  0.1294  0.0701  0.0063
27952W        W46156  13.982   4.012  15.830 -0.1711  0.1126  0.2267
27953W        W46157   1.710   9.040  13.484  0.1582 -0.0177  0.3079
27954W        W46158  16.957  13.676  17.179  0.2380  0.1197  0.0949
27955W        W46159  14.105   4.796  12.448 -0.1440 -0.3364  0.2782
27956W        W46160  11.112  11.489  12.421  0.3340 -0.1401  0.0095
27957W        W46161  15.576  13.974  16.280  0.0641  0.2691 -0.0699
27958W        W46162  15.574   2.312   3.266  0.0343  0.1394 -0.1278
27959W        W46163   5.888   5.709  14.132  0.3600  0.1102 -0.1469
27960W        W46164   3.535  14.219   3.386 -0.2785  0.0490  0.2218
27961W        W46165  12.279  15.264  15.569 -0.0755 -0.0277  0.1043
27962W        W46166  13.886   6.568  16.077  0.0504  0.1995 -0.2040
27963W        W46167   9.297  11.117   3.203  0.1531  0.3025 -0.1179
27964W        W46168   8.300   2.618   3.004  0.2655  0.0859 -0.0197
27965W        W46169  11.004  13.821  12.482 -0.0507  0.0629 -0.0711
27966W        W46170  10.759   6.451  11.905 -0.0574  0.1074  0.2313
27967W        W46171   1.098   6.001  14.416 -0.2267 -0.1219 -0.1106
27968W        W46172  14.114   4.741   1.021  0.2613  0.2458 -0.1102
27969W        W46173   7.594   2.865  16.995  0.2285 -0.0905 -0.1600
27970W        W46174   3.410   2.481  17.242  0.2535 -0.0534 -0.0693
27971W        W46175   4.404  14.799  17.146  0.0237  0.2888  0.0311
27972W        W46176  12.009   9.160   5.322  0.0049  0.1536 -0.1861
27973W        W46177   4.699  14.364   2.728  0.0774 -0.1377  0.0662
27974W        W46178  15.947   5.581   3.804  0.1494 -0.1532  0.3273
27975W        W46179  16.280   2.460  13.708 -0.2119  0.0356  0.0054
27976W        W46180  13.980   0.363  16.279  0.1228  0.2400  0.1963
27977W        W46181  10.038  10.795   2.980 -0.1802 -0.2685  0.1681
27978W        W46182   0.906   9.536   1.802  0.2480 -0.0078 -0.2002
27979W        W46183  11.956   3.213  13.163  0.0891 -0.1926  0.0880
27980W        W46184   2.490  15.020  12.902  0.1668  0.1369  0.1939
27981W        W46185  13.331  16.913   3.303 -0.0880 -0.0761 -0.1492
27982W        W46186   0.822   6.876  13.417  0.0073 -0.1154 -0.0340
27983W        W46187   8.151  15.306  16.824  0.1311  0.0511  0.1025
27984W        W46188   4.538   8.385   4.354 -0.0503  0.0975  0.1813
27985W        W46189   5.398   8.858   0.856  0.1891  0.0350 -0.0278
27986W        W46190   8.188  12.623   1.193  0.0469  0.2097 -0.0642
27987W        W46191  12.705  12.322   2.320  0.0569  0.1119 -0.0044
27988W        W46192   1.436  13.551   4.583  0.1865 -0.1219 -0.1247
27989W        W46193   4.201   9.320   4.390 -0.0444 -0.1435  0.0600
27990W        W46194   9.343  11.411  12.999  0.0429  0.0451  0.3328
27991W        W46195   7.418   5.121  13.036  0.2161 -0.3372 -0.1742
27992W        W46196   4.791   9.362  16.748 -0.1876 -0.0383 -0.2322
27993W        W46197  15.815  12.664   4.781  0.1402 -0.1390 -0.3612
27994W        W46198  11.785  12.081  16.108 -0.3003 -0.2334 -0.0473
27995W        W46199   4.117  10.483  14.207  0.2169  0.1272  0.0360
27996W        W46200   3.624  15.627  13.065 -0.1265  0.0265  0.1206
27997W        W46201   3.728  14.819  12.998 -0.0461  0.0871 -0.1769
27998W        W46202  17.257   3.313   3.061 -0.3283 -0.1729 -0.0710
27999W        W46203   7.472  12.715  11.486  0.0982  0.0358  0.0851
28000W        W46204   3.431   3.240  15.893  0.1965 -0.0777  0.0336
28001W        W46205   8.694  12.285  16.523  0.1358 -0.0005 -0.2596
28002W        W46206  12.904   7.773   3.752  0.0670 -0.1073  0.1244
28003W        W46207   8.532   5.872  15.439 -0.2111 -0.2252 -0.1457
28004W        W46208  16.172   1.600   3.331 -0.0129 -0.1249 -0.1408
28005W        W46209   7.716   4.223  13.241 -0.0205  0.2387 -0.0587
28006W        W46210  12.750   7.146  13.774 -0.1464 -0.2233  0.0253
28007W        W46211   6.005   5.931   1.017  0.1987  0.0702  0.0863
28008W        W46212   6.021   0.499   4.395  0.2791 -0.4216  0.0849
28009W        W46213  17.164   8.514  15.429  0.0343 -0.0470 -0.1260
28010W        W46214   0.547  16.677  15.681  0.1209  0.3262 -0.0541
28011W        W46215  13.051   6.329  11.726 -0.0976 -0.1308  0.2042
28012W        W46216   0.140  13.892  12.043  0.1791 -0.0238 -0.0286
28013W        W46217  10.236  10.188  17.430  0.1364  0.1612  0.1128
28014W        W46218   7.976  13.877  15.859  0.1220 -0.0839  0.1448
28015W        W46219  15.649  13.617  14.810 -0.0475 -0.3243 -0.0831
28016W        W46220  13.521   0.090   3.160 -0.2405  0.0262 -0.0990
28017W        W46221   1.812  10.792  16.861 -0.1552  0.1220  0.1477
28018W        W46222   3.016   5.863  11.234  0.1219  0.1035  0.0292
28019W        W46223  11.519  12.471  16.086 -0.0150 -0.2735 -0.1055
28020W        W46224   0.883  10.571   2.842  0.3323 -0.3963  0.0711
28021W        W46225  13.254   7.231   1.861 -0.0778  0.0765 -0.0458
28022W        W46226  13.603   0.868   2.669  0.1777 -0.0126  0.0003
28023W        W46227   2.220  12.944  17.365  0.3449 -0.2482  0.1036
28024W        W46228   3.978   8.733  12.309 -0.1408  0.1082 -0.3511
28025W        W46229   9.257  13.882  15.587 -0.0123  0.0524 -0.2251
28026W        W46230  11.829  16.411   3.850  0.0539  0.0094 -0.1329
28027W        W46231  11.097   9.608   3.881  0.0007 -0.0907  0.0573
28028W        W46232   2.187   0.365  14.257 -0.0134  0.2595  0.1117
28029W        W46233   0.389   6.112  12.536  0.0469 -0.1301  0.0130
28030W        W46234   4.983   6.315   4.272 -0.1182 -0.1116  0.1799
28031W        W46235   3.195   4.227  14.838 -0.1410 -0.0563  0.1745
28032W        W46236  11.426  10.749  13.673 -0.0345 -0.1244 -0.1769
28033W        W46237  12.028  13.164   4.695  0.1298  0.0035 -0.1539
28034W        W46238   4.376   3.102  11.089 -0.1587 -0.0954  0.0437
28035W        W46239  10.967  15.563   3.546 -0.0079  0.4994 -0.3286
28036W        W46240  11.727  10.924   2.202  0.0275 -0.1203  0.2416
28037W        W46241  16.226   9.905   5.495 -0.2627 -0.1770  0.1184
28038W        W46242   3.293   8.813   1.209  0.1202  0.1186 -0.0882
28039W        W46243   7.238   1.058   4.819 -0.0094  0.1866  0.1410
28040W        W46244  15.220   6.204  12.777 -0.2188  0.0312  0.3206
28041W        W46245   7.375   9.414   2.505 -0.0650 -0.0620 -0.2295
28042W        W46246   7.981  17.093   0.598  0.2052  0.0504  0.1456
28043W        W46247   4.558   9.896  13.883  0.2360  0.1846 -0.1629
28044W        W46248   2.191   2.750  13.530 -0.0709  0.2329 -0.1169
28045W        W46249  14.215   3.292  16.328 -0.0161  0.3659 -0.1050
28046W        W46250  14.888  16.854   5.320  0.1905  0.2743 -0.0744
28047W        W46251  14.603  13.156   4.255 -0.0025  0.0518  0.1232
28048W        W46252  11.459  17.085  13.865 -0.2078  0.2168  0.2861
28049W        W46253   2.760   1.771   1.439 -0.2199 -0.2241 -0.2459
28050W        W46254   7.200   2.494  17.171  0.0471 -0.0597  0.3856
28051W        W46255  14.296   9.481   3.739 -0.0482  0.2117  0.0945
28052W        W46256   6.493   9.437  13.515 -0.1588  0.1187 -0.0270
28053W        W46257   2.337  11.819   1.170 -0.2420 -0.0523 -0.2036
28054W        W46258   5.344   7.290   2.899  0.1548 -0.0614  0.1610
28055W        W46259   9.134   9.143   2.499 -0.0837  0.1599  0.2266
28056W        W46260   1.973   6.917  12.852  0.0043  0.3979  0.1803
28057W        W46261  12.859  16.676  13.468  0.1522 -0.0464  0.0956
28058W        W46262  14.696   1.983   3.135  0.0218  0.1055 -0.0127
28059W        W46263  11.296   3.931   0.829 -0.1683  0.2432  0.3143
28060W        W46264   5.217  13.430  14.554 -0.0474 -0.0437 -0.3010
28061W        W46265  11.658   3.089  13.596 -0.0499 -0.1216  0.2586
28062W        W46266   8.068  12.370   1.893 -0.1404  0.3139  0.0982
28063W        W46267   2.426  15.166   2.231 -0.1780  0.1942  0.3228
28064W        W46268  15.407  12.617   3.888  0.0268  0.2223  0.3811
28065W        W46269   4.472   5.269  13.768  0.0627  0.3257 -0.2556
28066W        W46270   3.897   1.917  13.110  0.3994 -0.0446  0.0040
28067W        W46271  10.922   8.093  16.640  0.4398  0.3018 -0.0647
28068W        W46272   5.554  12.670   2.696 -0.3222 -0.2171 -0.4717
28069W        W46273   9.553  12.232   0.656  0.0688  0.0235 -0.0095
28070W        W46274   8.815  10.291   1.922  0.1130  0.2512  0.0265
28071W        W46275   1.783   2.016   0.143 -0.1444 -0.2575 -0.1110
28072W        W46276  11.891  11.155   0.256  0.2654  0.1380 -0.1622
28073W        W46277   3.133   7.124   0.668 -0.0401  0.0236  0.0466
28074W        W46278  15.922  11.347  13.204  0.3478 -0.1971  0.0910
28075W        W46279  16.318   8.573   0.838 -0.1618  0.2013 -0.0279
28076W        W46280   9.888  13.838   4.010 -0.3722  0.0965 -0.2045
28077W        W46281   9.098  10.629  12.312  0.0056  0.3489 -0.0408
28078W        W46282   8.293  14.831   0.962 -0.0765  0.0510 -0.0076
28079W        W46283   8.729  12.084   2.151 -0.3122  0.0776 -0.0633
28080W        W46284   1.657   0.696   0.952 -0.0373 -0.2796  0.0037
28081W        W46285   6.929  13.636  15.700  0.2237  0.1199 -0.2596
28082W        W46286  17.172   4.889  16.315 -0.2202  0.0916 -0.0562
28083W        W46287  11.156  10.577   3.824 -0.2966  0.0444  0.0249
28084W        W46288   5.059   0.581  13.785 -0.0556 -0.1581  0.1826
28085W        W46289   0.329   7.589   0.723  0.4582  0.1212 -0.2897
28086W        W46290   8.108  10.738  12.612  0.1216 -0.1024  0.1429
28087W        W46291  12.011  15.683   2.629  0.0410  0.0902 -0.2460
28088W        W46292   7.939   7.859   3.491 -0.1432 -0.1892  0.1096
28089W        W46293  12.090  10.737  16.870 -0.0540  0.0428  0.0268
28090W        W46294   4.983  15.123   5.995 -0.1853  0.0768  0.2366
28091W        W46295   6.239  11.833   0.179 -0.0727  0.0346  0.2446
28092W        W46296   7.525  10.230  15.257  0.0048  0.0083  0.0920
28093W        W46297  12.508   2.620  14.824 -0.0269  0.2117  0.1546
28094W        W46298   3.189  13.033   0.044 -0.0588  0.0398 -0.0930
28095W        W46299   2.475   2.905   0.810  0.0321  0.1406 -0.0436
28096W        W46300  13.245   4.019  13.145 -0.2303 -0.2132  0.1435
28097W        W46301  14.844  10.476   5.434  0.2064  0.1790 -0.0437
28098W        W46302  16.024  13.112  12.879 -0.0254 -0.1165  0.0372
28099W        W46303   4.005   7.514  16.516 -0.2050  0.0235  0.0809
28100W        W46304   4.909   7.029  12.509 -0.0634  0.3244 -0.2058
28101W        W46305  15.594   0.375   3.118  0.1831 -0.2720 -0.1083
28102W        W46306   0.629   9.297  16.910  0.2377 -0.0435  0.1804
28103W        W46307   0.089   2.927  12.428  0.0956 -0.1706  0.4259
28104W        W46308  14.597  10.402  17.084 -0.0667 -0.2030  0.0618
28105W        W46309   6.740   1.181  17.381  0.0947  0.2672 -0.0555
28106W        W46310  17.165   8.025   3.016  0.1085 -0.4087 -0.2381
28107W        W46311  11.176  16.111  14.916  0.1281  0.1124 -0.0146
28108W        W46312   5.098   9.221  13.165  0.0728  0.1887 -0.2864
28109W        W46313   8.085   4.344  12.435  0.2445 -0.2721  0.3074
28110W        W46314  11.510  13.473   0.913 -0.2540 -0.1387 -0.2790
28111W        W46315   8.904   8.442  15.437  0.0346  0.0734 -0.1898
28112W        W46316  13.621   7.035   3.527  0.1493 -0.1534  0.0360
28113W        W46317  16.442  13.786  16.848  0.0141 -0.1270 -0.0827
28114W        W46318   8.715   2.914   3.751  0.0191 -0.5641  0.3035
28115W        W46319   7.747   6.592  15.395  0.2451 -0.0818 -0.0660
28116W        W46320   3.051  14.450  17.451 -0.0370  0.0083  0.0565
28117W        W46321   3.062   8.465  13.416 -0.0985 -0.0980 -0.0605
28118W        W46322  15.606  17.108   1.899 -0.2231  0.0024  0.2573
28119W        W46323   2.175   7.719   1.725 -0.0617  0.1037 -0.0019
28120W        W46324   6.853  16.663  12.255 -0.1546  0.0950 -0.0816
28121W        W46325   5.846  16.487  12.385 -0.0493 -0.4389  0.0507
28122W        W46326  14.460   3.457   4.308  0.1028  0.0383 -0.0460
28123W        W46327   5.208   8.682  16.358 -0.1412 -0.1590  0.0064
28124W        W46328   4.543  12.020   2.167  0.0352 -0.1993  0.2192
28125W        W46329   0.572  11.433  13.972 -0.3089 -0.0664  0.4632
28126W        W46330   3.655   7.963   3.729 -0.0657 -0.2351 -0.0590
28127W        W46331   3.814   1.246  14.521  0.1442  0.0398  0.2224
28128W        W46332  13.859   5.390  15.906  0.1817  0.0307  0.0434
28129W        W46333   4.537   9.625   4.162 -0.0129  0.1486 -0.0290
28130W        W46334  10.359   2.813  14.412 -0.0311 -0.1818 -0.2915
28131W        W46335  13.570  12.290  13.240 -0.0908 -0.0555  0.3124
28132W        W46336  14.681   1.536   2.829  0.1621 -0.4850 -0.2838
28133W        W46337  14.677  14.187  16.599  0.0619  0.0082  0.0138
28134W        W46338  16.243   9.456  15.309  0.0051  0.2680  0.2206
28135W        W46339   6.951   0.642  17.465  0.1665  0.1949 -0.2119
28136W        W46340  10.242  16.722   2.837  0.0738  0.0940 -0.5267
28137W        W46341   9.058  11.818   4.697  0.1630  0.1712  0.0049
28138W        W46342   5.243   5.880   0.527  0.0953  0.3151 -0.2254
28139W        W46343  16.001   8.218   3.782  0.2056  0.3031 -0.0515
28140W        W46344   1.631   3.899   0.059 -0.2117 -0.3097 -0.2087
28141W        W46345   2.390  14.064  12.905  0.2059  0.0015 -0.1166
28142W        W46346  10.555   7.895  16.362 -0.3652  0.0444 -0.2514
28143W        W46347   2.399   4.333   0.410 -0.0721 -0.1020 -0.1920
28144W        W46348   9.177   2.344   0.178  0.0967 -0.0260 -0.4197
28145W        W46349  11.530   5.053   1.668  0.1817 -0.2370 -0.2978
28146W        W46350  11.381   9.531  14.240 -0.3160  0.1058  0.1373
28147W        W46351   0.956   9.609  14.451  0.0939  0.2190  0.0177
28148W        W46352   2.991   6.225   1.019  0.2179  0.0732 -0.2768
28149W        W46353   0.793   4.418  13.901 -0.1132 -0.0925  0.1454
28150W        W46354  13.148   3.281  13.640  0.3238 -0.0251 -0.2169
28151W        W46355   0.458  13.493  17.124 -0.2127 -0.3370 -0.0428
28152W        W46356  16.045  12.846   0.192  0.0591 -0.1275 -0.0743
28153W        W46357   9.390   8.681  15.817 -0.0678 -0.0069  0.0960
28154W        W46358   1.736   6.037  15.287 -0.0200  0.0045  0.0548
28155W        W46359  10.042  13.893  12.281  0.1239  0.0168  0.0333
28156W        W46360   7.325  10.302   2.182 -0.0528 -0.1972 -0.3807
28157W        W46361   7.003   9.136  14.046  0.1189 -0.1498 -0.1420
28158W        W46362  14.185  16.719  13.955 -0.1240  0.0911  0.4804
28159W        W46363   1.318  11.095  14.851 -0.1684 -0.1689  0.1034
28160W        W46364  13.054   4.205  12.625  0.0080  0.1835  0.1553
28161W        W46365   2.965  13.415  15.530  0.1124  0.4200  0.0686
28162W        W46366  11.052   0.790   5.710 -0.1753  0.1964  0.0645
28163W        W46367   2.588  15.105   1.612 -0.0118  0.0988 -0.1874
28164W        W46368  17.200   8.795  14.555  0.1557  0.0227  0.0731
28165W        W46369   4.114   4.099   3.446  0.2515 -0.1566  0.1397
28166W        W46370   9.713  11.684   4.503  0.2588 -0.1439 -0.0993
28167W        W46371   9.223  14.718   4.632 -0.0955 -0.0475  0.0776
28168W        W46372   3.469  10.680   3.482  0.1328  0.5292 -0.0940
28169W        W46373   6.889   7.983   1.935 -0.0415 -0.0271  0.0146
28170W        W46374   6.419  14.367   0.198 -0.1662  0.0755  0.3329
28171W        W46375  16.857   0.374   4.091  0.0300  0.0454 -0.0781
28172W        W46376   4.623   8.854  16.856  0.2610 -0.1478  0.1874
28173W        W46377   3.451  12.164   5.471  0.1488 -0.0288  0.2151
28174W        W46378   4.159   4.634   1.142  0.3185 -0.0141 -0.0722
28175W        W46379  12.719  16.592   3.819  0.0859  0.0715  0.0834
28176W        W46380  14.996   6.065   4.655  0.1890  0.1099 -0.2513
28177W        W46381  11.369  10.242   3.559  0.2714 -0.1900  0.0015
28178W        W46382  14.060  15.639  14.153  0.1828 -0.0611 -0.1474
28179W        W46383  14.096  17.289  13.106 -0.3136 -0.2125 -0.0243
28180W        W46384  12.186   6.412   0.271  0.1194 -0.1201 -0.4505
28181W        W46385   8.794   1.243   1.336  0.1859  0.0036 -0.1494
28182W        W46386   7.144   8.156   1.548  0.3213 -0.0003 -0.1319
28183W        W46387  10.149   5.833   4.891 -0.0052 -0.0086  0.1253
28184W        W46388   0.599   2.634  15.253 -0.1841  0.1448 -0.1691
28185W        W46389   7.925   6.216   4.469  0.2121  0.0914  0.3188
28186W        W46390  10.701  13.430  11.777 -0.2319  0.0111  0.0841
28187W        W46391  15.076  13.463   2.320 -0.0021  0.1207  0.0500
28188W        W46392   9.182  14.647   1.420 -0.1017  0.0075 -0.1948
28189W        W46393  12.374  13.463   4.047  0.0226  0.3532  0.0945
28190W        W46394   3.914   3.512   2.447  0.1303  0.0181  0.0494
28191W        W46395   1.310  11.421   4.891  0.0197 -0.0787 -0.2965
28192W        W46396  14.558  10.007   3.149  0.0911 -0.2559  0.1947
28193W        W46397   8.106   3.827  14.643 -0.0452  0.1023  0.1428
28194W        W46398   0.539   3.273   0.587  0.0170 -0.1883  0.0964
28195W        W46399   5.280   8.236   1.519  0.3789  0.1171  0.0203
28196W        W46400   4.899   5.935  13.272  0.0357  0.2629 -0.0869
28197W        W46401  16.315  11.906  16.439  0.2751  0.1218 -0.0608
28198W        W46402  15.515   6.749  17.239 -0.2221 -0.1026  0.0361
28199W        W46403   7.126  10.986   1.708 -0.0313  0.2280 -0.0456
28200W        W46404   1.879   3.055   5.789  0.0315 -0.0825 -0.0574
28201W        W46405   8.959  10.533   2.347  0.2868 -0.0601  0.4843
28202W        W46406  12.858  15.657  12.398  0.0453 -0.0197 -0.0738
28203W        W46407   8.362  11.097   0.186  0.2810  0.1078 -0.0329
28204W        W46408  14.791  12.278  14.354 -0.1030  0.3051 -0.0688
28205W        W46409  14.390   4.110  14.412 -0.0651 -0.0458  0.0645
28206W        W46410   5.715  15.690  12.584  0.2314  0.0091 -0.0487
28207W        W46411   9.975   6.768  15.384 -0.2549 -0.3255 -0.0357
28208W        W46412  11.262   0.232  13.821 -0.0863  0.2181  0.0717
28209W        W46413  12.963   3.964  11.983  0.3175  0.0358 -0.0105
28210W        W46414  14.565   5.133   2.794  0.1457  0.0817  0.0187
28211W        W46415   7.160   1.076   2.730 -0.1941 -0.3513 -0.2874
28212W        W46416   2.652   9.365   2.889  0.2527  0.2176 -0.1205
28213W        W46417  14.797   1.416  15.411 -0.0891 -0.0887 -0.0140
28214W        W46418   0.149  11.429   5.159  0.0532 -0.1797  0.0895
28215W        W46419   1.928   1.704   4.184 -0.0629  0.0724  0.2135
28216W        W46420  14.840  14.027  13.740 -0.2385  0.1379 -0.2180
28217W        W46421  13.084   1.169  15.772 -0.2623  0.2014 -0.2095
28218W        W46422   6.146   4.097  12.529  0.1218  0.1379 -0.2339
28219W        W46423   2.000  12.658   3.303  0.3372  0.0504  0.0204
28220W        W46424   5.442  11.201  13.880  0.1346 -0.0495 -0.0757
28221W        W46425   7.209   7.500  14.552  0.2899  0.0407  0.2828
28222W        W46426  16.259  16.434   2.078  0.0092  0.1846 -0.0086
28223W        W46427  16.638  14.935  12.673  0.0863 -0.1332  0.1788
28224W        W46428   3.413   1.981   5.133  0.0540 -0.0171  0.0710
28225W        W46429   4.802   3.649   0.629  0.2336  0.0078  0.1429
28226W        W46430  10.810  15.815   0.587  0.1102  0.1235  0.3346
28227W        W46431  13.522  13.945   2.534 -0.0390  0.2452  0.2317
28228W        W46432   0.798   4.242  14.717  0.0648  0.1447  0.1561
28229W        W46433  11.990  14.016  16.583 -0.2077 -0.1595 -0.0919
28230W        W46434   6.704   5.095   3.686  0.1738  0.3244  0.0101
28231W        W46435  15.995  16.856   1.104  0.0802 -0.4527 -0.0418
28232W        W46436  16.447   0.499   0.057  0.1139 -0.0223  0.2659
28233W        W46437  16.074  12.302  16.842 -0.0923 -0.2493  0.0637
28234W        W46438   6.006   5.002  17.507 -0.1024  0.2752 -0.1354
28235W        W46439  16.514  10.349   3.282  0.1581  0.0507  0.0773
28236W        W46440   6.120   4.301   0.927 -0.0318 -0.3408  0.2025
28237W        W46441  16.393   2.087   1.188 -0.3802  0.1048  0.2206
28238W        W46442   4.534   3.720   4.526  0.0121  0.1417  0.1920
28239W        W46443   5.482   1.077   3.289 -0.2682 -0.2803  0.1617
28240W        W46444   2.341  16.383  12.957 -0.1165 -0.1816 -0.0046
28241W        W46445  12.681  12.876   2.526 -0.3118 -0.0251  0.2111
28242W        W46446  12.211  12.276  14.294  0.0119 -0.0640  0.0029
28243W        W46447   9.012  16.345  14.692 -0.0200 -0.2403 -0.2509
28244W        W46448   3.989  15.296  12.910  0.1771  0.1409  0.0244
28245W        W46449   9.937   3.159   0.255 -0.0496 -0.2239 -0.0582
28246W        W46450   9.726   6.746  15.903  0.0892  0.0870  0.0624
28247W        W46451  15.332   4.077  16.955  0.0437 -0.1451  0.0816
28248W        W46452   5.413   7.536  14.920  0.0654 -0.0819  0.0126
28249W        W46453   8.396   7.652  16.121 -0.0350  0.0467 -0.0081
28250W        W46454   7.373   7.309  13.477  0.1138  0.1312  0.0018
28251W        W46455   3.900  12.449  15.573  0.3661 -0.0575  0.1329
28252W        W46456   7.901   8.720  15.078  0.2204  0.0856  0.2209
28253W        W46457  15.386  12.569   5.046  0.2971 -0.2081 -0.1811
28254W        W46458  12.732   2.106  12.190  0.0122  0.0492  0.2950
28255W        W46459   3.633  14.776   1.809 -0.1452  0.0062 -0.1963
28256W        W46460   6.952   3.399   2.195  0.0270 -0.3583 -0.0361
28257W        W46461  15.316   3.331  13.742 -0.3030 -0.0893  0.0849
28258W        W46462   4.394   6.220  16.839 -0.0235  0.1073 -0.0699
28259W        W46463  11.248   5.379   3.081  0.1194 -0.1559  0.2335
28260W        W46464  10.283  12.175   5.386 -0.1234 -0.0495  0.2932
28261W        W46465   6.191  12.424  13.065  0.0327  0.1422 -0.2345
28262W        W46466   7.315  11.184   3.992  0.0276  0.2050 -0.2191
28263W        W46467  10.552  14.471   2.195 -0.1393  0.1752  0.1511
28264W        W46468  13.535  16.405  15.478  0.0417  0.1328  0.1239
28265W        W46469  11.381   2.488   1.688  0.1771  0.2789 -0.1748
28266W        W46470   1.652   7.639  12.784 -0.0922  0.1282 -0.1778
28267W        W46471  14.440   4.051  16.192  0.0187 -0.0354 -0.1406
28268W        W46472   2.991   1.086   3.474 -0.0232 -0.1488  0.0683
28269W        W46473  12.628  12.725  16.060  0.1930 -0.0159  0.2244
28270W        W46474   5.953   7.076   2.405 -0.1068 -0.2663  0.1739
28271W        W46475  15.582   0.926   4.664 -0.1814 -0.0876  0.1518
28272W        W46476   0.792   3.171   2.776 -0.0893  0.0918 -0.0371
28273W        W46477   4.225   0.589  12.613  0.0200 -0.2752  0.0490
28274W        W46478   8.582  10.670  12.453 -0.0566  0.2717 -0.0572
28275W        W46479  14.112   5.624   0.210  0.2284 -0.0548  0.3865
28276W        W46480   1.588   3.766  15.868 -0.1303  0.0642 -0.0482
28277W        W46481  12.518  16.200   1.980 -0.1403 -0.0346 -0.0605
28278W        W46482  15.264  17.045  15.945 -0.1563  0.4119  0.0083
28279W        W46483   5.690   1.135  15.619  0.4026  0.0372  0.2708
28280W        W46484  10.089  12.866  14.558 -0.1051 -0.0723  0.3144
28281W        W46485   5.587  10.325  13.127 -0.0323 -0.0694 -0.1678
28282W        W46486   4.357  13.605   3.836  0.0337 -0.0653  0.2695
28283W        W46487   0.964   5.990   6.017 -0.0067  0.0475 -0.0841
28284W        W46488  10.485  12.281  15.350 -0.0407 -0.0575  0.2125
28285W        W46489   7.901   8.578   5.063 -0.1310 -0.1977  0.1378
28286W        W46490   2.735  14.526   2.889  0.1798  0.0061  0.2373
28287W        W46491   8.260   5.713   0.956  0.1717 -0.3105  0.0974
28288W        W46492   7.687   3.777  14.956  0.0679  0.0542 -0.0189
28289W        W46493   5.331   6.112  12.990 -0.3041 -0.2351 -0.2899
28290W        W46494  11.416   5.344  15.775 -0.1378 -0.2131 -0.0807
28291W        W46495   6.764   5.558  15.845  0.4355  0.3618  0.3382
28292W        W46496   8.379  17.020   3.709  0.3519  0.1900 -0.0476
28293W        W46497  17.148  16.283  15.774  0.1281  0.0886  0.2331
28294W        W46498  13.155  14.522  12.809  0.0635 -0.2700 -0.1153
28295W        W46499   8.616  16.736   4.042  0.2017  0.1696 -0.0900
28296W        W46500  16.201   8.213   3.157  0.2125 -0.1228  0.2742
28297W        W46501  17.191   9.307   3.996  0.1481  0.0798  0.1574
28298W        W46502   9.518  14.413  12.241 -0.3530  0.1713  0.0502
28299W        W46503   5.850   0.319  16.316 -0.3611  0.0731  0.1917
28300W        W46504  13.335   1.884  15.358  0.0215 -0.0229  0.1997
28301W        W46505   0.534   7.428  14.309  0.1363 -0.0832 -0.0980
28302W        W46506   7.906   5.298  15.101 -0.3694 -0.1973 -0.0055
28303W        W46507  11.258   1.449  15.311  0.1305  0.0778 -0.3132
28304W        W46508   7.295  10.759  13.059 -0.2377 -0.1034 -0.0332
28305W        W46509  12.199   2.998  13.567  0.5019  0.2294  0.1821
28306W        W46510   3.175  15.657  13.365 -0.0411 -0.0648  0.1385
28307W        W46511  10.950   7.974   2.428  0.3058 -0.1548 -0.1027
28308W        W46512   7.149  10.449  12.325 -0.1044 -0.0841 -0.2464
28309W        W46513   0.713   6.884   6.417  0.0106  0.1903  0.0039
28310W        W46514   9.689   4.018  12.766  0.0702 -0.2640  0.0503
28311W        W46515  13.969   7.356  13.941 -0.0098 -0.0889  0.1867
28312W        W46516  15.795   4.394  16.370 -0.0477 -0.0379 -0.2779
28313W        W46517  10.125   6.875   0.363  0.1200 -0.0851 -0.1873
28314W        W46518   9.050   3.857   5.105  0.1836  0.0185  0.1476
28315W        W46519  14.995  10.944   0.538  0.0692  0.1745 -0.0216
28316W        W46520   8.064  13.173  14.116  0.0576 -0.0317  0.0452
28317W        W46521   4.010   7.584   3.280 -0.2723  0.2797 -0.3241
28318W        W46522  16.070  16.941   4.988  0.0510 -0.2099  0.3516
28319W        W46523  12.152  14.707   3.853 -0.1503 -0.1116  0.0675
28320W        W46524   2.007  15.388  15.252  0.0277 -0.3500 -0.2606
28321W        W46525   6.006   6.417  16.001 -0.0732 -0.1707 -0.1355
28322W        W46526   8.249  13.076  15.197  0.0767  0.0972 -0.1750
28323W        W46527   5.448   0.394   0.576  0.1470 -0.0862 -0.1036
28324W        W46528   1.470   5.021   2.879 -0.1917  0.0728  0.1066
28325W        W46529  13.566   8.301   0.740 -0.1141  0.2599 -0.0485
28326W        W46530   7.323   0.500  12.690 -0.1232 -0.0070  0.1618
28327W        W46531  17.219   0.476   2.526  0.2236 -0.0571 -0.0649
28328W        W46532   1.654  13.982   1.104  0.4066  0.1542  0.0971
28329W        W46533   9.305   9.101   1.089  0.1270 -0.1590  0.0375
28330W        W46534   0.645  14.986  15.769 -0.0085  0.0783  0.2416
28331W        W46535  13.157  13.293  14.398  0.0419 -0.1903 -0.3154
28332W        W46536  12.022  10.796   1.104  0.3235 -0.0542 -0.0103
28333W        W46537  11.150  16.186   4.211 -0.0218  0.0600  0.0239
28334W        W46538   3.325   1.840   0.781 -0.1207  0.0601 -0.2994
28335W        W46539   8.575  14.388   5.416 -0.1660 -0.0950 -0.2962
28336W        W46540   2.057   6.662  15.907 -0.2138  0.3339  0.3142
28337W        W46541   3.739  10.925  17.352 -0.3236  0.4325 -0.2014
28338W        W46542   6.644  13.400   1.208 -0.0568  0.0426  0.1525
28339W        W46543  11.373  16.202   5.308  0.0455 -0.2950  0.2117
28340W        W46544  14.264  12.842  15.363 -0.0538  0.1959 -0.0833
28341W        W46545   4.975   2.051  14.146  0.2883 -0.0432 -0.2828
28342W        W46546  14.959  12.260   0.804  0.1689 -0.1606 -0.0681
28343W        W46547   0.500   0.766  16.843 -0.3237 -0.0287  0.3189
28344W        W46548   3.674  15.149  15.623  0.2722 -0.0764 -0.0848
28345W        W46549  15.439   5.174   2.435  0.1708 -0.2285  0.1049
28346W        W46550  10.468  11.077  14.633  0.0270  0.0864 -0.1052
28347W        W46551   2.972  11.814  14.851  0.0994  0.2091  0.0802
28348W        W46552   3.213   2.879  13.712 -0.1791 -0.1736  0.0390
28349W        W46553  12.971   3.643  13.950  0.1038 -0.1019 -0.0643
28350W        W46554  15.160  10.547   4.226  0.4094  0.0083  0.0989
28351W        W46555  15.642  10.585   4.345  0.0820  0.0002  0.1036
28352W        W46556   4.443  12.011   1.260  0.0316 -0.1447  0.1413
28353W        W46557   0.092   2.829   2.300  0.2236 -0.1466  0.3201
28354W        W46558  12.610   5.075   0.665  0.1051  0.1004 -0.0622
28355W        W46559   3.396  16.635  17.108  0.1674  0.0946 -0.2276
28356W        W46560  15.606   4.596  12.570 -0.0641  0.2791 -0.1434
28357W        W46561   2.447   7.638  11.556  0.1511  0.0170  0.1822
28358W        W46562   7.532   1.366  14.317  0.2776  0.3044  0.2496
28359W        W46563   4.294   8.273  13.687  0.1334  0.2385 -0.0579
28360W        W46564  13.505   1.036   4.345 -0.1301 -0.2638  0.0701
28361W        W46565   1.843   1.317  14.277  0.1884  0.2413  0.1053
28362W        W46566   6.454   4.523  14.190  0.0798  0.0548  0.2426
28363W        W46567   5.172   1.013  11.739 -0.1552  0.1793  0.3427
28364W        W46568   6.804   1.885  15.655  0.2085 -0.0762  0.2140
28365W        W46569   9.404  11.819   0.913  0.2249 -0.1001 -0.3109
28366W        W46570   9.739  13.481  12.348  0.1027  0.3581  0.1970
28367W        W46571   7.569  10.033  16.782 -0.2322  0.2010  0.0180
28368W        W46572   7.018  12.287   0.322 -0.1985 -0.2195 -0.1287
28369W        W46573  15.341   9.545   3.477  0.1173 -0.2534  0.3729
28370W        W46574  12.809   6.104  16.418 -0.2504 -0.4356  0.0271
28371W        W46575   9.662   8.500   4.485 -0.2534  0.0784 -0.1877
28372W        W46576   3.350  13.170  12.197  0.3905  0.0427  0.4980
28373W        W46577   5.671  11.074   0.605  0.2891  0.0294  0.2632
28374W        W46578  15.045   1.545   0.070 -0.0914 -0.2972  0.0996
28375W        W46579   3.260  12.096   1.703  0.3098  0.1260 -0.0556
28376W        W46580   2.706   9.603   4.961  0.1012 -0.0646 -0.2029
28377W        W46581   0.633  16.251   2.284  0.1886  0.0816 -0.0028
28378W        W46582  11.892   2.667  13.832 -0.0380 -0.1270  0.0409
28379W        W46583  14.698  10.192  14.467 -0.0207 -0.0686  0.1690
28380W        W46584  15.636   6.348  15.338 -0.0897  0.0348 -0.1573
28381W        W46585   6.241  11.005  15.926 -0.0666 -0.2122 -0.2857
28382W        W46586  12.343   5.537   4.800  0.1592  0.2255 -0.3088
28383W        W46587   0.334   6.982   2.314 -0.4464  0.0553 -0.4358
28384W        W46588   1.936  12.975   5.171 -0.1261  0.0061  0.1065
28385W        W46589  12.379  11.368   4.353 -0.1627  0.0540  0.1171
28386W        W46590   4.181   1.938   1.012  0.0907 -0.1227 -0.2655
28387W        W46591   5.033   7.053   3.269  0.2080  0.1540  0.2805
28388W        W46592  15.928   3.437   5.023  0.0454  0.1365  0.1288
28389W        W46593  10.721   5.250  17.240  0.0793  0.1965  0.1336
28390W        W46594  13.187   9.289  13.114  0.2171  0.1309  0.0094
28391W        W46595  16.406   8.952  14.426 -0.0220 -0.2658  0.1381
28392W        W46596   3.711   1.018   1.383 -0.0440  0.2083  0.2559
28393W        W46597   8.374  11.305   3.287 -0.2764 -0.1660  0.1400
28394W        W46598   8.303  16.884  12.789 -0.1181 -0.1542 -0.0358
28395W        W46599   2.802  17.165   0.978 -0.1174  0.1137  0.0849
28396W        W46600  12.066   2.126  13.741  0.1953  0.3094  0.1260
28397W        W46601   6.370  11.461  14.365  0.2620 -0.0694 -0.2123
28398W        W46602   5.088   9.958  15.730 -0.0761  0.0530  0.1718
28399W        W46603   4.581  11.190  15.840 -0.1805  0.3041 -0.3877
28400W        W46604  11.503   4.552  13.458 -0.3961 -0.2831 -0.0746
28401W        W46605  15.086   6.760   0.182 -0.0289 -0.3396  0.0345
28402W        W46606  12.263  15.192  16.430 -0.1509 -0.1287  0.1745
28403W        W46607   9.083   0.850   1.521 -0.3814  0.1731 -0.0041
28404W        W46608  13.198   1.874   4.274 -0.2649 -0.2001 -0.0695
28405W        W46609  14.693   3.268   2.761  0.1969  0.3671 -0.0912
28406W        W46610  10.917  11.582  13.754  0.2792  0.0994  0.3464
28407W        W46611  14.144  15.311   1.566  0.0678 -0.1016  0.0179
28408W        W46612   3.222  14.400  16.893 -0.0229  0.2985 -0.1344
28409W        W46613   4.960  15.866  12.280  0.2128 -0.0448  0.3031
28410W        W46614   2.458   8.909   3.731 -0.0826  0.0986  0.1762
28411W        W46615   3.732   8.446   3.020  0.2611  0.3986 -0.2245
28412W        W46616   5.444  13.177  14.940  0.0401  0.1015 -0.4020
28413W        W46617   5.731   1.966   4.820  0.2212  0.0012  0.2306
28414W        W46618  12.507  10.187  14.435 -0.0306  0.0858 -0.0914
28415W        W46619  13.593  11.112   4.423  0.0313 -0.0139  0.0633
28416W        W46620  14.952   8.943   2.290  0.2845 -0.1088  0.1454
28417W        W46621   3.639   2.197  14.128  0.0574  0.1127  0.0349
28418W        W46622   9.404  12.047   4.337  0.3025  0.0993 -0.0449
28419W        W46623  11.800  15.863   1.067  0.0381 -0.0958 -0.0442
28420W        W46624  14.435  15.309  14.391  0.0660  0.1675  0.0460
28421W        W46625   0.589   6.145   0.587 -0.1288  0.0709  0.1721
28422W        W46626   6.374   8.514   0.558 -0.1078 -0.0332  0.1024
28423W        W46627   9.102   0.626   0.304  0.0166  0.0968  0.1164
28424W        W46628   3.860  16.291  17.062  0.0502 -0.0699  0.0026
28425W        W46629  14.816   6.364   0.155 -0.1486  0.1239 -0.0125
28426W        W46630   9.887   7.909  13.319 -0.0142  0.0930 -0.0120
28427W        W46631   9.002  11.728  15.238  0.2772  0.3461 -0.0669
28428W        W46632  11.103   9.419  17.173 -0.2275 -0.0818 -0.1250
28429W        W46633  16.830   3.501   1.267  0.1673  0.3080 -0.0091
28430W        W46634  15.329  11.008   4.215 -0.0197  0.1173 -0.0791
28431W        W46635  10.645  12.617   2.438 -0.1261  0.3204  0.3571
28432W        W46636   8.479   5.160   3.584 -0.1026 -0.3584 -0.0267
28433W        W46637   6.288  13.051  16.879  0.1936 -0.2283  0.1615
28434W        W46638   5.330   2.989   4.054 -0.0986 -0.0183 -0.1645
28435W        W46639   0.825   8.296  13.765  0.2294  0.1709  0.0515
28436W        W46640   4.082  10.804  16.652 -0.0772  0.2005 -0.1157
28437W        W46641   9.576   3.212   3.160  0.0725  0.1725  0.0239
28438W        W46642  16.381  16.436  16.598 -0.1064  0.1016 -0.0502
28439W        W46643   9.681   8.879  14.090 -0.2732 -0.0479 -0.0707
28440W        W46644  11.110  16.748   5.454  0.0321 -0.2845  0.0033
28441W        W46645   9.342   2.098  16.046 -0.1994 -0.0342 -0.1651
28442W        W46646   5.821  14.441  16.874  0.1526  0.1236 -0.0975
28443W        W46647   9.459  10.625   3.846  0.1457  0.2201 -0.0458
28444W        W46648   2.988   9.748   4.488  0.0023  0.2314 -0.0324
28445W        W46649  10.249  13.566  13.394 -0.2962  0.0442 -0.2030
28446W        W46650   6.025   8.614  16.233  0.1129 -0.2428 -0.1438
28447W        W46651  13.910   2.028   1.714 -0.1102 -0.0806 -0.4871
28448W        W46652  12.254   1.758  14.215 -0.0409  0.0630  0.2171
28449W        W46653  15.150  17.232  15.498 -0.1858  0.1511 -0.0164
28450W        W46654   0.024  12.813   5.020 -0.0502 -0.1993  0.1127
28451W        W46655   1.627   9.049  16.752  0.0027 -0.1838  0.1475
28452W        W46656  14.602   6.854   3.309 -0.2530  0.0830 -0.1828
28453W        W46657   1.807   3.840  15.387 -0.2222  0.1345  0.1427
28454W        W46658  11.562   8.065   3.010  0.0441 -0.2947  0.0925
28455W        W46659  13.139   0.647   0.031  0.1491  0.1734  0.0808
28456W        W46660  14.146   8.796   5.470 -0.0776  0.2745 -0.3896
28457W        W46661  12.756   5.644   4.183  0.1099 -0.0935  0.0349
28458W        W46662  15.927  12.728   1.570 -0.2241 -0.0044  0.1164
28459W        W46663   2.342   6.951  15.500  0.2026 -0.4074  0.0630
28460W        W46664  11.353   1.178   2.084 -0.1121  0.0145 -0.2786
28461W        W46665  14.443   4.301   0.296 -0.1850 -0.1807  0.2751
28462W        W46666  15.168   5.657   4.385  0.0582  0.1483 -0.1449
28463W        W46667   9.412   9.801   3.273 -0.0676  0.1953 -0.2006
28464W        W46668  13.788  11.280  14.200 -0.2053 -0.1081 -0.0274
28465W        W46669   4.723   6.093   0.752 -0.2006 -0.0918 -0.0018
28466W        W46670   7.060   3.224  12.240  0.0005  0.2414  0.0224
28467W        W46671   6.338   7.898   4.406 -0.0781 -0.1263  0.1909
28468W        W46672   6.386   4.887   0.369 -0.1072  0.4041 -0.0743
28469W        W46673  15.300   9.269  13.145 -0.1485  0.3203  0.0380
28470W        W46674   2.387  14.177  14.006  0.0904  0.2560  0.0069
28471W        W46675   3.403   8.937  16.314 -0.0047  0.2143  0.0011
28472W        W46676  15.097   5.460   4.846 -0.0753 -0.0561  0.2823
28473W        W46677   0.188  10.356  13.480  0.0359 -0.0933  0.1565
28474W        W46678  10.168   0.873  16.950  0.2971 -0.3251 -0.0374
28475W        W46679   2.769  17.296  15.990  0.1980 -0.0978 -0.0760
28476W        W46680   9.678   4.120  15.559  0.0846  0.0438 -0.0667
28477W        W46681   9.716  14.995   4.749  0.0925  0.0614  0.2002
28478W        W46682   2.650   5.468   3.858 -0.0207 -0.0596 -0.5901
28479W        W46683  15.603   4.665   4.670  0.0707  0.1093  0.1516
28480W        W46684   3.769   2.825   0.577 -0.3445 -0.2058 -0.0770
28481W        W46685  12.790  13.796  12.540 -0.2228  0.0269 -0.0845
28482W        W46686   6.317   2.816   1.014  0.0240  0.0230  0.1461
28483W        W46687  13.984   9.626  17.452 -0.1032  0.1353  0.1961
28484W        W46688   4.211   3.983   2.000  0.0300  0.0330  0.0509
28485W        W46689   9.269   2.267  12.439  0.0226 -0.2113  0.0254
28486W        W46690   8.056   2.106  17.460  0.1765 -0.1399 -0.1319
28487W        W46691  12.096  10.838   3.455  0.0222 -0.2985 -0.0557
28488W        W46692  11.785  13.900   2.362 -0.0599 -0.2176  0.1659
28489W        W46693   2.912   3.228  17.227 -0.1063 -0.0434 -0.1019
28490W        W46694  12.259  16.133  14.100  0.2021 -0.0961  0.1881
28491W        W46695  14.990  12.210  13.263  0.4737  0.1252  0.0438
28492W        W46696   9.540  13.700  14.683  0.1158  0.0406  0.0680
28493W        W46697   8.504  16.606   3.049  0.0948 -0.2779  0.0883
28494W        W46698  16.178   6.904  11.688 -0.1143  0.1314 -0.2072
28495W        W46699  11.593   2.215   0.807  0.4729 -0.1655 -0.0327
28496W        W46700   6.186   4.962  15.131  0.1224  0.1853  0.0996
28497W        W46701   8.383   3.435   5.179 -0.0261 -0.3097  0.4500
28498W        W46702  14.652   6.417  14.668  0.0806  0.1016  0.0792
28499W        W46703   3.948   2.977  17.351 -0.4455 -0.1524  0.0679
28500W        W46704  11.569   8.586   1.563 -0.0407  0.2403 -0.1441
28501W        W46705   1.460   9.524  14.437  0.5031  0.2014  0.0820
28502W        W46706  16.276  14.282   3.171 -0.0489 -0.0400  0.1714
28503W        W46707   8.494  12.278   5.429  0.2014 -0.0112 -0.1057
28504W        W46708   6.361   9.450   5.223 -0.0254  0.0942 -0.0743
28505W        W46709  11.669   2.393  11.576 -0.0267  0.1741 -0.1341
28506W        W46710   0.730   0.384  14.072 -0.0769 -0.3540  0.1642
28507W        W46711   7.900   1.921  12.602  0.3534 -0.1646  0.0629
28508W        W46712   1.417   8.671  16.935 -0.0677 -0.0185 -0.2218
28509W        W46713  11.132   7.918  16.229 -0.1068  0.1970 -0.3761
28510W        W46714   7.477  15.048  17.413 -0.0034  0.0624 -0.2679
28511W        W46715   5.759   3.150   3.820  0.2266 -0.0569  0.0508
28512W        W46716  16.828   5.819   0.015 -0.0826 -0.1020  0.0056
28513W        W46717   1.793  13.916  14.390 -0.0244  0.1775  0.2326
28514W        W46718  10.657   9.138   4.480  0.2109 -0.0834  0.0038
28515W        W46719  14.620   2.209   4.690  0.0177  0.0758 -0.1349
28516W        W46720  12.859  16.296  15.001 -0.0844 -0.1259  0.0405
28517W        W46721   1.421   4.404  13.848  0.0890  0.2428  0.1912
28518W        W46722  12.689   5.124   1.508 -0.2751 -0.0044 -0.0872
28519W        W46723   2.823  10.421   5.347 -0.0607 -0.0260 -0.1387
28520W        W46724   8.823   3.723   0.666 -0.1402 -0.1878 -0.0491
28521W        W46725  12.717  16.924  17.285 -0.1007 -0.0661 -0.1809
28522W        W46726   6.467   9.015  15.112  0.1319  0.1726 -0.0854
28523W        W46727   1.428   6.992   1.109 -0.0795 -0.1656 -0.2034
28524W        W46728  12.077  12.106   5.646 -0.0175 -0.1798  0.0959
28525W        W46729  14.126   5.137   3.828 -0.0235 -0.0872  0.2178
28526W        W46730   5.421   1.313  16.394  0.2646 -0.1406  0.0281
28527W        W46731   3.205   1.534  13.368 -0.0018  0.4560  0.2009
28528W        W46732   9.235   6.945  15.960 -0.0616 -0.1712 -0.0923
28529W        W46733  13.314   2.532  17.250 -0.0198  0.5125  0.1249
28530W        W46734   3.492   8.127  15.549 -0.0905 -0.0216  0.0517
28531W        W46735   7.626   0.333  13.516 -0.1271 -0.3234  0.2042
28532W        W46736   4.051   2.938   1.817 -0.2238  0.0104  0.1059
28533W        W46737   7.972   2.615  13.057 -0.0551  0.1389  0.1234
28534W        W46738   1.067   3.472  15.814  0.0163 -0.2194 -0.2528
28535W        W46739   0.596   1.205   2.722 -0.1896  0.1872 -0.1169
28536W        W46740  11.393   8.836  13.636  0.2294  0.1898  0.2088
28537W        W46741  16.849   4.925   4.302  0.0055  0.0684 -0.0231
28538W        W46742   3.002  11.156   6.092  0.2077  0.1881 -0.1442
28539W        W46743   3.186  10.921  13.923  0.0077 -0.1312 -0.2226
28540W        W46744  15.011   7.362  16.817 -0.0033  0.0276  0.0705
28541W        W46745   6.600  16.343  17.075 -0.0401 -0.0636 -0.3267
28542W        W46746   7.582  12.358  16.904 -0.0842 -0.1343 -0.1611
28543W        W46747   5.749  13.442  13.881 -0.0231 -0.2561  0.1073
28544W        W46748  10.937   8.293  15.769  0.0188  0.0606  0.0650
28545W        W46749   6.283   9.075  12.046 -0.0877 -0.2561 -0.2055
28546W        W46750   6.175   3.010  13.432 -0.0171 -0.0790 -0.0249
28547W        W46751   1.313   4.012   4.739  0.1029 -0.2377 -0.0679
28548W        W46752   6.763   8.364  15.889 -0.1476  0.0476  0.3236
28549W        W46753   7.464   8.290  13.001 -0.2626  0.0748 -0.0545
28550W        W46754   8.385   2.085  15.178 -0.1415  0.0340 -0.0371
28551W        W46755   3.610  15.833   1.549  0.0970  0.0687 -0.0899
28552W        W46756   6.159  10.369  14.997 -0.2628 -0.1132  0.0339
28553W        W46757   8.496   7.347  11.998  0.2029  0.2215  0.0295
28554W        W46758   7.549   6.669   1.694  0.3005 -0.2206  0.3679
28555W        W46759  17.169  13.421   2.868  0.0305  0.1835  0.2309
28556W        W46760  12.431   1.186   2.373  0.0597 -0.0651 -0.1489
28557W        W46761   3.169  10.972  15.164 -0.2963 -0.0721 -0.0941
28558W        W46762   7.053   9.058   4.667 -0.3278 -0.1192 -0.0817
28559W        W46763  13.257   9.025  15.047 -0.1749 -0.0683  0.0383
28560W        W46764  13.090  10.795  12.836 -0.1422  0.2705 -0.0356
28561W        W46765   3.606  16.198  14.868 -0.0405 -0.0398 -0.1570
28562W        W46766   1.385   1.036  16.851 -0.3323 -0.1267  0.1108
28563W        W46767  14.451   7.005   0.272  0.1249  0.2255  0.1086
28564W        W46768   4.132  12.080   2.494 -0.1969 -0.1992 -0.1775
28565W        W46769  14.421   5.988  13.036  0.2112  0.3999 -0.0313
28566W        W46770   0.330  16.925   3.585 -0.0982 -0.0277 -0.1303
28567W        W46771   0.816  12.336   0.739 -0.2220  0.0734 -0.2048
28568W        W46772   3.153  13.939   4.062 -0.0438  0.1416  0.0757
28569W        W46773   3.387   7.930   2.978  0.0612 -0.1764  0.3437
28570W        W46774  15.181   5.719   1.259  0.3837  0.0613 -0.2681
28571W        W46775   1.361   0.760  14.813  0.3348 -0.1082 -0.0612
28572W        W46776   2.801   8.358  12.977  0.0401 -0.0138 -0.0986
28573W        W46777  13.339   3.935   3.612 -0.1896  0.0030  0.0123
28574W        W46778   2.289  11.935   0.505  0.2332 -0.1004 -0.1833
28575W        W46779   7.108  13.411   6.006  0.0748 -0.1470  0.0895
28576W        W46780   6.618   7.053   0.293 -0.0870 -0.1455 -0.0863
28577W        W46781  10.796  12.035  13.209 -0.0901 -0.0101  0.1778
28578W        W46782  11.822  12.779   2.846 -0.0743 -0.2093 -0.0995
28579W        W46783   4.874   7.225   1.821 -0.1498  0.2457  0.4260
28580W        W46784  14.191  14.641   5.221 -0.1390  0.2336 -0.0759
28581W        W46785   5.990  15.174   5.539  0.0802 -0.2400 -0.1682
28582W        W46786   7.452  11.669   3.600 -0.0829 -0.1615 -0.1742
28583W        W46787   2.379   6.415   1.872 -0.0662  0.4167 -0.0577
28584W        W46788  12.762  16.910   4.174 -0.0805 -0.0848 -0.0903
28585W        W46789  14.078  12.562  14.946 -0.1876 -0.0943 -0.1720
28586W        W46790  16.990   8.272   1.600 -0.1499 -0.1718 -0.2796
28587W        W46791   2.016   9.974  13.289 -0.1650  0.2248  0.0042
28588W        W46792  14.195  15.817   5.164  0.1002  0.2467 -0.0539
28589W        W46793   2.088   2.390  13.079 -0.0349 -0.1673 -0.0054
28590W        W46794   9.651   5.111  15.707  0.0802 -0.2009  0.1725
28591W        W46795  14.048  14.794  12.442 -0.0524 -0.2641  0.1767
28592W        W46796  16.692   8.609  14.652 -0.0951 -0.1719 -0.0522
28593W        W46797   6.061   3.789  13.078  0.3371 -0.1681  0.5198
28594W        W46798  13.862   0.988   1.298  0.2011 -0.1988 -0.0193
28595W        W46799   5.333  13.909   2.898  0.0860  0.1874  0.2785
28596W        W46800   2.176   2.696   4.518  0.0235 -0.0896 -0.2906
28597W        W46801   0.874   6.370  15.741  0.0390 -0.4176 -0.2838
28598W        W46802   7.957   8.985  13.275 -0.0223  0.0218  0.0192
28599W        W46803   7.820   2.721   1.659 -0.0585 -0.0025  0.2147
28600W        W46804   3.675  10.417  15.476 -0.0926  0.1908  0.0434
28601W        W46805   4.599   1.804  14.050 -0.0625 -0.1411  0.1401
28602W        W46806  13.453  13.573  16.389  0.0045 -0.1206 -0.1553
28603W        W46807   0.322  10.529  17.170  0.0972  0.0450  0.0379
28604W        W46808   8.385   1.783  12.546  0.1401  0.2250 -0.1507
28605W        W46809  16.750  16.247  13.738  0.2772  0.1367  0.0054
28606W        W46810  16.417  13.548   0.518  0.0018 -0.1098 -0.0383
28607W        W46811  14.663   4.154  13.937  0.0087  0.1150  0.0302
28608W        W46812  11.400  13.328   2.894  0.0438 -0.2254  0.3155
28609W        W46813  16.415  12.549  17.315  0.1819 -0.0692 -0.1056
28610W        W46814   8.950   8.226  14.982  0.3819 -0.2335  0.0771
28611W        W46815  11.107   1.697   3.559 -0.2123  0.0218  0.3041
28612W        W46816  14.338  15.013   1.148 -0.2700 -0.1915 -0.1745
28613W        W46817   6.141   5.434  15.204  0.0672 -0.1445 -0.2668
28614W        W46818  15.431   8.517  17.242  0.2560 -0.1145 -0.1289
28615W        W46819  10.484  16.615  14.203  0.0401  0.0227  0.1782
28616W        W46820  10.041  12.705   0.253 -0.1163 -0.2856  0.0491
28617W        W46821  12.433   1.631  15.573  0.0591 -0.2580  0.1938
28618W        W46822   4.104   0.243   0.970  0.0531  0.1749 -0.1679
28619W        W46823   2.237   4.177   1.477 -0.1009 -0.1379 -0.1519
28620W        W46824   6.650  13.581   4.654  0.0043 -0.2615 -0.1089
28621W        W46825   8.782   5.654   1.144  0.0041  0.0528 -0.0483
28622W        W46826  14.779   1.032  15.098 -0.1595 -0.0768 -0.0812
28623W        W46827   3.160  10.944  12.968  0.0499  0.0590  0.4224
28624W        W46828   6.640   1.075  16.867  0.2515 -0.1435  0.3443
28625W        W46829  17.249   8.020   0.165  0.1748  0.0547  0.2133
28626W        W46830   3.928   2.557  12.438 -0.1007  0.0916  0.1086
28627W        W46831   5.489   7.127   4.470 -0.0262 -0.1819 -0.2327
28628W        W46832   5.232   3.844  12.626  0.0721  0.0193  0.2349
28629W        W46833   9.327   4.635  16.784 -0.0902  0.1477  0.0842
28630W        W46834   8.895   5.098  12.897  0.0385 -0.2593  0.1504
28631W        W46835   9.039  10.546   5.219  0.1115 -0.0323  0.0908
28632W        W46836   7.299   0.693   6.313  0.3442 -0.1341 -0.0072
28633W        W46837   2.542   5.794  13.677 -0.0717  0.0009 -0.0281
28634W        W46838   3.625   9.337  15.523  0.0352 -0.0984  0.2289
28635W        W46839   3.172   6.311  13.918 -0.1323  0.0155  0.0427
28636W        W46840   7.856   4.010   1.869 -0.1198  0.4074 -0.0387
28637W        W46841  15.048  16.550  15.054  0.0975 -0.2100  0.0733
28638W        W46842  12.602   1.299  16.538 -0.2399  0.1514 -0.2914
28639W        W46843   0.403   2.891   4.805 -0.1253  0.1244 -0.1350
28640W        W46844  10.808  12.202   4.628  0.0804 -0.2679 -0.0386
28641W        W46845   5.612   5.472  13.695  0.2103  0.0231 -0.1273
28642W        W46846   9.965  12.178   4.453 -0.1120  0.4409  0.2755
28643W        W46847  11.058  17.098  14.708 -0.0129  0.1872 -0.2736
28644W        W46848  10.290   0.105   3.566 -0.0953  0.1773 -0.0186
28645W        W46849  10.964   6.132  14.287 -0.1622  0.0581  0.0946
28646W        W46850   4.984  10.094   5.603  0.0898  0.0484 -0.0649
28647W        W46851  14.832  11.654   1.930  0.3408 -0.0372 -0.1671
28648W        W46852   3.789  16.007   4.602  0.0022  0.1197  0.1057
28649W        W46853   3.955   1.268   5.295  0.0112  0.0813 -0.0587
28650W        W46854   3.396  15.217  13.781  0.2003  0.3037  0.3237
28651W        W46855   4.889  11.730  12.637 -0.2158  0.1740 -0.0924
28652W        W46856   7.827  14.095   4.913 -0.1886 -0.2290  0.1168
28653W        W46857  12.031  15.350   1.013  0.2142 -0.1380  0.2312
28654W        W46858  11.744   2.082   1.300 -0.1705 -0.2639  0.3999
28655W        W46859  11.100   3.361  16.491 -0.1476  0.1858  0.1018
28656W        W46860   2.899  13.294  13.854 -0.0618  0.0023 -0.2063
28657W        W46861   7.625   7.236   4.561  0.0017 -0.1180  0.0685
28658W        W46862  10.659  11.707   0.099 -0.0276 -0.0766  0.0622
28659W        W46863   5.831  13.169   3.469 -0.0991  0.1696 -0.1594
28660W        W46864   6.952   5.300  16.641  0.3542 -0.0455  0.1590
28661W        W46865   5.309  17.079  14.415 -0.0478 -0.0844 -0.1288
28662W        W46866   9.717   1.428   0.415  0.0734 -0.2854  0.3338
28663W        W46867  13.960   8.977  12.950  0.0684  0.0436 -0.4137
28664W        W46868   2.847  15.646  12.392 -0.0460  0.2285 -0.0568
28665W        W46869   3.307   3.431  17.488 -0.2744 -0.1818 -0.2355
28666W        W46870  17.145   6.352  16.989 -0.0610 -0.1331  0.0316
28667W        W46871   8.972   3.454   1.616 -0.0545 -0.1863  0.0024
28668W        W46872   1.695   5.055  16.440  0.4307 -0.1409  0.1738
28669W        W46873   4.285   1.937  15.333 -0.2775  0.0233  0.1396
28670W        W46874  16.993   3.143  13.905 -0.1084 -0.1026 -0.0019
28671W        W46875  12.188   7.010   2.490 -0.1472  0.0805 -0.2768
28672W        W46876   9.042   2.054  15.392  0.3917 -0.3131 -0.0006
28673W        W46877  16.652  13.235   2.599 -0.1250 -0.1391  0.2786
28674W        W46878  10.804   3.946  16.637 -0.1092  0.1559  0.4480
28675W        W46879  10.647   1.947   4.404 -0.0347  0.0566  0.0038
28676W        W46880   1.678   1.389   3.854 -0.0975 -0.2757  0.1500
28677W        W46881  15.403   1.701   4.830 -0.0188 -0.2594 -0.2523
28678W        W46882  17.020   2.952  15.439  0.0353 -0.1642  0.0605
28679W        W46883  11.420  12.059  15.174  0.0521 -0.2423  0.0707
28680W        W46884  10.404  15.052   3.613 -0.0872 -0.0535 -0.2028
28681W        W46885   0.408   5.329   3.144 -0.1697 -0.0179  0.1611
28682W        W46886  13.797   3.743   0.235 -0.0166  0.1870 -0.0209
28683W        W46887   7.267  10.772   4.878 -0.1689  0.1157  0.0051
28684W        W46888   9.252   4.764  12.514  0.0314 -0.1915 -0.0700
28685W        W46889   6.383   7.698  13.853  0.1020 -0.0192 -0.2379
28686W        W46890   3.247  15.630  15.925 -0.0239 -0.0579  0.2776
28687W        W46891  15.499   7.227   2.813 -0.1492  0.0087 -0.1851
28688W        W46892  12.562  10.784  12.883  0.2278  0.1486  0.2389
28689W        W46893   2.526   4.515  16.042 -0.0489 -0.1209 -0.0527
28690W        W46894  12.922  13.801   5.354 -0.0528 -0.2339  0.2462
28691W        W46895  11.796   2.476   4.415  0.0439 -0.2685  0.0454
28692W        W46896  17.136  14.038  13.922 -0.1255 -0.1007 -0.0498
28693W        W46897   0.645   7.527   1.881 -0.0916  0.0910  0.0609
28694W        W46898   7.485  11.605   0.217  0.1097 -0.0241  0.0606
28695W        W46899  17.086  14.534   3.011 -0.0627 -0.2435 -0.0597
28696W        W46900   7.257   1.815   3.301  0.1532  0.0399  0.2202
28697W        W46901   6.221  13.109   3.107 -0.2226 -0.0749  0.1868
28698W        W46902   3.978  12.597  16.543 -0.1249  0.0060  0.0411
28699W        W46903  11.025   8.892   3.247  0.0665  0.1869  0.2585
28700W        W46904  14.711  12.018   5.463 -0.1600 -0.5590  0.1569
28701W        W46905   2.170  16.489   4.509  0.0330 -0.0809  0.2024
28702W        W46906   3.122  10.558  14.218 -0.0617 -0.1804 -0.4036
28703W        W46907   3.405   0.071  16.880  0.1245 -0.4469  0.0331
28704W        W46908   2.531   1.756  16.278 -0.0390  0.0044 -0.2074
28705W        W46909  14.436  15.692   0.444  0.1913  0.2865 -0.1893
28706W        W46910  13.926   9.426   2.578 -0.3286  0.1687  0.1424
28707W        W46911   4.051  14.179  13.703 -0.0917  0.0844 -0.0491
28708W        W46912   6.263  10.914  13.707 -0.0031 -0.1529 -0.0125
28709W        W46913   6.750  16.398  15.697 -0.3165  0.2783  0.2412
28710W        W46914   4.468  15.865  13.317 -0.1474 -0.0483 -0.0479
28711W        W46915  16.111   0.609   4.185  0.0977  0.0587  0.2444
28712W        W46916   8.291   7.103   0.782  0.1226 -0.0187  0.0782
28713W        W46917   7.194  15.289  11.075  0.2467  0.1236  0.3828
28714W        W46918  13.828  13.459   2.484 -0.1715 -0.1193  0.4495
28715W        W46919  11.068   7.215  15.514 -0.2043 -0.0264  0.1761
28716W        W46920   8.713   3.019  17.109  0.1168  0.0917 -0.0452
28717W        W46921  15.616  16.791   3.412 -0.0158 -0.1351  0.3307
28718W        W46922   6.013   1.176   3.422  0.0048  0.0576  0.2141
28719W        W46923   3.049  16.821   2.412  0.2909  0.0390  0.0888
28720W        W46924   8.862  16.085  12.847  0.0053  0.1747 -0.2061
28721W        W46925  15.441   4.882   0.617 -0.0323  0.0763  0.0142
28722W        W46926   5.205  14.990  13.656 -0.3872  0.0359 -0.1680
28723W        W46927   9.240   3.922  12.926  0.0033  0.0584 -0.5160
28724W        W46928   7.448   2.006   5.017 -0.1282  0.0906  0.1357
28725W        W46929   9.666   4.005   2.583  0.0728 -0.1162 -0.0738
28726W        W46930  10.500   9.563   2.615 -0.0039  0.1629  0.1915
28727W        W46931   3.783   1.672  14.970  0.0485  0.4943  0.2571
28728W        W46932  13.211  13.115  13.943 -0.0675 -0.0707 -0.1365
28729W        W46933  11.060   5.799   2.656  0.0124  0.1446 -0.2500
28730W        W46934  11.765   2.113   2.923  0.0617  0.2654  0.0532
28731W        W46935  12.424   1.321   1.441  0.0376 -0.0312  0.4909
28732W        W46936  15.083   2.544  13.449  0.2121  0.0242  0.1255
28733W        W46937   8.716   8.550  12.368 -0.3467  0.0023  0.1588
28734W        W46938  13.913   1.921   3.100 -0.1214  0.0921 -0.0145
28735W        W46939   5.745  14.703   2.362  0.2028 -0.0286  0.1205
28736W        W46940   1.011   1.160  14.699 -0.2131  0.0318 -0.0783
28737W        W46941   2.344   6.726   5.992 -0.1529  0.0049 -0.2327
28738W        W46942   6.137   5.334  13.762 -0.1891  0.0075  0.1059
28739W        W46943  12.362   0.294  14.942  0.5416 -0.1136  0.0664
28740W        W46944   7.652   2.840  13.890 -0.0799 -0.1410 -0.0939
28741W        W46945   8.157   7.152   0.267 -0.2483  0.1939 -0.0875
28742W        W46946  14.579   0.692  15.433  0.1992 -0.2483 -0.2668
28743W        W46947   5.169  16.770  14.912  0.0614  0.1969 -0.0039
28744W        W46948   8.076  16.791   3.333 -0.0497  0.0869  0.0629
28745W        W46949  11.564   2.792  15.710 -0.1165  0.1809  0.0935
28746W        W46950   8.878   9.099   4.288  0.0782 -0.0102 -0.0039
28747W        W46951   8.003   4.718   1.234 -0.1797  0.0953 -0.0488
28748W        W46952  14.727   6.670  15.154 -0.1640  0.0191  0.0229
28749W        W46953   7.669  11.868  13.641  0.1982  0.0968  0.1811
28750W        W46954  15.916   5.540   3.309 -0.0704 -0.2971 -0.2389
28751W        W46955   4.653  14.829   0.707 -0.0992  0.0241 -0.2385
28752W        W46956  15.128   6.173  15.260 -0.1375 -0.1801  0.2547
28753W        W46957  17.013   1.438   2.888 -0.2368 -0.0779  0.0974
28754W        W46958   2.352  14.683  13.996 -0.0663  0.1941 -0.0704
28755W        W46959   9.166  12.899  14.569  0.0333  0.0679  0.2869
28756W        W46960  12.380   5.366   2.443 -0.3152  0.2100 -0.4319
28757W        W46961  13.465   4.528  17.275 -0.0244  0.1436  0.0079
28758W        W46962   0.472   2.231   5.524 -0.2159 -0.2465  0.0911
28759W        W46963   1.745  17.082   3.993 -0.0097 -0.0889  0.2189
28760W        W46964   2.152  12.138  17.166 -0.0162  0.2656  0.0473
28761W        W46965   5.448  15.650   3.128  0.0430 -0.3020  0.5314
28762W        W46966  11.398  10.941   1.840  0.0856 -0.1053  0.0656
28763W        W46967  12.697  14.908  16.281  0.0373  0.0317  0.0512
28764W        W46968   3.209   6.967  15.399 -0.0295  0.1096 -0.0196
28765W        W46969   9.198   0.303  15.518 -0.2485 -0.0297 -0.0676
28766W        W46970  10.013  10.033  14.868  0.1658 -0.0879  0.0429
28767W        W46971   1.616   2.926  17.313  0.0082 -0.0620  0.0998
28768W        W46972   9.796   1.254   3.174  0.1624 -0.1227  0.1035
28769W        W46973  14.938   5.794  12.986  0.2109  0.1991  0.1952
28770W        W46974   3.975   1.100  15.450 -0.0356 -0.0514 -0.0886
28771W        W46975   2.868   9.793   1.262 -0.1622  0.1149  0.0171
28772W        W46976  12.358   2.079   1.367 -0.0069  0.0512  0.1935
28773W        W46977  14.254   0.494   1.269 -0.1439  0.3507  0.0022
28774W        W46978   3.309  10.868  12.437 -0.1249  0.0613 -0.0152
28775W        W46979  13.287  16.996  16.100  0.1899 -0.0474 -0.0002
28776W        W46980   3.345  10.004  13.255  0.2908  0.1457 -0.1231
28777W        W46981  14.389   8.041  14.367  0.0628 -0.0793 -0.0397
28778W        W46982   2.482  11.638   4.589  0.1765  0.0857  0.1170
28779W        W46983  10.244   1.634  16.210 -0.0836  0.0417  0.1090
28780W        W46984   8.421   3.014  13.698  0.1066 -0.3489  0.1804
28781W        W46985   1.029  16.638  17.061 -0.0447  0.0530 -0.1133
28782W        W46986   3.266   5.164  16.998 -0.0550  0.0602  0.2608
28783W        W46987   5.941  14.783  16.313 -0.0438 -0.1505  0.0476
28784W        W46988   3.945   4.383  12.701 -0.0081 -0.0602 -0.2529
28785W        W46989   1.460   9.014   2.812  0.0731 -0.1864 -0.0717
28786W        W46990   2.022  14.403  12.639  0.0693  0.1758 -0.0648
28787W        W46991  13.656  10.612   2.174  0.0593 -0.0572 -0.1876
28788W        W46992  10.599  17.203  11.829 -0.3377  0.0365  0.0098
28789W        W46993  13.762   2.617   0.539  0.0624 -0.0680  0.0675
28790W        W46994  13.137   2.061   3.669  0.0926  0.0116 -0.2583
28791W        W46995  10.773   9.563   0.076 -0.1211 -0.0010  0.0817
28792W        W46996  12.409   2.989  15.272  0.0206 -0.1726 -0.0519
28793W        W46997   9.786  15.093  13.936 -0.1726 -0.1188 -0.1582
28794W        W46998   5.911   9.620  17.124  0.0006 -0.1880  0.3918
28795W        W46999   3.530  13.251  14.401  0.4853  0.1716 -0.1649
28796W        W47000   7.948   2.312   1.909 -0.1843 -0.0619 -0.1280
28797W        W47001   7.832  12.861   4.279 -0.0946  0.1486  0.1646
28798W        W47002  15.840  15.461  14.406 -0.1580 -0.0448  0.1473
28799W        W47003   7.260  13.065   4.254  0.0100  0.1709  0.2873
28800W        W47004   9.440   2.988   2.218 -0.0487  0.1246  0.0955
28801W        W47005   6.475  15.032   3.090 -0.1504  0.2004  0.4048
28802W        W47006   5.855   9.272  16.463 -0.2306  0.2401  0.1610
28803W        W47007  14.503   0.758  14.343  0.2500 -0.2394  0.2322
28804W        W47008  10.973   7.503   0.867  0.0897  0.0650 -0.0765
28805W        W47009  10.329   0.233   1.783  0.2006  0.1903  0.1330
28806W        W47010   9.549  13.930  16.054 -0.0760  0.2663 -0.0330
28807W        W47011   0.898  12.664  13.856 -0.1003 -0.0687  0.0968
28808W        W47012   0.533  16.534  14.794  0.0771  0.2291  0.2017
28809W        W47013  14.472  16.661   0.615  0.3433  0.0608  0.0794
28810W        W47014  13.571  14.683  16.585 -0.0278  0.1249  0.1814
28811W        W47015  16.416   2.847   3.449 -0.1631 -0.0297 -0.3650
28812W        W47016   2.608   4.972  13.014 -0.1143 -0.1953  0.0364
28813W        W47017   9.623  14.550   1.715 -0.2617  0.0303 -0.2558
28814W        W47018  17.018  12.379  16.156 -0.1564  0.0938 -0.2413
28815W        W47019  15.648   8.842   4.875  0.0121  0.1531  0.0227
28816W        W47020   9.740  11.841   3.629 -0.0912 -0.1650  0.0047
28817W        W47021   5.488   2.600  16.139  0.3563 -0.1226 -0.0159
28818W        W47022   6.310  13.509  14.441 -0.0699  0.0429 -0.0666
28819W        W47023   7.412   6.445  13.290 -0.1670 -0.0184  0.2574
28820W        W47024  12.013   4.217   2.351 -0.0061  0.0881 -0.1348
28821W        W47025   8.534  14.044   1.639  0.2540  0.0023  0.0852
28822W        W47026  13.384   2.023  16.268  0.1564 -0.2402 -0.1872
28823W        W47027   0.131  16.571   4.618 -0.0150 -0.1283 -0.0332
28824W        W47028  15.068   9.852  14.646  0.1592 -0.3375 -0.0629
28825W        W47029   5.703  15.580   4.823 -0.1632 -0.3178  0.0833
28826W        W47030  16.762  13.327   3.115  0.1765 -0.0819  0.0835
28827W        W47031  15.406  16.477  17.373 -0.1261 -0.2430  0.1356
28828W        W47032  10.008  15.712  12.723 -0.1199  0.0782  0.1033
28829W        W47033  16.631   4.258  17.068  0.0987  0.2074 -0.2236
28830W        W47034  12.677   4.732  14.715 -0.1374 -0.4236 -0.3417
28831W        W47035  12.581   7.853  17.512  0.2365  0.1351 -0.2961
28832W        W47036  13.242  12.487  13.701  0.0287  0.0241  0.0259
28833W        W47037  13.632   3.932   0.782  0.2380 -0.2192  0.1213
28834W        W47038  11.290   7.879  15.750 -0.0623 -0.0076 -0.3877
28835W        W47039   6.179   2.762   0.124  0.2062  0.1862  0.1566
28836W        W47040   2.779  15.371   3.461 -0.1333 -0.0357  0.1132
28837W        W47041   7.760  12.900   1.492 -0.0481  0.0518  0.0950
28838W        W47042   5.249  14.430  14.621 -0.1648  0.0262  0.0917
28839W        W47043   9.696  11.379   0.425 -0.1246  0.0094 -0.0844
28840W        W47044   6.248   6.502   4.656 -0.0347  0.2169 -0.0126
28841W        W47045   3.624   7.092  12.889 -0.0035  0.4364 -0.0996
28842W        W47046   1.531  13.179  16.894 -0.3278  0.1466 -0.3099
28843W        W47047   9.435  13.441  16.263  0.1554 -0.2444 -0.2751
28844W        W47048   3.916  14.114   2.987  0.3755  0.0243 -0.0974
28845W        W47049  14.825   1.208  13.703  0.2942  0.1013  0.4424
28846W        W47050   2.399  12.114   5.929  0.1739  0.0678  0.0433
28847W        W47051  12.102   5.463   0.584  0.1994  0.0462 -0.2329
28848W        W47052   8.259   0.808   4.143 -0.0615 -0.2379  0.0901
28849W        W47053  10.537   0.253   4.536  0.3533  0.1652 -0.2767
28850W        W47054  15.844   8.624  15.423 -0.0026 -0.0629 -0.0975
28851W        W47055  15.057  10.201   3.008  0.1618 -0.1466  0.2218
28852W        W47056   4.975  16.001   1.542  0.1196 -0.2176 -0.0729
28853W        W47057  12.007   0.893   2.495 -0.0661 -0.4729  0.2419
28854W        W47058   5.629  13.012  12.621 -0.2488  0.1329  0.3339
28855W        W47059  14.221   0.314  15.797 -0.1105  0.1813 -0.2540
28856W        W47060   0.127  16.824  15.502  0.3015 -0.1133  0.1310
28857W        W47061  11.021   7.372   1.728 -0.2030 -0.1181  0.0086
28858W        W47062  12.586  11.622   4.796 -0.3473 -0.2205 -0.1846
28859W        W47063   8.729  10.329  15.697 -0.2911 -0.2313 -0.1073
28860W        W47064   5.507  14.666   0.383  0.1753 -0.1579 -0.0408
28861W        W47065  16.501   9.441  12.449  0.1165 -0.0969 -0.3752
28862W        W47066   9.465  15.728   1.000  0.0369 -0.2031 -0.3184
28863W        W47067  15.299   1.317  14.421 -0.4072 -0.3115  0.1924
28864W        W47068  14.602  15.353  16.906  0.0704  0.1185 -0.2525
28865W        W47069  15.684  12.525   3.431  0.1103 -0.0648 -0.1551
28866W        W47070   6.941  11.949  15.766  0.0046 -0.0264 -0.3520
28867W        W47071   8.142  16.049   1.168 -0.0580 -0.1266 -0.1782
28868W        W47072   7.710   3.735  12.974  0.2513 -0.1779  0.1060
28869W        W47073  14.458  12.706  14.420  0.1622 -0.0656 -0.0062
28870W        W47074   6.692  12.620   0.058 -0.0162  0.1016 -0.2090
28871W        W47075  16.512  12.850   3.082  0.1469 -0.0564  0.1163
28872W        W47076   3.236   1.956   1.236 -0.2079  0.1299  0.1174
28873W        W47077  12.140  13.365  17.070  0.0778  0.3089  0.3995
28874W        W47078   4.935   9.579  11.692  0.0195 -0.0956 -0.0283
28875W        W47079  12.754   8.209  15.383 -0.0086 -0.4417  0.1677
28876W        W47080   9.508  13.253  13.712  0.0203 -0.0165 -0.1431
28877W        W47081   2.550  10.132  12.072  0.1875  0.2564 -0.2044
28878W        W47082   5.913  13.215   0.067  0.2091 -0.2390 -0.0338
28879W        W47083   0.242   3.887   5.390 -0.1613 -0.0764 -0.2511
28880W        W47084   0.716   6.569   0.420 -0.0068  0.0387 -0.1655
28881W        W47085   0.659   0.573   0.967 -0.1451  0.1014 -0.1243
28882W        W47086   1.153  16.707   0.782  0.1577  0.1417  0.1073
28883W        W47087  13.419   5.268   3.070 -0.0261 -0.1190 -0.1149
28884W        W47088   3.291  15.601  12.618 -0.2257 -0.1903  0.1169
28885W        W47089  17.229   7.852   4.955  0.3459 -0.1414 -0.2064
28886W        W47090   6.652   6.662  12.357 -0.0997 -0.2323  0.0734
28887W        W47091  15.180   9.759  15.735 -0.4119  0.0793  0.2766
28888W        W47092  14.962  11.823  15.954 -0.1067  0.1038  0.0221
28889W        W47093  11.869   5.598  13.943  0.0569  0.1596  0.0686
28890W        W47094   8.615   8.419  13.625 -0.1710  0.2063  0.1030
28891W        W47095  16.012   2.469  12.729 -0.2119 -0.1776 -0.2065
28892W        W47096   2.730  11.762   0.672  0.0780 -0.1494 -0.2113
28893W        W47097   8.337   9.442  12.434 -0.2199  0.4440  0.0034
28894W        W47098   0.327  13.946  17.476  0.2732  0.1369  0.0880
28895W        W47099  13.246   8.460  13.909 -0.1661 -0.0990 -0.0295
28896W        W47100   5.566   6.539  15.710 -0.2415  0.2334  0.1563
28897W        W47101  13.983  14.332   2.661 -0.1638 -0.0229  0.1299
28898W        W47102  12.176  11.720  14.462 -0.0654 -0.1268  0.2236
28899W        W47103   2.070   9.060  14.902  0.1553  0.3112 -0.0169
28900W        W47104   3.393   9.518  16.535  0.1921 -0.0270  0.3989
28901W        W47105  15.885   7.618   5.038 -0.1601 -0.4080  0.0740
28902W        W47106  10.516   7.489  15.571 -0.2322  0.0281  0.0490
28903W        W47107  16.777  14.779  15.796 -0.0283  0.1843  0.0363
28904W        W47108  11.549  13.849   3.668 -0.0063 -0.0848 -0.1046
28905W        W47109  10.758  16.825   1.356  0.1170 -0.1332  0.0200
28906W        W47110   1.481  15.160  15.455  0.3491 -0.0727 -0.0907
28907W        W47111   0.460  10.751  16.765 -0.1384 -0.1480  0.1249
28908W        W47112   7.147   2.311  12.204  0.0238  0.1666 -0.0752
28909W        W47113  10.181  11.195  13.234  0.3437 -0.1325 -0.1309
28910W        W47114   1.608  15.476  16.770  0.0295  0.1714  0.0116
28911W        W47115  12.690  16.122   0.353  0.2997  0.0055 -0.0177
28912W        W47116   3.024  16.871   4.754 -0.3299 -0.0841 -0.1709
28913W        W47117   8.438  13.948  16.171  0.0185 -0.2933 -0.0255
28914W        W47118  11.669   5.048   4.588  0.1282 -0.3157  0.1634
28915W        W47119   6.840   4.834  15.620  0.1628  0.0628 -0.2461
28916W        W47120  17.075   3.925   1.124  0.0487 -0.2422  0.3172
28917W        W47121  17.111   5.758  17.081 -0.1201  0.1191 -0.0989
28918W        W47122   0.657   6.216   0.008 -0.0265  0.1021 -0.0468
28919W        W47123   5.736  16.191  16.652 -0.1297  0.2329  0.2658
28920W        W47124  10.070  12.267  16.240 -0.1252 -0.0602  0.1771
28921W        W47125   4.979   7.573   3.337 -0.4146 -0.0002 -0.1437
28922W        W47126  10.575   7.529   6.337  0.2084  0.0168 -0.1396
28923W        W47127   2.060   5.588  13.709 -0.1358 -0.0438  0.0426
28924W        W47128   7.019  10.066   1.844  0.0120 -0.0895 -0.1050
28925W        W47129  10.915  11.883  16.256 -0.2364  0.1599  0.0297
28926W        W47130   4.960   5.050  12.003  0.3747  0.1200  0.0781
28927W        W47131  10.532  17.185   5.031  0.2875  0.1697  0.2913
28928W        W47132   3.903  10.105   2.595 -0.0174 -0.1614 -0.1599
28929W        W47133  12.488   4.941  11.448 -0.0497  0.0472 -0.0013
28930W        W47134   4.034  12.467   4.919  0.0311  0.3649  0.0879
28931W        W47135   1.193   7.251   3.011 -0.1067 -0.1830 -0.1474
28932W        W47136   2.129   2.827   1.390 -0.1211 -0.2917 -0.0179
28933W        W47137  12.937  14.978   4.383 -0.1469 -0.0437 -0.0559
28934W        W47138  14.822  17.194  14.134 -0.2058 -0.0466 -0.0335
28935W        W47139   9.747   6.655   3.738 -0.1796  0.0451  0.1953
28936W        W47140  16.503   0.130  16.544 -0.0990  0.0349 -0.1203
28937W        W47141   9.698  16.999  14.457 -0.2551  0.0750 -0.1558
28938W        W47142   1.824   4.727  12.387 -0.1262 -0.3594 -0.1260
28939W        W47143   0.967   4.102  13.193  0.1047  0.0167 -0.3958
28940W        W47144   5.040   6.003   3.305 -0.0921 -0.1355  0.1191
28941W        W47145  11.359   5.595   2.331 -0.0415  0.0120 -0.0519
28942W        W47146   6.364   2.515  13.415  0.0315 -0.1672 -0.0471
28943W        W47147   8.532   8.390   0.263 -0.3036 -0.1384  0.0583
28944W        W47148  12.802   4.424   2.887 -0.0307  0.1044  0.0808
28945W        W47149   6.147   4.843   1.680 -0.0244 -0.0574 -0.0759
28946W        W47150  11.949  12.689   0.570 -0.0919 -0.3063 -0.0791
28947W        W47151   8.615   4.351   4.709 -0.0557  0.1922  0.1104
28948W        W47152   6.011  12.727   1.728  0.0199  0.0367  0.0493
28949W        W47153   9.582   5.953  14.078  0.0324  0.0282 -0.1899
28950W        W47154   2.507   0.650   2.065  0.0456 -0.2333 -0.1127
28951W        W47155   6.038  17.021   4.867 -0.0997 -0.0911  0.0719
28952W        W47156   0.768  11.645  16.231 -0.0658  0.1054 -0.0779
28953W        W47157  15.868  16.800  16.730  0.0354  0.2051  0.0548
28954W        W47158  11.285   6.402   3.267  0.2901  0.2458  0.2145
28955W        W47159   0.067   0.531  15.304  0.0645  0.2855  0.2223
28956W        W47160   7.369   6.007  14.372  0.2811  0.1986  0.1119
28957W        W47161   7.480  14.316  14.031 -0.0460  0.1061  0.3211
28958W        W47162   3.379   2.352   2.751  0.1881  0.0406  0.1597
28959W        W47163  10.184  13.196   3.234 -0.1046  0.0670 -0.1485
28960W        W47164   5.793   7.156  14.902  0.0121  0.1368  0.1041
28961W        W47165   2.939  12.570  17.013 -0.1565  0.0881 -0.1181
28962W        W47166   5.422   6.775   3.298  0.0961  0.2787  0.3030
28963W        W47167  11.811   4.951  12.695 -0.2177  0.2330 -0.3639
28964W        W47168   3.395  11.106   1.618 -0.0256 -0.4447  0.2853
28965W        W47169  15.396   4.116  16.437 -0.5803 -0.0248  0.0490
28966W        W47170   2.275   9.280  13.603  0.0093  0.0487 -0.4757
28967W        W47171  14.553  13.085   0.572 -0.1217 -0.0097  0.1378
28968W        W47172  13.929   6.318  14.942 -0.0029  0.1338  0.0164
28969W        W47173  13.712  16.752   4.343  0.0920  0.0688 -0.1589
28970W        W47174   8.725  13.040   1.703 -0.0704  0.1286  0.0268
28971W        W47175   7.094  15.077  12.089  0.1196  0.1974 -0.0750
28972W        W47176   8.397   3.321   2.350 -0.1655 -0.0773  0.1519
28973W        W47177  14.093   4.079   0.537 -0.1298  0.1214 -0.0869
28974W        W47178   8.862   8.345  11.856  0.3258 -0.0523  0.0637
28975W        W47179   2.752  12.097  16.736 -0.1970 -0.1950 -0.1261
28976W        W47180   4.295  16.540   2.172 -0.1244  0.0536  0.2476
28977W        W47181  16.525   6.066   1.513  0.1169  0.2181  0.2017
28978W        W47182  14.950  12.426   1.630 -0.1517 -0.2033  0.2017
28979W        W47183  11.072  14.352   0.826  0.0277 -0.1500  0.1013
28980W        W47184  15.926  11.288   5.493  0.0866  0.1760 -0.3688
28981W        W47185   0.903   1.863   0.924  0.0042  0.0509  0.1600
28982W        W47186  16.050   0.481   2.770  0.0527  0.2859 -0.1070
28983W        W47187   9.408   5.413  16.130 -0.2136  0.1654  0.0602
28984W        W47188  12.127  11.690   0.861 -0.1892  0.2134  0.0267
28985W        W47189  13.907   9.289  16.864  0.0996 -0.2192 -0.0172
28986W        W47190   5.380  11.501  16.866  0.1149  0.0990 -0.2804
28987W        W47191   2.122   9.092  16.985  0.2623  0.0751  0.3686
28988W        W47192   5.555   1.446   0.768 -0.1807  0.1953  0.0991
28989W        W47193   9.509   5.954   4.328  0.0592  0.1853 -0.0291
28990W        W47194  16.032  15.632   2.863  0.2055  0.1976 -0.1238
28991W        W47195  10.140  12.176  15.768  0.0469 -0.1013  0.1171
28992W        W47196  13.538   9.162  12.724  0.0427 -0.0351 -0.1820
28993W        W47197  14.110  13.473   4.221  0.0461  0.1294 -0.0925
28994W        W47198   1.514   7.367  14.508 -0.3635  0.1535  0.1267
28995W        W47199   6.352  11.858  16.030 -0.0719  0.0930 -0.3732
28996W        W47200   4.801   1.361   3.626 -0.0170  0.3613 -0.3280
28997W        W47201   2.453  13.215   1.091  0.0624 -0.3190 -0.1820
28998W        W47202   2.849  14.609   5.371  0.0546 -0.0854  0.1171
28999W        W47203  16.829   7.913   5.192 -0.3276 -0.1844  0.0405
29000W        W47204  12.727  13.368   3.701  0.1075  0.1001  0.0265
29001W        W47205   0.387   0.713   2.525 -0.0518  0.0070  0.3253
29002W        W47206   4.771   4.818   5.181  0.1334 -0.1930 -0.1952
29003W        W47207   5.953   8.772  11.594 -0.0761  0.2369  0.1302
29004W        W47208  11.314  15.099   4.211 -0.2701  0.1473 -0.0303
29005W        W47209  10.228  10.076   2.849 -0.0877  0.0235 -0.1886
29006W        W47210  15.247  13.182  16.603  0.1085 -0.2352  0.1297
29007W        W47211  14.014  16.410  13.460  0.0986 -0.2109 -0.1712
29008W        W47212  12.185   3.981  16.172 -0.3824 -0.0317  0.0322
29009W        W47213  15.003  11.872   3.945 -0.1668  0.0959 -0.6202
29010W        W47214   5.556   5.677  12.234 -0.3528  0.1983  0.2286
29011W        W47215   0.691   8.665   5.034  0.2721  0.2362  0.2539
29012W        W47216  15.722  14.510  12.206  0.0141  0.3888 -0.2315
29013W        W47217   4.682  12.546   3.844 -0.2748  0.1623 -0.1656
29014W        W47218   9.263   3.387   2.538  0.1492  0.0738  0.2394
29015W        W47219   7.499   3.506   3.684  0.3897  0.0502  0.1189
29016W        W47220   9.380   5.126   3.314  0.2377 -0.0442 -0.2454
29017W        W47221  12.877  15.041   2.374 -0.2901  0.0805  0.0104
29018W        W47222  12.581  13.925   1.689  0.1687 -0.0615 -0.0236
29019W        W47223   7.193   0.200  17.486 -0.0265 -0.0302  0.0382
29020W        W47224   7.495   2.612   5.029  0.4135  0.3293 -0.1064
29021W        W47225  11.078   4.903   3.041 -0.0904 -0.2062  0.1632
29022W        W47226   3.861  11.836   2.858  0.0652  0.2157  0.1318
29023W        W47227   1.256   5.884  13.152 -0.2031  0.2443  0.1255
29024W        W47228  13.497   9.514  17.364  0.0066  0.1775 -0.1667
29025W        W47229   3.732   9.110  13.539  0.0945  0.1431  0.1554
29026W        W47230   0.526   8.831  13.143 -0.3604 -0.2967  0.0192
29027W        W47231   2.061   7.349  12.614 -0.0233  0.2340 -0.1740
29028W        W47232   1.162   8.233  14.925 -0.1668  0.0183  0.1939
29029W        W47233   0.041  11.112  16.748 -0.0221 -0.1956 -0.2016
29030W        W47234  16.453  11.778   5.387 -0.3007  0.2348 -0.1240
29031W        W47235  13.796   6.888  14.772  0.1227  0.0279  0.0593
29032W        W47236   8.719   2.981  12.010 -0.1784 -0.1800  0.0298
29033W        W47237   5.732  16.106  15.275  0.0411  0.0422 -0.1391
29034W        W47238   9.442   6.113  15.851 -0.2240 -0.1560 -0.1632
29035W        W47239   1.940  13.974   2.270  0.2756  0.2687 -0.2184
29036W        W47240   1.363  11.707   2.082  0.0052  0.1453  0.1441
29037W        W47241  11.721   1.554   3.746  0.1560 -0.1548 -0.4738
29038W        W47242  13.968  10.782   1.804  0.0428  0.2306  0.2228
29039W        W47243   3.109  12.553   0.921 -0.0608 -0.1411 -0.0475
29040W        W47244   5.174   0.176   0.181 -0.0100 -0.3008 -0.1165
29041W        W47245  16.298   6.152  15.921 -0.1374 -0.1533  0.0410
29042W        W47246   2.317   6.397  12.137  0.0988  0.1342  0.0486
29043W        W47247  12.936  16.535   2.058  0.0964 -0.1378  0.0587
29044W        W47248   9.816  11.775  13.708  0.1312 -0.1255 -0.1011
29045W        W47249   1.215   3.959  15.590  0.0957 -0.4621 -0.1560
29046W        W47250   2.215   2.163   0.470  0.2217 -0.1149 -0.0820
29047W        W47251   1.083  13.932   4.141  0.2535 -0.3095 -0.1770
29048W        W47252   1.779  10.663  12.874 -0.4961 -0.0638 -0.2185
29049W        W47253   6.132  14.412   2.458 -0.0121  0.2734  0.2458
29050W        W47254  11.615   9.113   4.933 -0.1032 -0.3076 -0.2025
29051W        W47255   9.820   2.477  15.432  0.0559  0.3723 -0.0657
29052W        W47256  11.337   2.593   0.586  0.3172 -0.1962 -0.0406
29053W        W47257   8.145   8.539  13.472  0.1255 -0.1261  0.1371
29054W        W47258   2.814   5.952  14.065 -0.0443  0.1157  0.0495
29055W        W47259   6.811  17.285  14.167  0.0733  0.0993 -0.1192
29056W        W47260  15.620  15.040  12.361  0.2901 -0.2506 -0.1975
29057W        W47261   4.240   8.625   2.943 -0.2684 -0.1247  0.4347
29058W        W47262   2.134  12.069   1.817 -0.1957 -0.1260 -0.0427
29059W        W47263   4.009  12.634   2.611 -0.1164 -0.2264 -0.1513
29060W        W47264   6.522   5.339  12.480 -0.0408 -0.0102  0.0304
29061W        W47265  16.251   7.284  13.796 -0.1196 -0.1435  0.1013
29062W        W47266   3.988  16.028  11.709 -0.1955 -0.1662 -0.0216
29063W        W47267  16.269   5.841  13.430 -0.0804  0.0742 -0.0546
29064W        W47268  17.287   5.770  13.804 -0.4370 -0.2386 -0.0613
29065W        W47269   8.903   9.579  13.249 -0.0898  0.0010  0.3763
29066W        W47270   1.198  16.735   4.543 -0.1748  0.1157 -0.2937
29067W        W47271   0.056   8.493   1.837 -0.2653 -0.0189  0.1602
29068W        W47272   1.548   2.148  15.465 -0.3034  0.1754 -0.0944
29069W        W47273  16.626  16.226   0.767  0.1486 -0.0869  0.1213
29070W        W47274   0.857   3.932  12.679 -0.1928  0.0901  0.1356
29071W        W47275  15.672   8.026   6.403  0.2560  0.0145 -0.0823
29072W        W47276   9.156   2.589   2.812  0.3780  0.1052  0.3285
29073W        W47277   7.986   1.643  12.034  0.3597 -0.2441 -0.0041
29074W        W47278   7.036  16.515   3.479 -0.0285 -0.1296  0.0104
29075W        W47279   7.642  11.690   5.327 -0.2114 -0.1153 -0.1436
29076W        W47280   5.840   3.634   1.262 -0.1172  0.0537  0.0080
29077W        W47281  16.983  12.270  14.183  0.0151 -0.0561  0.0295
29078W        W47282  14.661   1.418   3.507 -0.4243 -0.0343  0.2538
29079W        W47283  15.142  12.443   2.136  0.1799 -0.3914  0.4198
29080W        W47284   3.096  13.539  17.510 -0.0463 -0.3701 -0.0545
29081W        W47285   2.371  13.746   3.253 -0.0265  0.0061 -0.1864
29082W        W47286  11.067  12.822   3.819  0.0214 -0.1366 -0.0264
29083W        W47287   3.406   0.423   1.434  0.0686  0.0691  0.0174
29084W        W47288   1.256   2.659  16.459  0.1979  0.0795 -0.0309
29085W        W47289   5.614   2.819   0.182 -0.2445 -0.3984 -0.2579
29086W        W47290   2.066  16.757  13.244  0.2347 -0.1722 -0.1094
29087W        W47291   5.286  12.989   0.517  0.0723  0.1294  0.5679
29088W        W47292  15.086   7.228  13.001  0.2731  0.0268  0.4531
29089W        W47293   3.637   4.282   2.636  0.0904  0.0038 -0.1995
29090W        W47294   8.020   6.934  15.828  0.0924 -0.1001 -0.2171
29091W        W47295  13.753  13.489   3.694 -0.2097  0.0471 -0.0010
29092W        W47296   0.090  14.134   4.499  0.3985  0.3280  0.3072
29093W        W47297  15.711   8.356  13.332 -0.1794 -0.2272  0.1680
29094W        W47298   7.236   5.361   2.991  0.0135  0.2413  0.2879
29095W        W47299  13.419  10.750  15.358  0.0476  0.1884  0.1563
29096W        W47300  12.764  12.376  15.352  0.1081 -0.1494  0.1096
29097W        W47301  16.699   9.731   0.012  0.0135  0.0403  0.2261
29098W        W47302   7.160   9.658  17.332 -0.0677 -0.4713  0.1381
29099W        W47303   3.772  12.103   3.313 -0.4089  0.0690  0.2045
29100W        W47304   3.340   6.622  14.652 -0.0637 -0.1183 -0.1059
29101W        W47305  16.899   5.631  12.542 -0.0962 -0.1957  0.1077
29102W        W47306   5.506   5.103  13.064  0.2459  0.1535  0.1036
29103W        W47307   5.756   1.796  14.939  0.0040  0.2693 -0.1807
29104W        W47308  16.216   6.981  15.467  0.0821  0.1779 -0.0891
29105W        W47309   9.471  17.005   4.291  0.3079  0.3059 -0.0291
29106W        W47310  12.824   3.289   2.194  0.1023  0.0541  0.2998
29107W        W47311   0.893  12.802  15.189  0.0900 -0.2071 -0.0786
29108W        W47312   9.054   6.009  12.299 -0.0046  0.3053 -0.0137
29109W        W47313   4.060   5.081   0.229  0.4576 -0.1639 -0.3153
29110W        W47314  17.266   8.510  12.814  0.0988  0.1815  0.1302
29111W        W47315  12.970  11.065  16.683  0.0267 -0.0188  0.0530
29112W        W47316  17.265   4.907   1.986  0.1740  0.0031 -0.2316
29113W        W47317  11.205  11.537   3.389  0.2312  0.0406 -0.0388
29114W        W47318   6.441  12.508  16.133 -0.3287  0.2161  0.0430
29115W        W47319   1.970   9.996   4.594  0.0376  0.3123  0.0204
29116W        W47320  10.328   9.743  16.525  0.0810 -0.1607 -0.0603
29117W        W47321  15.302  11.048   0.156  0.0106 -0.0626 -0.1425
29118W        W47322  12.490   5.304  12.421 -0.1495 -0.1658  0.1901
29119W        W47323  12.657  13.759  13.012 -0.0004 -0.1214 -0.0696
29120W        W47324  17.291   1.261   1.159  0.4571  0.1254  0.0737
29121W        W47325  17.195   5.984  14.593 -0.1332 -0.0608 -0.2204
29122W        W47326   3.052  15.718  15.383 -0.0575  0.0031 -0.0895
29123W        W47327  10.631   9.612   5.354 -0.0784  0.2374 -0.0099
29124W        W47328   7.006  10.056  12.712 -0.1190 -0.0913 -0.0408
29125W        W47329  12.301   4.896  14.457  0.3193 -0.3391  0.0423
29126W        W47330  15.519   1.456  12.713 -0.0265  0.2588  0.0209
29127W        W47331   7.852   6.563   3.047 -0.1746  0.1097 -0.1484
29128W        W47332   5.970  13.783  16.142 -0.4818  0.0101 -0.1685
29129W        W47333  12.902   9.173   2.937  0.1185 -0.1372 -0.3414
29130W        W47334   1.325   8.039  12.695 -0.0553 -0.0859 -0.3506
29131W        W47335  15.217   1.198   3.401  0.0139  0.0619 -0.0927
29132W        W47336  11.036   2.162   4.684 -0.1503  0.0844  0.1760
29133W        W47337   3.923   0.397   2.205  0.2489  0.1343 -0.5061
29134W        W47338  13.528  10.272   5.113  0.1064 -0.2664  0.2725
29135W        W47339  14.921   9.371   2.533 -0.0929 -0.0784 -0.0244
29136W        W47340  15.422   6.527  15.908 -0.1122 -0.0308 -0.2594
29137W        W47341   0.522  14.165   1.312  0.1265 -0.3176 -0.1070
29138W        W47342   8.455   6.685  12.094 -0.1560 -0.0631  0.0530
29139W        W47343  14.060   4.722  15.044 -0.1228 -0.2664  0.3303
29140W        W47344  16.139  14.004  17.250  0.0915 -0.0340  0.0892
29141W        W47345   9.214   5.558   2.383 -0.1324  0.1811 -0.0860
29142W        W47346  11.374   1.479  14.303  0.0316 -0.1560 -0.2621
29143W        W47347   4.510   7.579   4.051  0.1292  0.3446  0.0887
29144W        W47348   1.953  13.870   2.852  0.0811  0.1970  0.1046
29145W        W47349  11.747  11.058   5.778 -0.1448  0.0484  0.2365
29146W        W47350  10.212  14.986  14.926  0.2081 -0.0144  0.1807
29147W        W47351   7.108   0.324  13.720 -0.1043 -0.0395 -0.0100
29148W        W47352  13.319  15.740   2.655 -0.1372 -0.1756 -0.1867
29149W        W47353   6.941   5.293  12.841  0.2311 -0.1928  0.3116
29150W        W47354  11.814  13.966  16.007 -0.1398  0.3226 -0.0634
29151W        W47355  12.014  12.023  13.431  0.3466  0.1187  0.0475
29152W        W47356  16.958  12.963   3.783 -0.0841 -0.4063  0.1344
29153W        W47357   2.702  14.344  14.347  0.1215 -0.5487 -0.2842
29154W        W47358  11.439   9.720  16.252 -0.0837  0.1185  0.0624
29155W        W47359   3.444   1.034  13.277  0.1522  0.2752 -0.1259
29156W        W47360  10.538  10.118   3.222  0.3244 -0.0719  0.1391
29157W        W47361  12.582   0.336   1.533 -0.0904  0.0053  0.0578
29158W        W47362   3.164   3.972   2.263 -0.0421  0.0055 -0.0987
29159W        W47363  16.537   4.652   2.687 -0.0208  0.0551 -0.4180
29160W        W47364  13.825  12.695   4.092  0.1034 -0.0467  0.1446
29161W        W47365  17.230   4.132   2.535  0.1456 -0.4693  0.3336
29162W        W47366   8.647  11.838  11.369 -0.0644 -0.1260 -0.2747
29163W        W47367  12.279   9.545  13.566  0.2018  0.1810  0.2273
29164W        W47368  15.234   9.251  16.236 -0.3614  0.3687 -0.1232
29165W        W47369   5.175  12.461  16.297  0.0599  0.3432  0.0840
29166W        W47370   7.492   3.902   4.004  0.2023  0.2340  0.1956
29167W        W47371   1.801   3.408   3.143  0.0707 -0.1378 -0.0029
29168W        W47372   7.750  11.447   5.792 -0.2350  0.0501 -0.2150
29169W        W47373   7.442  12.124   4.937  0.2595  0.0535  0.0547
29170W        W47374   7.162   2.971   1.934 -0.0619 -0.0703  0.0186
29171W        W47375  10.807  15.489  13.677 -0.0464 -0.1091  0.0465
29172W        W47376  14.926  13.332   0.722 -0.1198  0.0652  0.0380
29173W        W47377   5.806   5.691  15.486  0.0650  0.1513 -0.0631
29174W        W47378  14.443   8.432   3.921  0.2040  0.2872 -0.1798
29175W        W47379  13.357   9.602  14.695 -0.1647  0.2895  0.1202
29176W        W47380  14.098  14.318   3.227  0.1891  0.0763 -0.5429
29177W        W47381  12.586  15.582   5.411 -0.1540  0.2573  0.1309
29178W        W47382   1.881  10.905   4.208 -0.0552 -0.1700  0.1559
29179W        W47383  13.206   8.535  17.157  0.1912 -0.1574  0.0705
29180W        W47384   1.961  13.116   1.104 -0.1899  0.0448 -0.0343
29181W        W47385   4.877  12.376  13.832 -0.0221 -0.0645  0.0777
29182W        W47386  14.486  13.064   2.855 -0.2281  0.2754  0.2200
29183W        W47387   4.885  13.715  13.477  0.0570  0.0209 -0.1051
29184W        W47388  15.624   9.711   0.685 -0.0470 -0.3570 -0.2557
29185W        W47389   1.517  14.681  13.766  0.1269 -0.0502  0.2340
29186W        W47390   9.017   5.065   0.991  0.2259 -0.0564  0.0668
29187W        W47391  11.906   4.609   0.433  0.1018  0.0740 -0.0089
29188W        W47392   2.309   1.493   3.872 -0.2773  0.0666 -0.0838
29189W        W47393   0.240  10.189   2.071 -0.0318 -0.1322 -0.1147
29190W        W47394   5.284  16.697   4.483 -0.0378  0.0790 -0.0187
29191W        W47395   6.972  13.901  15.117  0.1191  0.0730  0.2231
29192W        W47396  16.677   7.493  13.444  0.5320 -0.0708 -0.2246
29193W        W47397  13.831   6.980   0.999  0.0698 -0.1144  0.0031
29194W        W47398   0.591   3.591   0.942  0.1011  0.1856 -0.0301
29195W        W47399   2.693   3.838   3.778 -0.1768  0.2573  0.0273
29196W        W47400  13.668   3.912   3.229 -0.2312 -0.1928  0.2153
29197W        W47401  14.740  11.430   4.901  0.0004 -0.1372 -0.0779
29198W        W47402   9.248  12.418  14.438 -0.1759  0.0543 -0.2862
29199W        W47403   0.573   4.170  13.559  0.0895 -0.1454  0.0803
29200W        W47404   3.257   1.783  12.022 -0.1136  0.1556  0.3080
29201W        W47405  15.131  11.603  14.942 -0.1601  0.2351  0.0142
29202W        W47406   2.418  16.272   0.637 -0.0093 -0.0296  0.3002
29203W        W47407  10.024  12.650   2.574 -0.2648 -0.0177  0.0327
29204W        W47408  16.762   8.038   4.277 -0.0996  0.0831  0.2196
29205W        W47409   3.122  15.221  15.048 -0.3492 -0.0391  0.1593
29206W        W47410   6.377  11.340   1.817  0.3150 -0.1223 -0.1599
29207W        W47411   3.486   3.911  16.189 -0.1180  0.1518 -0.0086
29208W        W47412   2.197   5.780  14.156  0.2693  0.1445  0.2234
29209W        W47413   1.697  14.946   3.162  0.0194 -0.2126  0.0131
29210W        W47414   8.454   4.132   0.565 -0.1534 -0.1269 -0.2052
29211W        W47415   9.909  16.645   1.857 -0.0370 -0.0822 -0.1819
29212W        W47416   7.872  12.267  13.290 -0.0687 -0.1293  0.3557
29213W        W47417   9.332  16.145   2.822 -0.0646  0.1209  0.1981
29214W        W47418   9.498   6.456   4.362  0.0131  0.2975 -0.2119
29215W        W47419   4.943   5.502  17.374  0.0655  0.2279 -0.3457
29216W        W47420   2.315   2.605  14.039 -0.0201 -0.3184 -0.2218
29217W        W47421   4.131  10.339   5.232  0.1456 -0.0994 -0.0697
29218W        W47422  15.187   3.228   1.526  0.0696 -0.1020 -0.0742
29219W        W47423   8.120   5.732   2.821 -0.1804  0.1495  0.0763
29220W        W47424  11.396   3.942  16.915 -0.0096  0.3204 -0.1499
29221W        W47425   1.725  10.995   5.587  0.0656 -0.2646  0.0284
29222W        W47426  15.659  13.851  17.288 -0.1630 -0.0228 -0.1011
29223W        W47427   9.225  11.609  17.134 -0.0022  0.1082 -0.0853
29224W        W47428   5.468   6.257   3.359 -0.4180 -0.0090  0.0329
29225W        W47429  15.792  16.266  17.081 -0.1865  0.2487  0.0624
29226W        W47430   0.411   7.271   0.304  0.1764  0.1108 -0.1345
29227W        W47431   1.837  14.437   4.055 -0.1410 -0.0420 -0.1183
29228W        W47432   6.225  13.995   3.613  0.1497  0.1500  0.1684
29229W        W47433   3.596   6.522   4.087  0.0939  0.0956  0.0302
29230W        W47434  10.528   9.014   0.577 -0.0960  0.0120  0.0515
29231W        W47435   3.042   9.896   3.790 -0.0154 -0.0390 -0.4291
29232W        W47436   6.354   1.474  12.023 -0.0114  0.0735 -0.1527
29233W        W47437  15.035   4.776   4.105 -0.0586 -0.1265 -0.1059
29234W        W47438  11.646  12.902  13.303 -0.1886  0.1899 -0.0529
29235W        W47439  11.042   6.085  12.966  0.0846  0.1717  0.4800
29236W        W47440  13.861  12.464   0.421  0.2488  0.3133  0.1102
29237W        W47441  11.111   5.536  12.220 -0.2581 -0.0790 -0.1730
29238W        W47442   0.778   1.877  15.378 -0.0311  0.0341  0.1288
29239W        W47443   3.711  12.619   4.561  0.1569  0.0983  0.3580
29240W        W47444   1.111   1.319   0.258  0.0363  0.0520  0.0479
29241W        W47445   2.578  13.437  14.309 -0.0969 -0.6018 -0.3112
29242W        W47446   7.531   9.923  12.631 -0.0832  0.1909  0.2123
29243W        W47447   5.574  15.732   4.374 -0.1214  0.4043 -0.0847
29244W        W47448   5.581   6.902  13.174 -0.1485 -0.1081 -0.3196
29245W        W47449   2.207   4.160  17.493 -0.0525 -0.1399  0.0650
29246W        W47450  17.126   0.799  15.617 -0.0193  0.0884  0.2535
29247W        W47451   7.857  12.056  12.827 -0.2365  0.0520  0.3040
29248W        W47452   3.009  14.145   0.873 -0.0744 -0.0804 -0.2114
29249W        W47453  12.846   6.315  15.023 -0.0975 -0.0303 -0.1898
29250W        W47454  15.321   1.265   5.121 -0.0091 -0.1196  0.2231
29251W        W47455   3.292   5.721  14.936 -0.1852  0.0452 -0.0830
29252W        W47456  11.455   8.221  15.360  0.0104  0.0107 -0.0657
29253W        W47457  16.067  11.307  13.682  0.3902  0.1138 -0.1297
29254W        W47458   2.055   5.669  12.608 -0.0750 -0.4205  0.2210
29255W        W47459  10.942   5.631   4.891 -0.1155  0.0551  0.0772
29256W        W47460  12.271   1.581  17.156  0.0376 -0.0388 -0.2826
29257W        W47461  16.770  16.252  12.893  0.0021  0.2317  0.3285
29258W        W47462  16.150   4.716   0.149 -0.2098  0.1867  0.3932
29259W        W47463  16.093   3.482   2.194  0.1297 -0.1335  0.2045
29260W        W47464  11.207   6.802  16.413  0.1066  0.1137  0.0199
29261W        W47465  12.532  13.054  12.186  0.0405 -0.0876  0.0338
29262W        W47466   9.078  12.288  12.922  0.0194  0.1154 -0.2238
29263W        W47467   8.625   5.888  13.870 -0.3125  0.2872  0.1425
29264W        W47468  14.095   6.516  13.217  0.0502 -0.0628  0.3266
29265W        W47469  14.866   7.548   0.799  0.0634  0.1350  0.0845
29266W        W47470  17.154   3.210  13.461 -0.1832  0.3101 -0.2044
29267W        W47471   0.493   5.635  13.968  0.0323  0.1540  0.0535
29268W        W47472   9.924   1.747  12.942  0.3715 -0.2711  0.1246
29269W        W47473   9.521  13.918  12.529  0.2296 -0.1926 -0.0706
29270W        W47474  15.904  15.669  16.245  0.3235  0.0607  0.1720
29271W        W47475   1.885  10.911  15.594 -0.2842 -0.4610  0.0567
29272W        W47476  13.680   7.701  14.170  0.3822 -0.1093 -0.0696
29273W        W47477  11.691   6.899  13.131 -0.2483 -0.2693 -0.1123
29274W        W47478   2.268  10.504  15.377 -0.3182  0.2276 -0.1893
29275W        W47479   9.718  13.718  16.608 -0.2445 -0.0889 -0.3146
29276W        W47480   4.340   4.277   2.857 -0.2052  0.0487  0.0201
29277W        W47481  16.270   8.715   5.273 -0.0237 -0.0794  0.4606
29278W        W47482  11.825  16.737   0.434 -0.0477  0.0365 -0.0687
29279W        W47483   3.718   7.343   0.649  0.0149  0.2146  0.2921
29280W        W47484   4.253   5.748   4.383  0.0699  0.1199  0.0435
29281W        W47485  11.511  16.950  12.338 -0.0713 -0.3569  0.3076
29282W        W47486   0.447   0.135   4.824 -0.1366  0.1885 -0.1071
29283W        W47487   4.126   9.356  16.174 -0.1215 -0.2616  0.3082
29284W        W47488  12.204   3.745   3.364  0.1256  0.0672 -0.1111
29285W        W47489   0.515  11.284  16.951 -0.0726  0.0084  0.2716
29286W        W47490   0.458   9.496   5.477  0.0176 -0.1742 -0.1075
29287W        W47491  13.926   9.298  15.276  0.1673 -0.2969  0.0149
29288W        W47492   0.345  14.202   2.732  0.1737  0.0234  0.0756
29289W        W47493  11.238  14.744  17.112  0.2544  0.0386 -0.1135
29290W        W47494  16.236   4.772  13.328  0.1962 -0.1430 -0.0373
29291W        W47495  12.341  11.151  14.542 -0.0145  0.1964 -0.0931
29292W        W47496   6.155   7.280  14.507 -0.0015 -0.2089  0.0595
29293W        W47497   6.433   1.372   0.243  0.1753 -0.0105  0.0213
29294W        W47498   3.283  12.225  14.714  0.2845 -0.0576 -0.0505
29295W        W47499  12.679   1.634  12.946  0.3475  0.3141  0.0715
29296W        W47500   2.290   1.538  15.264 -0.0920 -0.0163 -0.1672
29297W        W47501   7.133  16.703   4.354  0.0241 -0.1845 -0.0519
29298W        W47502   1.610   0.001   4.466 -0.0301  0.3000  0.2607
29299W        W47503   6.792   3.665  14.697 -0.1101 -0.0136 -0.1710
29300W        W47504   1.115  14.010   3.293  0.3551 -0.2662  0.1718
29301W        W47505   9.631  16.192   3.188 -0.0076  0.0138 -0.1557
29302W        W47506  14.847   8.618   1.233  0.1591  0.0876 -0.1636
29303W        W47507   1.604  16.240   0.060 -0.0260 -0.1370 -0.2352
29304W        W47508   5.324  11.574   1.420 -0.0752  0.1030 -0.4338
29305W        W47509   5.628  14.858   2.824  0.0649  0.3093 -0.1247
29306W        W47510  13.959  15.814   0.649 -0.0859 -0.0127  0.3107
29307W        W47511  15.976   9.322  13.582 -0.1011  0.1287  0.0511
29308W        W47512   2.687   3.249   4.051  0.1752  0.1453 -0.4276
29309W        W47513   6.572   1.221  13.786  0.1690  0.0235 -0.1721
29310W        W47514  12.915   7.997  13.475  0.0883  0.0684 -0.2235
29311W        W47515   4.282   5.014   5.364 -0.1016  0.0806 -0.2499
29312W        W47516   6.542  13.310  12.723  0.1953  0.1968  0.2195
29313W        W47517   2.169   1.698   0.300 -0.2090 -0.1355  0.0041
29314W        W47518   0.983   4.900   0.276 -0.2346  0.1020  0.0570
29315W        W47519   7.868  10.772   0.078  0.0058 -0.3373 -0.2621
29316W        W47520   8.821  11.977  13.741  0.2627  0.0738 -0.2139
29317W        W47521  13.867  14.042  17.060 -0.2437 -0.1467  0.0487
29318W        W47522   9.544  14.586   0.577  0.0447  0.1092 -0.2109
29319W        W47523   3.289   2.372   0.980  0.1597  0.1247  0.1021
29320W        W47524  16.449   6.611  12.377  0.1336 -0.0871 -0.1478
29321W        W47525  11.702   1.598   2.972  0.1008  0.0239  0.2502
29322W        W47526  16.351   2.617   1.985  0.0450  0.2674  0.0542
29323W        W47527  11.837  12.670   1.869 -0.0983 -0.2925 -0.0497
29324W        W47528   0.358   0.996  15.463  0.2205 -0.0219  0.2679
29325W        W47529   3.113  14.810  12.723  0.0292 -0.0356  0.1475
29326W        W47530  11.950   9.754   0.616  0.1353 -0.0058  0.0974
29327W        W47531  17.280  11.723  16.230  0.0954  0.0104 -0.1747
29328W        W47532   9.732   9.578   4.281 -0.4215  0.1296  0.1696
29329W        W47533  15.147   7.425   3.762  0.0294 -0.0288 -0.0222
29330W        W47534  10.665  13.105  15.499  0.0324  0.0225  0.1210
29331W        W47535   9.140  13.500  12.424 -0.1168 -0.4446 -0.0593
29332W        W47536  15.877   1.794  16.502 -0.2525 -0.1239 -0.2358
29333W        W47537  11.741  15.356   0.521  0.0164 -0.0532  0.1747
29334W        W47538   8.690  13.513   3.483 -0.2982  0.1275 -0.0208
29335W        W47539  15.582  13.461   2.193  0.2325 -0.1543 -0.1056
29336W        W47540  13.352  10.393   0.159  0.2176 -0.2392 -0.1262
29337W        W47541   0.393   5.544  13.384 -0.1612  0.1287  0.0937
29338W        W47542  15.148   7.773  15.468  0.5663 -0.0169 -0.0674
29339W        W47543  14.653   6.538  16.488  0.0955  0.1496 -0.0034
29340W        W47544   4.447   8.765  13.917  0.1731 -0.1016 -0.3339
29341W        W47545  15.126   1.725   2.116  0.2462  0.0639  0.3481
29342W        W47546  11.547   5.525   1.536  0.0819  0.0077 -0.1024
29343W        W47547  17.259  17.187   0.939 -0.1097  0.2127  0.1705
29344W        W47548   2.645   0.240   0.727 -0.1284 -0.0717  0.0207
29345W        W47549   2.922   9.466  16.814  0.1904 -0.1718  0.1475
29346W        W47550   5.353   8.652  15.021  0.3580 -0.3432 -0.1055
29347W        W47551  12.771  10.738  14.603  0.2348  0.2425  0.0517
29348W        W47552   3.615   8.454   3.938 -0.0603 -0.0832 -0.4606
29349W        W47553  16.702  12.661  13.273  0.1708  0.2973  0.0462
29350W        W47554   2.894  10.847   3.330 -0.1219  0.1732 -0.0811
29351W        W47555  16.967   6.377   3.828  0.1575 -0.1009  0.0934
29352W        W47556   9.427   7.146   5.052 -0.1756 -0.1131  0.3117
29353W        W47557   8.842  16.278  17.324 -0.0309 -0.1904  0.1668
29354W        W47558   9.473   0.539   3.162 -0.1344 -0.2313  0.0532
29355W        W47559   1.362   5.575  14.611 -0.4407 -0.2923  0.1083
29356W        W47560  17.200  10.541   0.028 -0.0599 -0.0856 -0.2346
29357W        W47561  10.060   8.980   0.436 -0.3650 -0.2462  0.2267
29358W        W47562   3.347   7.538  17.223 -0.1758  0.3349 -0.1665
29359W        W47563   4.740  14.549  14.668 -0.0470 -0.2376 -0.1215
29360W        W47564   5.914   1.172   0.222 -0.0266 -0.0864  0.1028
29361W        W47565  15.286   5.330  15.184 -0.0672  0.0405  0.0616
29362W        W47566   0.355   6.920   5.148 -0.4517 -0.0033 -0.0090
29363W        W47567  14.571   9.967   3.625  0.1913  0.0751 -0.3270
29364W        W47568   0.236   9.706  16.936 -0.2869 -0.1189  0.1006
29365W        W47569   1.565  14.320  12.787 -0.0269 -0.2478 -0.1012
29366W        W47570  11.159  14.667   5.353 -0.3674  0.0970 -0.0258
29367W        W47571  10.338  13.339   3.762  0.2721  0.1251 -0.1857
29368W        W47572   0.701   7.313   3.910  0.1402 -0.0028 -0.3302
29369W        W47573  17.255  10.002  15.988 -0.2453  0.2086 -0.1635
29370W        W47574   3.584   1.020  16.872 -0.1818 -0.1692  0.0112
29371W        W47575  11.651   3.377   2.562 -0.1222 -0.0432 -0.2058
29372W        W47576   1.261   1.671  15.535  0.1928  0.0506 -0.0639
29373W        W47577  14.602   9.742   0.120  0.0130 -0.2737 -0.2547
29374W        W47578  14.001   5.470  12.437  0.1426  0.0756 -0.2223
29375W        W47579   9.688  16.784  12.759  0.1011  0.4814 -0.0205
29376W        W47580  15.670   6.803   4.091  0.0478  0.0600  0.1565
29377W        W47581   1.763   6.174   4.171  0.1675 -0.0891 -0.0907
29378W        W47582   3.611   9.305  16.055 -0.0728  0.3768 -0.0828
29379W        W47583   1.094  13.054  17.016  0.2093 -0.0485  0.0593
29380W        W47584   2.606  12.091   3.670  0.2939 -0.2324 -0.0387
29381W        W47585  10.878  13.780   2.936  0.0159  0.4179  0.1174
29382W        W47586  10.794   5.854  13.400  0.0437  0.3539 -0.0833
29383W        W47587   7.461  12.151   0.105 -0.0947  0.0745  0.0504
29384W        W47588  16.685   8.164  16.193 -0.1113 -0.1360  0.1764
29385W        W47589  12.393  13.373   0.057 -0.0533 -0.0115  0.0380
29386W        W47590  13.709   2.116   4.113  0.1067  0.0537 -0.2691
29387W        W47591   1.349   9.970  16.219  0.0079  0.1133 -0.0450
29388W        W47592  12.149  10.839   0.554 -0.1338  0.1386  0.0981
29389W        W47593   0.959  13.955   2.132  0.1544 -0.1889  0.0994
29390W        W47594  13.815  10.623   0.897 -0.2812  0.0234  0.1186
29391W        W47595  12.503   4.395  13.172  0.1571  0.0629 -0.0505
29392W        W47596   1.701   7.698  15.416  0.0897 -0.1687 -0.0077
29393W        W47597  14.986   0.696  17.059 -0.2893  0.0759 -0.0342
29394W        W47598   4.304   1.799  14.800 -0.0974  0.0308 -0.1356
29395W        W47599  13.238  16.614  15.805 -0.2222  0.0037 -0.2248
29396W        W47600  11.906   7.651   0.760  0.0527 -0.0271 -0.2217
29397W        W47601   2.765  12.587   3.817  0.1784  0.0487 -0.1524
29398W        W47602   3.296   1.488  14.730  0.0210  0.2302 -0.1272
29399W        W47603   2.716  16.710  13.995  0.0657 -0.3942 -0.1838
29400W        W47604   3.562  13.373   0.104 -0.1086  0.0087  0.1988
29401W        W47605  15.467   5.394  12.325 -0.2297  0.0976  0.1356
29402W        W47606   8.482   8.663   2.509 -0.0168  0.0787  0.1372
29403W        W47607  10.786   6.273  17.230 -0.1210 -0.4632 -0.0416
29404W        W47608   9.322   0.565  17.379  0.0029 -0.2436 -0.3677
29405W        W47609   3.717  14.582  15.681 -0.0577 -0.2562  0.1071
29406W        W47610   4.897  15.443   3.875  0.1113 -0.1278 -0.2369
29407W        W47611   4.877   8.000   1.700 -0.1471  0.0278 -0.1077
29408W        W47612   4.422  16.665   3.624  0.1120 -0.0787 -0.1395
29409W        W47613   3.889  12.785   4.127 -0.1342  0.0859  0.1969
29410W        W47614  14.990   7.921  15.959  0.0091  0.1688 -0.1722
29411W        W47615  15.104   4.639  12.597  0.2551  0.3551  0.0100
29412W        W47616   9.907   7.131  14.578  0.2713  0.0793 -0.1323
29413W        W47617  10.621   5.769  14.270 -0.0775  0.0860 -0.1028
29414W        W47618  11.531   3.321   4.063  0.0232 -0.0191  0.1558
29415W        W47619   3.828   2.265   4.876  0.0314 -0.1536  0.2769
29416W        W47620  16.444   3.852  15.598  0.2466 -0.1600  0.0875
29417W        W47621   2.075  15.968  13.729 -0.3884 -0.2145  0.2799
29418W        W47622   6.612  12.314   2.170 -0.1953  0.2854  0.0522
29419W        W47623  17.185   3.964   3.060  0.1348  0.1978  0.0080
29420W        W47624   7.882   4.801  14.972  0.0510 -0.0771 -0.0744
29421W        W47625   7.562  12.714  14.696 -0.2539 -0.1890 -0.2355
29422W        W47626  11.707   0.349   1.563  0.0390 -0.2630 -0.2669
29423W        W47627  16.410   9.981  15.460  0.2235 -0.1849 -0.0160
29424W        W47628  10.624   4.807  16.100  0.0113  0.3506 -0.1150
29425W        W47629   9.590   3.257   4.247 -0.0690 -0.2404  0.0102
29426W        W47630   7.274   3.711   2.586  0.1638 -0.0412 -0.1102
29427W        W47631  15.441   0.956  12.345 -0.0112  0.2683 -0.0192
29428W        W47632   6.763  11.675  16.719 -0.2640 -0.2041 -0.1578
29429W        W47633   2.197  17.129   3.301  0.2791  0.0523  0.4286
29430W        W47634   7.966  15.793  13.398  0.1473 -0.2681  0.0871
29431W        W47635  16.324   0.756   0.501  0.0074  0.1041  0.0710
29432W        W47636  17.110  10.948   1.819  0.1142  0.0380 -0.0036
29433W        W47637  11.630   5.561  16.229 -0.0555 -0.0095  0.1135
29434W        W47638   7.224   1.114   1.444 -0.0006  0.4649 -0.1700
29435W        W47639   4.767  14.877   3.664  0.2424 -0.0667  0.2750
29436W        W47640   2.218   5.909  15.426 -0.1202 -0.3941 -0.0742
29437W        W47641   5.132   9.552  16.036  0.1326  0.2965  0.0138
29438W        W47642   1.020  13.151   5.539 -0.2593  0.3258 -0.0104
29439W        W47643   0.248   3.447  12.316  0.1365  0.4063  0.1928
29440W        W47644  11.167  17.211  12.849  0.1958 -0.1640 -0.2039
29441W        W47645   8.243  12.110   2.289  0.0612  0.0753 -0.1179
29442W        W47646   0.235  13.701   6.378 -0.0171  0.1432  0.0782
29443W        W47647   9.451   2.622  11.819  0.1384  0.0369 -0.3093
29444W        W47648  12.172   5.545   3.497 -0.2947  0.1749 -0.0130
29445W        W47649  12.562   9.710   1.603 -0.0034 -0.2787 -0.2379
29446W        W47650   8.227   3.082  14.893  0.1655  0.1282 -0.1734
29447W        W47651   4.612   4.645  12.963  0.1448 -0.1321 -0.0367
29448W        W47652  13.802   7.924   1.738  0.0455 -0.0300  0.0634
29449W        W47653   9.078   5.249  12.438 -0.1204 -0.3909  0.0636
29450W        W47654  15.042  10.206  17.069  0.1579  0.0907  0.0592
29451W        W47655   6.730   0.508   5.726  0.1081  0.0840  0.0548
29452W        W47656  14.391   0.073  16.244 -0.0901  0.0085  0.2581
29453W        W47657   7.611   5.634  13.483  0.2619 -0.2720  0.2035
29454W        W47658   1.147   5.399   0.993  0.0544 -0.3413 -0.0524
29455W        W47659   4.942  10.888  13.872 -0.1161 -0.3173 -0.0604
29456W        W47660  13.339  13.125  12.621  0.2183 -0.0119  0.3130
29457W        W47661   3.481   2.553  12.670 -0.2065 -0.1245  0.0990
29458W        W47662   4.047  14.790  15.963 -0.0667  0.2836 -0.0493
29459W        W47663  12.679   4.670  13.579  0.1633 -0.2070  0.0145
29460W        W47664  16.821   0.685  15.990 -0.3496  0.1219  0.0761
29461W        W47665  11.684   1.141  12.825 -0.0292  0.1033 -0.1846
29462W        W47666  15.665  14.005   2.544 -0.0852 -0.0667  0.0027
29463W        W47667   9.239  11.066  12.198  0.0344  0.0030  0.0723
29464W        W47668  13.634   1.921  14.001 -0.0026 -0.1554 -0.2627
29465W        W47669   3.882   1.834  14.481  0.1855  0.0331 -0.1110
29466W        W47670  15.212   3.916  15.656 -0.2041  0.0776  0.1607
29467W        W47671   6.636  12.145  17.038  0.0131  0.3522  0.1496
29468W        W47672  11.182  13.771   1.230  0.0731  0.4992  0.0011
29469W        W47673   0.771  11.682  16.826  0.1653  0.0928  0.0925
29470W        W47674  13.973   4.132  16.410 -0.2617  0.2953  0.2163
29471W        W47675  16.466   7.642   2.032 -0.2549  0.0778  0.0565
29472W        W47676   4.090  13.805  15.956 -0.0477 -0.0333  0.1650
29473W        W47677  10.242  15.018  16.476 -0.2137  0.2650  0.2332
29474W        W47678   9.047   5.496  14.673  0.0644  0.3290 -0.1912
29475W        W47679  10.910  12.901   5.224 -0.1186 -0.1544 -0.2235
29476W        W47680  10.096   8.658  12.077  0.2044  0.1705 -0.2756
29477W        W47681   0.662   1.819  14.465 -0.0595  0.1811 -0.3755
29478W        W47682   8.976   4.172   3.047 -0.0265  0.0752  0.0529
29479W        W47683   9.985  15.178   1.233 -0.1368 -0.1375  0.1915
29480W        W47684   1.491   1.097   0.018 -0.0110 -0.0274 -0.0343
29481W        W47685   4.069   3.747  13.935 -0.0988  0.1165 -0.2810
29482W        W47686   3.036   0.185   4.510  0.0780 -0.2656 -0.0199
29483W        W47687   1.679   5.024   0.218 -0.2280  0.1481 -0.0582
29484W        W47688   1.915   3.517  13.875 -0.2014 -0.0442  0.2678
29485W        W47689  12.233   7.594  16.408 -0.3344  0.0381 -0.1392
29486W        W47690  12.569   1.188  15.467 -0.1423  0.1546 -0.0043
29487W        W47691   7.856   1.846   2.042  0.1803  0.0172  0.0095
29488W        W47692  10.539   8.752  12.730 -0.2355  0.2788 -0.2111
29489W        W47693  16.496  14.123  13.263  0.0598  0.0327  0.2726
29490W        W47694  14.947   2.619  15.304  0.2106 -0.0309  0.0331
29491W        W47695  11.718  10.414   5.039  0.1530 -0.1585 -0.0277
29492W        W47696  15.874  14.978   2.248 -0.0555  0.1077 -0.0521
29493W        W47697  16.904  11.223   0.901 -0.0803  0.2140 -0.2467
29494W        W47698   8.233   5.933  13.597 -0.0968  0.1953 -0.0086
29495W        W47699  10.918   0.326   0.938  0.1302 -0.1195  0.0956
29496W        W47700   5.132   6.246   3.776  0.1851  0.0964  0.0880
29497W        W47701   0.397  13.424  13.917  0.1412  0.2502  0.2123
29498W        W47702  16.899  14.617  17.088 -0.1428 -0.0154  0.0070
29499W        W47703   5.195   7.494   2.064  0.1226 -0.2234  0.1268
29500W        W47704   7.076   9.202  17.120 -0.3294 -0.2426  0.0462
29501W        W47705   1.099  11.283   0.775  0.0361  0.1267  0.2609
29502W        W47706   2.574  15.131   5.994 -0.0058  0.0079 -0.0247
29503W        W47707   2.647   4.561  12.685 -0.0599 -0.1345  0.0994
29504W        W47708   7.032   0.088   5.118 -0.0668  0.2917 -0.1305
29505ION     NA47709  12.064   7.182   6.078  0.1306  0.0508 -0.0562
29506ION     NA47710   6.617   4.051  12.284  0.3155 -0.0263 -0.0186
29507ION     NA47711   1.632  16.585  11.730  0.1613 -0.1144 -0.0631
29508ION     NA47712   7.717  11.841  11.432  0.2468 -0.1958 -0.2837
29509ION     NA47713   3.019  14.411   5.818  0.0753  0.1419 -0.2039
29510ION     NA47714  14.738   8.851  11.540 -0.0917 -0.1275 -0.0176
29511ION     NA47715   8.801  10.441   6.166  0.2566  0.2324 -0.1225
29512ION     NA47716  14.482  17.153   5.287  0.0276  0.1634  0.1160
29513ION     NA47717  14.468   8.061  11.484  0.0723  0.3870  0.1120
29514ION     NA47718  11.103   5.125   5.872 -0.2429  0.1084 -0.2541
29515ION     NA47719  10.069  16.458  15.603 -0.0022 -0.0632  0.2119
29516ION     NA47720   9.692   4.031  11.051 -0.1360  0.1441 -0.1603
29517ION     NA47721  16.332   5.816   0.119  0.1398 -0.0985 -0.1121
29518ION     NA47722   0.736  10.586   6.417 -0.0364  0.1885  0.2653
29519ION     NA47723  15.210   0.755   6.072 -0.2365  0.0974  0.0112
29520ION     NA47724  16.681   0.511  11.450  0.1034  0.0036  0.1747
29521ION     NA47725   6.448   7.486  11.294 -0.3102  0.0083  0.0165
29522ION     NA47726   8.981  15.858   6.107 -0.2004 -0.1207  0.2382
29523ION     NA47727   0.018  15.508  11.285  0.2592  0.1896  0.0813
29524ION     NA47728   2.030   7.229  11.563  0.0916 -0.0243  0.0566
29525ION     NA47729  12.824  10.675   6.359 -0.1061 -0.1755 -0.1001
29526ION     NA47730  13.090  11.577  11.558 -0.1040  0.1488 -0.4241
29527ION     NA47731  13.762   0.984   6.114 -0.0552  0.1595  0.0377
29528ION     NA47732   9.219   7.684   2.416  0.0101 -0.2562  0.0743
29529ION     NA47733  16.939   2.107   6.081 -0.0485 -0.1011 -0.0091
29530ION     NA47734   3.803   5.943  10.836  0.3156 -0.0810 -0.0503
29531ION     NA47735   2.887  12.373  11.683  0.0966 -0.2181  0.0129
29532ION     NA47736  15.903  14.443   5.875  0.0915  0.2148  0.2829
29533ION     NA47737   4.158   7.290   0.949 -0.2011 -0.2176  0.0099
29534ION     NA47738  11.554  11.942  11.379 -0.0910 -0.1372 -0.0371
29535ION     NA47739  14.920  13.907  11.555  0.0486 -0.0629  0.2357
29536ION     NA47740   6.821   1.734  11.188  0.0073  0.0097  0.2112
29537ION     NA47741  15.767   9.361   2.798 -0.1744  0.1605  0.4071
29538ION     NA47742   2.650   3.431  16.210  0.1134 -0.2060 -0.0114
29539ION     NA47743   6.346  11.539   4.433  0.0265  0.0591  0.2069
29540ION     NA47744   8.307  16.336   2.116 -0.2003 -0.1994  0.1661
29541ION     NA47745   2.581   2.642  11.546  0.1955 -0.0047  0.2616
29542ION     NA47746   9.431   5.761   5.686  0.0391 -0.0333  0.2506
29543ION     NA47747  14.029   3.099   1.179  0.0407 -0.0594 -0.0477
29544ION     NA47748   4.654   4.082   5.794 -0.1200 -0.2459  0.2178
29545ION     NA47749  10.875   9.701   6.326 -0.5412  0.2702 -0.3689
29546ION     NA47750  11.914   0.676   6.259 -0.1610  0.0912  0.0637
29547ION     NA47751   7.666  13.683   5.941  0.0221  0.2796  0.0453
29548ION     NA47752  15.762  16.743   6.101  0.2249 -0.1601  0.2083
29549ION     NA47753   9.837   9.699   6.121 -0.1063 -0.1854 -0.4179
29550ION     NA47754  15.132  12.652  11.633  0.1566 -0.1087  0.1586
29551ION     NA47755   5.796   5.223  11.184  0.0942  0.0832  0.0688
29552ION     NA47756   3.041  13.172   6.474  0.4042 -0.0765  0.1275
29553ION     NA47757   6.290  16.494   3.920 -0.2474 -0.2189 -0.1261
29554ION     NA47758   7.609   2.921   5.890  0.2189 -0.0676  0.2777
29555ION     NA47759   1.077  16.823  14.552  0.1119  0.1177 -0.1884
29556ION     NA47760   0.861   4.876  16.746  0.2733  0.0704  0.3718
29557ION     NA47761   2.220   3.169  15.221  0.0106 -0.1139 -0.1889
29558ION     NA47762   3.341  16.152  16.995  0.0244  0.0572 -0.2070
29559ION     NA47763  11.671   4.246   5.770 -0.3472 -0.0498 -0.0594
29560ION     NA47764   5.377   3.800   6.040  0.2291  0.2709 -0.1134
29561ION     NA47765  10.146   9.325   2.286 -0.1197  0.2317 -0.1813
29562ION     NA47766  16.610   3.347  11.510 -0.0586 -0.0165 -0.0733
29563ION     NA47767   4.819   4.576  14.727  0.1794 -0.0702  0.0867
29564ION     NA47768   2.245   4.828  16.279  0.0968 -0.0948 -0.1778
29565ION     NA47769   1.244   3.947  11.368 -0.0081  0.0003 -0.1847
29566ION     NA47770   9.259  14.302  15.890  0.0895 -0.4140 -0.1827
29567ION     NA47771  16.559  11.665   6.570 -0.0582  0.1539  0.1289
29568ION     NA47772   2.794  17.135   5.806  0.1698  0.4609  0.0458
29569ION     NA47773   6.271   8.117  12.104 -0.1087  0.2838 -0.0322
29570ION     NA47774  12.118  13.545   3.337 -0.0828 -0.2757  0.0035
29571ION     NA47775   6.557   7.068   5.654  0.1634 -0.0101 -0.0300
29572ION     NA47776   5.500  16.380  11.479  0.0307  0.0798 -0.0447
29573ION     NA47777  15.021  13.989   4.336  0.0554 -0.0973  0.4001
29574ION     NA47778  10.619   8.765  14.986 -0.1348  0.3172  0.1040
29575ION     NA47779  12.641  16.086  11.296 -0.0412  0.2162 -0.1399
29576ION     NA47780   5.458  10.465   2.432 -0.0381 -0.3720  0.0609
29577ION     NA47781  16.822   9.696  13.747  0.0938 -0.0647  0.0494
29578ION     NA47782   5.898   6.746   5.997  0.0071 -0.1639  0.0895
29579ION     NA47783  12.018   9.958   6.047  0.3405  0.1018  0.1251
29580ION     NA47784   7.064   8.127  11.088  0.0761  0.1939  0.1377
29581ION     NA47785   6.701   9.018  11.228  0.0147 -0.3427 -0.2205
29582ION     NA47786   6.417  12.720   6.121 -0.1758 -0.1871 -0.0300
29583ION     NA47787   0.211   6.985   6.220  0.1090 -0.1582 -0.2605
29584ION     NA47788  15.053   0.006   6.231 -0.1765 -0.1672  0.3157
29585ION     NA47789   6.389  12.788  11.649 -0.3129 -0.4414 -0.0808
29586ION     NA47790   0.598  15.256   6.229 -0.2750  0.0983 -0.0428
29587ION     NA47791   0.551  11.996   6.531 -0.0959 -0.2827  0.0333
29588ION     NA47792  12.109   0.262   5.929  0.1142  0.3416 -0.2724
29589ION     NA47793  12.124   7.291  11.321 -0.3321  0.1244 -0.0560
29590ION     NA47794   3.044   1.897  11.431  0.0110 -0.1790  0.2526
29591ION     NA47795  17.140   5.456   6.312 -0.1204  0.0443  0.3176
29592ION     NA47796   7.893  15.562  11.384  0.1528  0.2243 -0.0533
29593ION     NA47797   2.209   8.254  16.549 -0.0091  0.3781  0.0762
29594ION     NA47798   0.609   5.970   4.855 -0.1370 -0.0409 -0.0993
29595ION     NA47799   7.598   6.704  11.232 -0.2939  0.0654 -0.2266
29596ION     NA47800   7.305   8.959   6.034 -0.1097 -0.3056 -0.1812
29597ION     NA47801   1.878  16.278   6.082 -0.1452 -0.0289 -0.1620
29598ION     NA47802  13.277   2.663  14.216  0.2128 -0.0989  0.0780
29599ION     NA47803   3.166   7.846   5.940 -0.0841 -0.1837  0.1235
29600ION     NA47804   7.082   4.205   5.923  0.1048 -0.1132 -0.1448
29601ION     NA47805   5.391  15.594   6.186 -0.1048 -0.1208 -0.4882
29602ION     NA47806   6.897  11.910  11.722  0.3170 -0.2599 -0.0050
29603ION     NA47807   3.044   8.040   1.074 -0.0012 -0.2090 -0.0268
29604ION     NA47808  13.713   2.014   6.098  0.2030 -0.3594  0.1705
29605ION     NA47809   0.619  16.117   6.102  0.2293  0.3519 -0.1440
29606ION     NA47810   9.857  13.291  11.200  0.0372  0.0021  0.2694
29607ION     NA47811   1.521   1.492  14.560 -0.0643 -0.0183  0.0231
29608ION     NA47812   0.056  14.304   0.260 -0.0498  0.1521  0.2412
29609ION     NA47813  16.091  15.168  11.610  0.0181 -0.1829 -0.0987
29610ION     NA47814   4.891  14.530  11.446  0.1046 -0.0227  0.1840
29611ION     NA47815   6.727   0.730   2.602 -0.1283  0.1795  0.2209
29612ION     NA47816   5.092   9.888   6.104 -0.1478 -0.2813 -0.0346
29613ION     NA47817   0.591  16.603  11.542 -0.0472  0.2403 -0.0792
29614ION     NA47818  13.060   1.847  12.565 -0.3732 -0.1316  0.3277
29615ION     NA47819   0.120   9.996   6.177  0.1222 -0.1526 -0.0119
29616ION     NA47820   0.771   1.394   6.307  0.0409 -0.0072  0.0160
29617ION     NA47821  12.077  14.462  11.506 -0.0717  0.0794 -0.1044
29618ION     NA47822  11.832   8.672   3.815  0.2324  0.1719 -0.2290
29619ION     NA47823   0.449   2.529  12.083 -0.3907  0.0119  0.0810
29620ION     NA47824  12.848   8.831  11.938  0.0129  0.0377  0.2783
29621ION     NA47825  12.501   9.217   6.117  0.0314  0.0490  0.1093
29622ION     NA47826   7.705   9.767  11.354  0.0094  0.0126  0.0529
29623ION     NA47827  14.140   6.441  15.554  0.2703  0.0419 -0.0712
29624ION     NA47828  16.670   1.647   0.345 -0.3055  0.2294 -0.2172
29625ION     NA47829   3.794   8.320  13.132 -0.0330  0.1901  0.0375
29626ION     NA47830   9.281   9.099  13.140 -0.1595 -0.1075  0.2250
29627ION     NA47831  10.316   8.978   6.245  0.3426  0.0569  0.2187
29628ION     NA47832   3.718   6.563  11.062 -0.2749  0.0927  0.0171
29629ION     NA47833   5.780  13.746   4.981 -0.1430  0.0154  0.1243
29630ION     NA47834   3.152   1.309   5.946 -0.1474  0.1457 -0.0861
29631ION     NA47835   1.245   4.326   6.108  0.2942  0.2469  0.0010
29632ION     NA47836   8.552   2.599  11.188  0.1232 -0.0134  0.3086
29633ION     NA47837  17.224   1.206   6.473 -0.1727 -0.2995 -0.1479
29634ION     NA47838   9.649   4.934  11.041 -0.0654  0.0275  0.3182
29635ION     NA47839   7.847   1.190  11.146 -0.2945  0.2354  0.0823
29636ION     NA47840  16.345   3.370   6.180 -0.4091  0.3047  0.3781
29637ION     NA47841  12.468   1.669  11.502  0.1070  0.0243  0.1206
29638ION     NA47842  10.358   6.140  15.786 -0.0916  0.0462  0.0479
29639ION     NA47843   5.343   0.723   5.995 -0.1192 -0.3187 -0.1441
29640ION     NA47844   9.980  17.050   1.543  0.0445 -0.0178 -0.1068
29641ION     NA47845   8.984  12.842  11.512 -0.3154  0.2686  0.0906
29642ION     NA47846  14.085  14.134  11.535  0.0342  0.0917 -0.0749
29643ION     NA47847   6.207   5.977  11.127 -0.1143 -0.1525  0.1411
29644ION     NA47848   2.621   9.908   6.418  0.0806  0.2158  0.0983
29645ION     NA47849   2.521   1.159  11.471  0.2817  0.0032 -0.1410
29646ION     NA47850   5.947   9.321  11.749  0.0930 -0.0424 -0.1901
29647ION     NA47851   7.953   2.151  11.233 -0.2061  0.0215  0.0958
29648ION     NA47852   9.006   5.165   0.438 -0.2097  0.0029  0.0427
29649ION     NA47853   4.761   9.246   6.142  0.1942 -0.1307 -0.1932
29650ION     NA47854   1.339  12.649   6.552  0.1022  0.2188 -0.1880
29651ION     NA47855   2.096   6.271   5.856 -0.0568 -0.0821  0.2311
29652ION     NA47856   5.468   7.479  11.340 -0.0347 -0.0813  0.1277
29653ION     NA47857  11.490   8.709  11.069  0.1297  0.0465  0.2534
29654ION     NA47858   8.079   3.964   5.946 -0.2900  0.1811 -0.1175
29655ION     NA47859   4.857   5.504   6.070  0.0833  0.3210 -0.0594
29656ION     NA47860  17.140   4.014  11.500 -0.1435 -0.1623 -0.0054
29657ION     NA47861   1.460   0.917   6.138 -0.0003 -0.2260  0.0816
29658ION     NA47862  11.912   8.156   6.135 -0.0639 -0.0379 -0.2007
29659ION     NA47863   2.850  13.370   0.816  0.1656 -0.3356 -0.2883
29660ION     NA47864  11.156  14.441  11.776  0.0684 -0.0469  0.0349
29661ION     NA47865  14.600   2.406  15.680  0.3993 -0.0163  0.0171
29662ION     NA47866  13.198   8.610   6.309 -0.1448  0.0752  0.1790
29663ION     NA47867  14.993   4.018  11.164 -0.2856 -0.2055  0.0177
29664ION     NA47868   8.509  11.334  11.295  0.0706 -0.2365 -0.2927
29665ION     NA47869   0.169   9.089   6.329 -0.2506 -0.2146  0.1821
29666ION     NA47870   4.697  16.228   6.019  0.3384  0.0974 -0.1438
29667ION     NA47871   8.105   5.840  12.241  0.2527 -0.2813  0.0876
29668ION     NA47872  15.376   1.426  11.623 -0.1420 -0.0439  0.0502
29669ION     NA47873  12.793  11.504   6.496  0.0965 -0.0420 -0.0079
29670ION     NA47874   8.184  13.539  11.292  0.1211  0.0534 -0.1379
29671ION     NA47875   0.470  11.498  11.913 -0.1347  0.0983 -0.0645
29672ION     NA47876  11.849  12.310  15.174 -0.3655 -0.4488 -0.1303
29673ION     NA47877   6.314   1.940   6.108  0.0008 -0.1226  0.1523
29674ION     NA47878  12.785   0.949   6.225 -0.1097  0.0744  0.0703
29675ION     NA47879   2.006   2.861   3.122  0.0734  0.0986  0.0233
29676ION     NA47880  10.290   4.607   5.863  0.2114 -0.0954  0.0329
29677ION     NA47881   1.074   4.275  16.192  0.0527  0.2664  0.0930
29678ION     NA47882   5.956  16.686  11.299  0.1052  0.1050 -0.2718
29679ION     NA47883   1.279   5.970  13.680  0.3422  0.0215  0.0772
29680ION     NA47884   0.565   5.744   0.244  0.2099  0.0611  0.0889
29681ION     NA47885   8.783   4.998   5.864 -0.3917 -0.0948  0.0112
29682ION     NA47886   5.525   3.951  11.365  0.2081 -0.0424  0.1183
29683ION     NA47887   0.360   9.849  12.114 -0.0499 -0.2785 -0.0162
29684ION     NA47888  15.171  15.392  11.743 -0.0326  0.2758 -0.2316
29685ION     NA47889   5.070   6.424   5.913  0.0715  0.0201 -0.1380
29686ION     NA47890  10.076   8.284  11.310 -0.1612  0.2069  0.2374
29687ION     NA47891   7.131  10.505  11.544  0.0882 -0.0600 -0.0271
29688ION     NA47892   5.402   2.191   5.839 -0.1543  0.0716  0.0611
29689ION     NA47893  14.218   3.282  11.363  0.1338 -0.1670  0.1524
29690ION     NA47894   8.358  12.442  12.966  0.1771 -0.0362  0.1069
29691ION     NA47895   1.857   0.693   4.692  0.1370  0.0143  0.1426
29692ION     NA47896   5.971   5.521  11.700  0.0504 -0.0636  0.0183
29693ION     NA47897  14.342  13.277  11.569 -0.0395  0.2482 -0.1231
29694ION     NA47898   1.841  12.055   0.273  0.3096  0.0618  0.1566
29695ION     NA47899  15.043  13.037   6.297  0.0027 -0.1124 -0.3236
29696ION     NA47900   7.499   0.251  11.168 -0.2916  0.0720  0.1245
29697ION     NA47901   3.941   8.163   4.151 -0.0226  0.0431 -0.1625
29698ION     NA47902   7.919   5.757  11.553  0.3454  0.0809  0.0667
29699ION     NA47903  13.907   1.909  14.515  0.1547  0.2916 -0.0715
29700ION     NA47904  15.704   8.600  11.759 -0.2946 -0.2496 -0.0572
29701ION     NA47905   5.145   6.002  11.067  0.1486 -0.0752  0.4571
29702ION     NA47906  10.856   2.721   3.254  0.0976 -0.0096  0.2792
29703ION     NA47907   5.534  14.030  11.396  0.0562  0.1164 -0.0351
29704ION     NA47908  13.697  15.808   6.425  0.0029  0.1135 -0.2544
29705ION     NA47909  16.245  12.371   3.409  0.0300  0.1425  0.1348
29706ION     NA47910  12.003   9.193  11.558 -0.0217 -0.2538  0.0467
29707ION     NA47911   8.336  13.026   4.127 -0.0560 -0.1004 -0.0186
29708ION     NA47912   0.677  15.412  14.227 -0.1278 -0.1177  0.0530
29709ION     NA47913  10.736  12.118  11.692 -0.0999 -0.2388  0.1862
29710ION     NA47914   4.735   7.811  11.301  0.1712  0.0363  0.0007
29711ION     NA47915   0.667   7.650  11.394  0.1249  0.0524  0.0133
29712ION     NA47916  16.253  15.179   6.249 -0.2287  0.0855  0.1364
29713ION     NA47917   7.466   8.171   5.827 -0.2290  0.0799 -0.2564
29714ION     NA47918  11.229   3.251   0.387 -0.0074 -0.4156 -0.1224
29715ION     NA47919   0.717   7.939  17.157  0.1450  0.2714 -0.2583
29716ION     NA47920  10.390  12.162   0.940  0.2664  0.0314 -0.2508
29717ION     NA47921  16.713   9.989  11.685  0.0874 -0.1638 -0.0626
29718ION     NA47922  12.144  11.187  11.347 -0.3022 -0.0052 -0.1243
29719ION     NA47923   9.381   7.140  11.028  0.2673 -0.0324 -0.1797
29720ION     NA47924   2.004   8.572  11.632  0.3603 -0.0455 -0.0174
29721ION     NA47925  16.664  13.873  11.597  0.1546 -0.0042 -0.0514
29722ION     NA47926  14.664  15.934   6.313  0.0632  0.0922  0.0969
29723ION     NA47927   0.813   1.536  12.018  0.0702  0.0814 -0.1550
29724ION     NA47928  13.961   6.625  11.687  0.0281  0.3620 -0.0556
29725ION     NA47929   1.247   9.215  11.590 -0.0964 -0.4462  0.0732
29726ION     NA47930  12.078   2.900   4.923  0.1045  0.1461 -0.0761
29727ION     NA47931  11.128   0.506   6.180 -0.1446  0.1085 -0.1031
29728ION     NA47932   5.722   7.929  11.318  0.3067 -0.1258  0.2595
29729ION     NA47933   0.440   9.241  13.790 -0.0849 -0.1826  0.0036
29730ION     NA47934   4.722  14.778   5.035  0.0206 -0.1627  0.0783
29731ION     NA47935   4.929  11.765  16.743  0.4056 -0.1131  0.0295
29732ION     NA47936   2.940   7.599  13.945 -0.2815 -0.0257  0.0126
29733ION     NA47937   6.182   3.490  11.307  0.0734 -0.2000  0.1109
29734ION     NA47938  14.021  15.151  13.445  0.1435 -0.2186  0.2940
29735ION     NA47939   4.195   5.927   5.153 -0.1140 -0.3041  0.0857
29736ION     NA47940  16.048   2.580   6.142  0.3861  0.0102  0.0387
29737ION     NA47941  10.190  11.347  12.493 -0.1650  0.3231 -0.2227
29738ION     NA47942   5.615  17.294   6.237 -0.2758  0.1834 -0.3142
29739ION     NA47943  14.301   8.577  16.487  0.0955  0.0001 -0.2262
29740ION     NA47944   3.208   0.928   6.247  0.0223  0.1530  0.1227
29741ION     NA47945  12.507  14.310   3.749 -0.0013 -0.2184 -0.0212
29742ION     NA47946   1.497   5.883  11.451  0.0791 -0.2183 -0.0146
29743ION     NA47947   5.933  10.089   6.360  0.1235 -0.1482  0.2300
29744ION     NA47948   8.756   1.721  11.234  0.0543 -0.0130 -0.0187
29745ION     NA47949  16.413   1.815  11.586  0.0687  0.0025 -0.1017
29746ION     NA47950  10.619  16.777   5.318 -0.2746  0.0514 -0.4201
29747ION     NA47951  15.046  13.973   6.310 -0.1389 -0.0840  0.1074
29748ION     NA47952   2.046  12.580  11.573 -0.3083  0.0331 -0.3060
29749ION     NA47953   5.940   4.438   3.937  0.0940  0.2137 -0.0177
29750ION     NA47954   0.967   7.678   6.226  0.0115 -0.1810 -0.2618
29751ION     NA47955  17.094  13.376  13.668  0.0975  0.2808  0.1403
29752ION     NA47956   0.862   5.805  11.449  0.1481  0.1851  0.0716
29753ION     NA47957   6.115   1.715   3.129 -0.3912  0.2918 -0.2082
29754ION     NA47958  11.492  13.677   6.297  0.1183 -0.1921  0.2247
29755ION     NA47959  11.865   4.032   5.395  0.0108  0.1480  0.2391
29756ION     NA47960   3.594   0.029   6.213 -0.2683  0.2008  0.2828
29757ION     NA47961  11.679   0.203  13.537  0.0947  0.1725  0.0488
29758ION     NA47962   5.526  14.699   5.929 -0.1052 -0.0118 -0.0751
29759ION     NA47963   7.305  12.588   3.531 -0.0068  0.2504  0.0720
29760ION     NA47964  15.481   1.922  11.586 -0.1090 -0.4029 -0.1487
29761ION     NA47965   8.106   8.719   6.020  0.0424 -0.2125  0.0066
29762ION     NA47966   4.682  13.006   6.359  0.1933 -0.0249  0.0763
29763ION     NA47967   2.837  12.327   1.450 -0.3297  0.2591 -0.0726
29764ION     NA47968  11.127   2.239   5.543 -0.2044 -0.1125 -0.0590
29765ION     NA47969  16.335   3.498   1.345 -0.1099  0.1164  0.0131
29766ION     NA47970   4.054   4.849  16.383 -0.0972 -0.2801 -0.1736
29767ION     NA47971   3.967   6.344  13.350  0.0863  0.1616 -0.3396
29768ION     NA47972   4.675  15.495  11.418 -0.0444  0.2058 -0.1836
29769ION     NA47973   9.372   2.014  14.114 -0.0210 -0.0185  0.0107
29770ION     NA47974   2.093   5.604  11.378 -0.1749 -0.1743  0.1716
29771ION     NA47975  13.887   8.043  17.274 -0.0644  0.0087 -0.1627
29772ION     NA47976   0.232   6.355  11.384 -0.0586 -0.0907  0.1504
29773ION     NA47977  14.060  14.034   5.813 -0.0206 -0.0176  0.0595
29774ION     NA47978   5.499  15.677  11.177 -0.0496  0.1048 -0.0095
29775ION     NA47979   9.749   1.535  11.173  0.1324 -0.0756  0.2534
29776ION     NA47980  15.120  11.597   5.203  0.1512  0.1819 -0.2466
29777ION     NA47981   9.898   5.107   3.474  0.1249 -0.4890  0.0559
29778ION     NA47982   3.863   2.923   6.061  0.1328  0.0956 -0.1234
29779ION     NA47983   6.759  13.693  13.042 -0.4758  0.1240 -0.2909
29780ION     NA47984   7.021  14.163   1.623  0.1238 -0.1337 -0.0014
29781ION     NA47985   7.192  11.065  11.490  0.4127  0.0606 -0.1181
29782ION     NA47986  15.556  13.261   6.279  0.0068  0.1585 -0.1148
29783ION     NA47987   1.349   6.715   5.926 -0.2287  0.0523  0.1461
29784ION     NA47988   6.078  10.675   6.376  0.1898  0.3788  0.1363
29785ION     NA47989   0.110   9.934  11.708 -0.2874  0.1663  0.1616
29786ION     NA47990  14.184   3.309   6.039  0.1587  0.0308  0.0791
29787ION     NA47991  11.364   2.152   5.978  0.0709 -0.1354  0.0588
29788ION     NA47992  10.520   1.721   6.162  0.1952  0.1818 -0.1386
29789ION     NA47993  15.783   9.638  13.994  0.0228 -0.2455 -0.0903
29790ION     NA47994   5.755   9.283   6.099  0.0490 -0.1448  0.2002
29791ION     NA47995  15.100  12.517   6.374  0.2128  0.0675  0.1002
29792ION     NA47996  11.006  15.391   6.140 -0.1132  0.0997 -0.0038
29793ION     NA47997   3.352   9.907  11.594  0.1300  0.0019 -0.2277
29794ION     NA47998   4.892   0.131  11.616 -0.0584 -0.1315  0.2308
29795ION     NA47999   0.911  15.509  11.393  0.1295  0.1205  0.2736
29796ION     NA48000  16.337  11.237  15.894 -0.3051  0.0682  0.2819
29797ION     NA48001   7.132   3.991  14.381  0.0436  0.1126  0.1599
29798ION     NA48002   7.989   1.949   6.048 -0.1276  0.1680  0.0636
29799ION     NA48003   0.265   6.551   0.630  0.1119  0.1236 -0.3013
29800ION     NA48004   7.250   2.634  11.277  0.1254 -0.1215 -0.0712
29801ION     NA48005   9.213   4.355  11.477 -0.2051 -0.1676  0.1659
29802ION     NA48006   9.556  17.135   6.352 -0.0663  0.2899  0.0218
29803ION     NA48007  16.426  16.141   6.096 -0.2572  0.1192  0.1208
29804ION     NA48008  11.635  10.912  16.140 -0.2313 -0.2203  0.0353
29805ION     NA48009   8.710  15.006   6.124  0.0716  0.2435  0.1641
29806ION     NA48010   6.638  12.098   0.008  0.0273  0.0208 -0.2701
29807ION     NA48011   3.651  15.221   0.368 -0.1320  0.0297  0.1158
29808ION     NA48012  10.552   5.424  10.995  0.1097  0.0128 -0.0021
29809ION     NA48013  15.586   0.569  11.520  0.1862  0.1460 -0.0688
29810ION     NA48014  16.272   6.022   6.285 -0.0315  0.0239 -0.0433
29811ION     NA48015   2.119  13.101   6.530  0.0126 -0.1249 -0.0808
29812ION     NA48016   1.047  12.545   3.713 -0.0277 -0.2548  0.0029
29813ION     NA48017   4.367   0.634   6.225  0.1257 -0.1716 -0.1494
29814ION     NA48018  11.932   9.322  15.435  0.1987  0.3267 -0.1188
29815ION     NA48019  10.609   2.410  14.138  0.2844 -0.2129 -0.1473
29816ION     NA48020  13.047  13.594  13.383  0.3016 -0.1178  0.4325
29817ION     NA48021  16.818  16.309  11.554  0.2455  0.0599  0.1422
29818ION     NA48022  12.555  17.095  11.693 -0.2213 -0.1756  0.1449
29819ION     NA48023   4.205   2.639   5.841 -0.2949  0.2195  0.0674
29820ION     NA48024  14.869   6.191  11.477 -0.1758 -0.5688  0.1258
29821ION     NA48025   9.493   0.504  13.185  0.0281 -0.0878  0.0319
29822ION     NA48026  10.598  11.222  15.267  0.0556 -0.0924  0.0219
29823ION     NA48027   1.676  13.370  11.317 -0.1538 -0.0039  0.3358
29824ION     NA48028  11.822  12.791   6.317  0.1619  0.0624  0.0119
29825ION     NA48029   2.654   9.338   6.321 -0.2470 -0.1938  0.1643
29826ION     NA48030   4.072   7.373  12.077  0.0115 -0.0134 -0.0798
29827ION     NA48031  10.992   4.057   5.740 -0.1141 -0.1152 -0.0699
29828ION     NA48032   7.288   5.600   5.978 -0.0105  0.2771  0.0394
29829ION     NA48033  12.692   4.623   0.181  0.0956  0.0213  0.0232
29830ION     NA48034  12.805   3.324   1.449 -0.0321  0.3588 -0.0672
29831ION     NA48035  13.483  10.451  11.481  0.0334 -0.0078  0.3182
29832ION     NA48036   1.850   4.896   6.039 -0.1279 -0.0261 -0.2100
29833ION     NA48037  12.448   0.259   0.981 -0.0322  0.1129 -0.1472
29834ION     NA48038  15.429   5.410   6.226 -0.0876  0.2952  0.0399
29835ION     NA48039   1.586  10.479   6.464 -0.0080  0.1744 -0.0602
29836ION     NA48040  12.991  14.519   6.215 -0.2596 -0.1080 -0.2862
29837ION     NA48041  16.288   2.707  14.844 -0.2611  0.0560  0.1167
29838ION     NA48042   5.028  11.378  11.521  0.2182  0.1703  0.0164
29839ION     NA48043  17.272  16.641   6.095  0.1254 -0.0289  0.0749
29840ION     NA48044   0.776  13.364  11.628 -0.1127  0.2388  0.2937
29841ION     NA48045   6.727   6.584  11.414 -0.0086  0.0702  0.0974
29842ION     NA48046   3.147   7.327  11.189  0.2541  0.0586 -0.1566
29843ION     NA48047   3.561  14.974   6.041 -0.0173  0.1200 -0.1643
29844ION     NA48048  16.613  17.234   4.151  0.0513  0.1347 -0.4697
29845ION     NA48049   4.061   3.393  11.349 -0.1075  0.0880 -0.3467
29846ION     NA48050  11.228   4.191  11.002 -0.0838 -0.3815 -0.3134
29847ION     NA48051   0.987  14.355   6.263 -0.1690  0.0694  0.1529
29848ION     NA48052   9.562  15.679   6.092  0.2666 -0.1733  0.1297
29849ION     NA48053  16.100   7.595  15.742  0.1185 -0.0968 -0.0139
29850ION     NA48054  15.044  16.272   6.262 -0.1202  0.1676  0.2207
29851ION     NA48055  13.041  13.127  11.703  0.1480 -0.1369 -0.1931
29852ION     NA48056   3.271   4.964  11.333 -0.2321  0.0645 -0.0479
29853ION     NA48057   8.362   3.256  16.779 -0.0299 -0.0719  0.1862
29854ION     NA48058   3.189  10.836   6.585 -0.2977 -0.3077 -0.0625
29855ION     NA48059   3.925   7.825  11.357 -0.1338 -0.1230 -0.4009
29856ION     NA48060  10.363   4.587  10.897 -0.2132  0.2581 -0.2611
29857ION     NA48061   6.257   2.429   5.402 -0.1597  0.0804  0.2613
29858ION     NA48062  13.264   3.984  11.158  0.2581  0.1225  0.0789
29859ION     NA48063  14.869   3.422   0.417 -0.1646 -0.2136  0.2554
29860ION     NA48064  16.394   0.265   6.141  0.0612 -0.0903  0.1607
29861ION     NA48065  12.272  10.318  13.029 -0.1702 -0.0343 -0.0731
29862ION     NA48066  13.507  15.698  11.477  0.0344  0.0656 -0.0276
29863ION     NA48067  14.008   4.340   5.845  0.1378 -0.1723 -0.1914
29864ION     NA48068   8.861  13.421   6.272  0.3203 -0.2023  0.3523
29865ION     NA48069  13.771   0.327  13.870 -0.1008 -0.0317  0.1586
29866ION     NA48070   5.644   5.445   5.862 -0.0940 -0.0672 -0.3461
29867ION     NA48071   2.739   8.541  15.300  0.1647 -0.2397  0.1475
29868ION     NA48072  15.862   9.902   6.439 -0.0149 -0.0087  0.0087
29869ION     NA48073  12.896  16.468   5.661  0.2954  0.0666 -0.0314
29870ION     NA48074  12.667   3.197  11.149  0.4975 -0.0980 -0.1038
29871ION     NA48075  17.246   9.446  12.788 -0.2595 -0.1500  0.3349
29872ION     NA48076  16.963   2.552  11.521  0.0724  0.0551  0.2785
29873ION     NA48077   4.177   5.375  13.370 -0.1406  0.1796 -0.1606
29874ION     NA48078   0.763   5.841  11.917 -0.0320  0.1054  0.1361
29875ION     NA48079   9.853  14.099  11.444  0.1740  0.0427 -0.1993
29876ION     NA48080   6.641  12.064   6.055  0.0182 -0.0658  0.2638
29877ION     NA48081  12.430   7.507   6.237 -0.3601  0.0825  0.1841
29878ION     NA48082   2.150  17.171  17.459 -0.1944  0.1195 -0.0146
29879ION     NA48083  16.906   2.725   6.252  0.0225 -0.1834  0.0658
29880ION     NA48084  14.259  12.371   6.413  0.0474 -0.0920  0.2570
29881ION     NA48085  12.597   6.579   5.786 -0.0053  0.2119  0.3019
29882ION     NA48086   7.000   6.492  13.595 -0.0575  0.0120  0.0123
29883ION     NA48087   9.858  11.250  11.466 -0.1722  0.2354 -0.0011
29884ION     NA48088  10.018   6.406   5.990 -0.0283  0.2253  0.1171
29885ION     NA48089  11.992   1.970  11.538 -0.4980  0.3068  0.2967
29886ION     NA48090   7.708   4.908  11.316  0.1307  0.0831  0.3227
29887ION     NA48091   1.836   1.923  11.374  0.2794  0.0008  0.1243
29888ION     NA48092  15.380  14.865   6.434 -0.0870 -0.0142  0.1828
29889ION     NA48093  11.926  16.003  11.343 -0.2947  0.1683  0.0241
29890ION     NA48094   9.116  11.175   6.349 -0.1752 -0.1946 -0.0272
29891ION     NA48095   6.271  15.252  11.229 -0.1479 -0.0495 -0.2172
29892ION     NA48096   9.325   8.398  11.133 -0.1533 -0.1072 -0.0742
29893ION     NA48097   3.144   5.466  15.775  0.1183 -0.3450 -0.2797
29894ION     NA48098  16.568   7.276  11.597 -0.2541  0.0332 -0.3018
29895ION     NA48099  14.283   5.057  12.953 -0.1385 -0.0973  0.1102
29896ION     NA48100  16.034  17.178  11.540  0.2231 -0.2702  0.2218
29897ION     NA48101   6.459  17.016   6.239 -0.3042  0.3499  0.1696
29898ION     NA48102  16.284  11.437  11.724 -0.1197  0.3260  0.0031
29899ION     NA48103  16.214   9.164  11.494 -0.0094  0.3318 -0.1129
29900ION     NA48104  11.925  15.413  11.368 -0.0073 -0.1448  0.1051
29901ION     NA48105   3.741   3.683  14.327 -0.0159 -0.0446 -0.0372
29902ION     NA48106  10.035   4.614  17.497  0.2115 -0.1645  0.1125
29903ION     NA48107  11.869  10.984   6.249  0.0611 -0.0532  0.2016
29904ION     NA48108  16.736  11.536   2.555  0.0546  0.1915 -0.0111
29905ION     NA48109  14.260  13.001   6.235 -0.1425  0.1045  0.0365
29906ION     NA48110   2.563  10.054  17.030 -0.2557  0.0129  0.3697
29907ION     NA48111   1.583   6.397  11.458  0.0318 -0.0176  0.1254
29908ION     NA48112   5.866  11.398   0.297 -0.0915 -0.1542 -0.3182
29909ION     NA48113  11.373   6.585  11.209  0.1712 -0.1774 -0.1147
29910ION     NA48114   9.312  12.538   6.329  0.1629 -0.0875 -0.0463
29911ION     NA48115   7.282   2.800   0.030  0.3599 -0.1273 -0.0844
29912ION     NA48116  12.957   9.071  11.502 -0.0618  0.2822  0.1408
29913ION     NA48117   5.698   2.155  11.382  0.1625 -0.0671  0.4712
29914ION     NA48118  10.731   0.792   2.724  0.3635  0.3692 -0.1349
29915ION     NA48119   2.591  10.539  13.337 -0.0071  0.3478  0.2038
29916ION     NA48120   9.974  13.086   6.612 -0.0641  0.1721  0.5276
29917ION     NA48121   2.772   5.724   5.680  0.0021 -0.0802 -0.1216
29918ION     NA48122  13.657  12.131  11.726  0.0330 -0.0591 -0.3371
29919ION     NA48123   0.650   4.405  12.055  0.3356 -0.2650  0.0841
29920ION     NA48124   6.375   5.623   6.022 -0.0057 -0.0186  0.0791
29921ION     NA48125  13.975   0.889  11.625  0.2127  0.0999 -0.3008
29922ION     NA48126  13.293  16.062  14.296  0.0362 -0.2000  0.0860
29923ION     NA48127   2.713   8.943  11.796  0.0091  0.0095  0.1812
29924ION     NA48128   0.761  14.796  11.393  0.0727  0.0259  0.1011
29925ION     NA48129  10.833   2.639  13.247 -0.1664 -0.1199 -0.0013
29926ION     NA48130   4.982   3.324  11.403 -0.1422 -0.3887  0.2202
29927ION     NA48131   4.354  13.047  11.554 -0.1157 -0.1069 -0.1496
29928ION     NA48132   7.948   4.872   5.764  0.1943 -0.0987 -0.1776
29929ION     NA48133  15.878  12.235  11.575  0.3542 -0.2685 -0.1506
29930ION     NA48134  17.184   0.258   6.344  0.0897 -0.1539  0.1272
29931ION     NA48135  16.419   1.305   6.129  0.0448 -0.0707 -0.1760
29932ION     NA48136   8.755   3.606   5.973  0.1018  0.0070 -0.1090
29933ION     NA48137  10.799  11.152   5.534  0.0153 -0.2443 -0.0364
29934ION     NA48138  12.386   4.899  10.960  0.0942  0.1296 -0.1048
29935ION     NA48139  13.570  10.459   6.443 -0.1744  0.0694  0.0440
29936ION     NA48140  11.161   7.556  11.250 -0.1910 -0.1113  0.1169
29937ION     NA48141   3.685   3.360   6.277  0.3401  0.0945  0.0539
29938ION     NA48142  11.631  16.182   6.262 -0.4396  0.0741  0.1402
29939ION     NA48143   9.897   9.065  11.207 -0.0366  0.1600  0.2311
29940ION     NA48144  15.450  14.459  11.790 -0.0161 -0.4009  0.5426
29941ION     NA48145   1.194   9.826  11.682  0.0287 -0.0283  0.2954
29942ION     NA48146   4.757  12.264  11.659  0.0255  0.1426  0.0780
29943ION     NA48147  13.292  11.988   5.413 -0.0012  0.1347  0.1722
29944ION     NA48148   4.608  12.153  15.760 -0.1542 -0.3235  0.0963
29945ION     NA48149   9.448   2.124  11.297  0.0001 -0.2105  0.1398
29946ION     NA48150  13.762   8.402   6.294  0.0791  0.0004  0.3161
29947ION     NA48151   8.589   8.107  11.054 -0.1255  0.3713 -0.2334
29948ION     NA48152  11.118   2.306  11.502 -0.1369 -0.2825 -0.0476
29949ION     NA48153   5.237  12.328  14.208  0.1957 -0.1978 -0.0046
29950ION     NA48154   8.092  10.951   4.981  0.0580  0.2392 -0.2143
29951ION     NA48155   6.361   4.457  11.172 -0.4024 -0.1903 -0.0509
29952ION     NA48156   1.674   3.179  13.158  0.0238  0.2058 -0.1909
29953ION     NA48157  13.763   2.454  11.400  0.1304 -0.1013 -0.1493
29954ION     NA48158   2.259   9.287  14.130  0.0851 -0.0486 -0.1922
29955ION     NA48159   1.568   1.176  12.908 -0.1404  0.1522 -0.1858
29956ION     NA48160  10.639  14.556   6.532  0.0787 -0.2150  0.0477
29957ION     NA48161   8.290  10.731   5.988 -0.0581  0.0737  0.0011
29958ION     NA48162  15.526  14.182   4.987  0.2841  0.0132  0.0168
29959ION     NA48163   6.739  11.146   6.107 -0.3511 -0.2713 -0.0185
29960ION     NA48164  15.340  10.548   6.331  0.1381  0.1354 -0.1127
29961ION     NA48165   1.484  14.150   2.775  0.0196 -0.1375  0.1024
29962ION     NA48166   3.010   4.488   3.067  0.0864 -0.1567 -0.4400
29963ION     NA48167  13.044   4.577   5.585 -0.2102 -0.0914  0.2849
29964ION     NA48168  14.590   1.576   6.173 -0.2285  0.1292  0.0207
29965ION     NA48169  12.565   7.986  11.584  0.1013  0.0900 -0.0317
29966ION     NA48170  17.059   8.001  11.515  0.3295  0.0593  0.2045
29967ION     NA48171   1.252  11.320   6.379 -0.0290  0.0516 -0.2630
29968ION     NA48172  15.668   8.012  13.667  0.0004  0.0502  0.1386
29969ION     NA48173  11.824   5.691  11.198 -0.2282 -0.1726 -0.0987
29970ION     NA48174   9.453  14.972  11.268  0.0301 -0.0631  0.0583
29971ION     NA48175  10.977  12.934   6.300  0.2341 -0.0763 -0.0302
29972ION     NA48176   2.607   8.499   6.295  0.3934 -0.0773  0.1001
29973ION     NA48177  11.518  16.340   1.149  0.0875  0.1792  0.0357
29974ION     NA48178   1.700   8.371   6.249 -0.3656  0.3873 -0.0360
29975ION     NA48179  16.166  14.687  11.447 -0.0692  0.0857  0.4449
29976ION     NA48180   6.985   6.608   0.032  0.0374  0.0380  0.2566
29977ION     NA48181  13.505   3.900   1.303 -0.1463  0.0435  0.0605
29978ION     NA48182   0.293  16.375  11.214 -0.0195  0.0923 -0.0926
29979ION     NA48183   6.247   0.614   6.000 -0.0903  0.0566  0.1945
29980ION     NA48184   3.493   6.851  13.876 -0.0216 -0.2664  0.1197
29981ION     NA48185  10.759   4.946  15.312  0.2340 -0.1728  0.0073
29982ION     NA48186   3.537   1.426   2.787  0.4325  0.1122  0.2720
29983ION     NA48187  12.649   5.697  11.194 -0.1257  0.2431 -0.1942
29984ION     NA48188   2.721   8.758   3.030 -0.2803 -0.0792  0.0822
29985ION     NA48189   3.166  10.472   3.134 -0.0153  0.0984  0.1456
29986ION     NA48190   8.738   1.305   6.232 -0.0665  0.2394 -0.3587
29987ION     NA48191  16.671   4.824  11.355 -0.2206  0.1761  0.2843
29988ION     NA48192   4.816   7.695   6.120  0.1690  0.2124  0.2219
29989ION     NA48193   6.879   6.322   5.989 -0.2076 -0.3057 -0.1460
29990ION     NA48194  15.857   6.945   2.598  0.1906 -0.0083 -0.3062
29991ION     NA48195  15.633   3.356  11.459  0.0765 -0.1412  0.1140
29992ION     NA48196   9.200   5.543  14.134 -0.3117  0.0963  0.0855
29993ION     NA48197  15.971   4.733   0.818  0.0020 -0.2377  0.0523
29994ION     NA48198   6.827   7.195   6.043 -0.0230 -0.0448  0.1770
29995ION     NA48199  15.251  10.896  15.659  0.0348  0.3691  0.0754
29996ION     NA48200   1.971   7.687   6.294  0.0065 -0.4329  0.3852
29997ION     NA48201   2.706  12.992   4.686  0.2763 -0.0530 -0.0696
29998ION     NA48202   4.723   6.593   3.934 -0.3335  0.3075 -0.1439
29999ION     NA48203  12.228   2.425   6.284 -0.1746  0.2788  0.1303
30000ION     NA48204   6.833   2.712   6.073  0.1818 -0.1428 -0.0521
30001ION     NA48205   5.343  11.951  11.755 -0.2039 -0.0352  0.3323
30002ION     NA48206   8.397   7.203  11.179  0.2520  0.2608  0.2895
30003ION     NA48207   5.214  13.150   6.414  0.1502 -0.2142  0.1708
30004ION     NA48208  16.754   7.641   6.088 -0.2877 -0.1754 -0.1626
30005ION     NA48209  12.215   5.737   5.551  0.3664  0.1261  0.1106
30006ION     NA48210   5.052   6.834  11.167 -0.4346  0.0440 -0.1827
30007ION     NA48211  15.240   2.251   6.024 -0.0225  0.0477  0.0192
30008ION     NA48212   2.365  16.874  11.475  0.1804 -0.1882 -0.0135
30009ION     NA48213   4.865   6.094  12.802  0.3902  0.1232  0.1883
30010ION     NA48214   5.526  13.699   5.806 -0.2446  0.1294  0.1338
30011ION     NA48215   6.156   4.248   5.888  0.0803  0.1606 -0.2543
30012ION     NA48216   4.627  10.663   6.299  0.1132 -0.1357  0.0099
30013ION     NA48217  12.264  16.782   6.263  0.0126  0.0547  0.1929
30014ION     NA48218   8.534   5.024  11.248 -0.2094 -0.2180 -0.3473
30015ION     NA48219   1.151  12.662  11.719 -0.0875  0.0306 -0.1060
30016ION     NA48220   7.946  13.024  14.650  0.1305 -0.1713  0.1166
30017ION     NA48221  12.755  15.795   4.179 -0.2608 -0.0188  0.1592
30018ION     NA48222   0.303  14.325   6.239  0.2072  0.3064  0.1793
30019ION     NA48223  13.818  13.907   6.329 -0.2579  0.0998 -0.1092
30020ION     NA48224  10.970   0.587   5.220  0.0702  0.0658  0.1766
30021ION     NA48225   3.363   9.382   6.195  0.0071  0.1286  0.1210
30022ION     NA48226  10.962   0.661  11.384  0.0982 -0.0880  0.0836
30023ION     NA48227  10.448   8.998  15.820  0.0095  0.1457 -0.2965
30024ION     NA48228   6.634   1.518   6.106 -0.1281  0.0621 -0.0211
30025ION     NA48229   4.988   7.168  16.899 -0.3968 -0.7155  0.1189
30026ION     NA48230   7.713  15.049  16.565  0.2849  0.1282  0.0406
30027ION     NA48231  14.998  11.644   6.491  0.0061  0.0955  0.0600
30028ION     NA48232   1.673   3.443   5.983 -0.1541 -0.1657  0.0072
30029ION     NA48233   7.255   9.293  14.613  0.0411 -0.0008 -0.0834
30030ION     NA48234   1.308  11.807   6.461  0.2196 -0.0477  0.0271
30031ION     NA48235   1.751   7.289   6.075 -0.1056 -0.1106  0.0757
30032ION     NA48236  12.720  12.399   6.358  0.2075 -0.0448 -0.1524
30033ION     NA48237   4.064   1.074  11.381  0.2231  0.0829 -0.1326
30034ION     NA48238   9.701   3.011  11.036  0.2237 -0.1586 -0.4302
30035ION     NA48239   4.518   1.697   6.069 -0.0413  0.0723 -0.0445
30036ION     NA48240  11.875  17.159  11.532  0.0152 -0.0985  0.1110
30037ION     NA48241   2.838  16.189   6.162  0.2312  0.1878  0.0953
30038ION     NA48242   6.001   7.627   6.095 -0.0645 -0.1839  0.2635
30039ION     NA48243   2.601  10.091   0.436 -0.0199  0.0859  0.1141
30040ION     NA48244  13.409  12.586   2.321  0.3424  0.1032  0.2974
30041ION     NA48245   5.324   1.183  11.227 -0.2333 -0.0332 -0.1247
30042ION     NA48246  12.572   3.230   6.087  0.0288  0.3675 -0.1839
30043ION     NA48247  13.707   9.024  11.451 -0.2027 -0.1749 -0.0598
30044ION     NA48248   7.165   0.252   6.019  0.1324 -0.2446  0.0983
30045ION     NA48249  12.885   2.408  11.372  0.0000 -0.0558  0.1223
30046ION     NA48250   5.156   8.472   6.234 -0.1550 -0.0460 -0.3207
30047ION     NA48251   1.008  13.592   6.345 -0.0404 -0.4024 -0.2403
30048ION     NA48252  16.815  12.985   6.193  0.0383 -0.0351  0.2021
30049ION     NA48253   8.669  14.946  13.604  0.0162 -0.2848  0.0770
30050ION     NA48254   3.066  16.951  15.633 -0.2761 -0.4112 -0.0847
30051ION     NA48255  14.338  13.692  15.353 -0.2513  0.0601  0.1548
30052ION     NA48256   8.160  14.035  11.459 -0.1904  0.5213  0.1463
30053ION     NA48257  14.578   4.909   6.106 -0.2670 -0.0847  0.2267
30054ION     NA48258   7.741  14.977   5.885  0.2655 -0.1924  0.0696
30055ION     NA48259  12.734  12.840  15.556 -0.0313  0.1029  0.0109
30056ION     NA48260  10.196  15.437   6.344 -0.0759  0.4490  0.0309
30057ION     NA48261   4.615  13.987   6.045  0.0625 -0.0115 -0.1291
30058ION     NA48262  17.074  15.580   6.295  0.2404 -0.3076 -0.0673
30059ION     NA48263  16.540   4.008   5.567 -0.2277  0.1149 -0.1311
30060ION     NA48264  14.762   0.807  11.517 -0.0707 -0.1088 -0.0764
30061ION     NA48265   5.390   4.688   5.814  0.2444 -0.0682 -0.0869
30062ION     NA48266   8.299   6.326  13.917 -0.1080 -0.0781  0.3202
30063ION     NA48267   8.992  14.181   5.854 -0.0043  0.3399 -0.1200
30064ION     NA48268   0.741  16.929   4.043 -0.1507  0.0790 -0.1038
30065ION     NA48269   2.963   0.221  11.337 -0.2547  0.2441 -0.0157
30066ION     NA48270   6.378   8.535   6.074 -0.3172  0.0815 -0.1030
30067ION     NA48271  13.662  13.411   6.239  0.1000  0.1196 -0.0403
30068ION     NA48272   7.786  10.349  11.430  0.1585 -0.0346  0.1448
30069ION     NA48273  16.711   6.283  11.588 -0.2999 -0.1062 -0.0160
30070ION     NA48274  15.678  15.382  11.582 -0.1389 -0.0388  0.1247
30071ION     NA48275  17.227   4.019   6.250 -0.0654 -0.0537 -0.0759
30072ION     NA48276   6.956  15.793   5.891  0.1189 -0.1602 -0.2096
30073ION     NA48277   5.066   4.649  11.091  0.1328  0.0078  0.0900
30074ION     NA48278   7.989  12.679  11.680 -0.1181  0.0764 -0.0380
30075ION     NA48279  15.930  14.150   6.359  0.0642 -0.1800 -0.0207
30076ION     NA48280  13.029   9.728  11.275  0.1870 -0.1349 -0.0662
30077ION     NA48281   4.742   2.352  11.273  0.1131  0.2517 -0.1016
30078ION     NA48282   3.913  13.346   6.181 -0.1471 -0.4096 -0.2364
30079ION     NA48283   4.513  14.938   6.027  0.2161 -0.1674 -0.2333
30080ION     NA48284   1.738   0.094  11.542  0.2058  0.1774 -0.3697
30081ION     NA48285   2.261  13.965  11.190  0.0713  0.0798  0.3060
30082ION     NA48286   8.619   0.821  11.340 -0.3752 -0.0833 -0.2300
30083ION     NA48287  17.241  15.122   2.255 -0.0341  0.2833 -0.0734
30084ION     NA48288  16.845  12.240  11.714  0.2534  0.0702  0.0643
30085ION     NA48289   3.986  14.289   6.102  0.1530  0.2245 -0.2840
30086ION     NA48290  15.028  16.137  11.505  0.0802 -0.0875 -0.1473
30087ION     NA48291   9.500  11.640   6.255  0.2140 -0.1953 -0.4820
30088ION     NA48292  15.372  10.398  11.821 -0.0228  0.0761  0.2382
30089ION     NA48293   5.887  11.526   6.162 -0.0356  0.3355 -0.7387
30090ION     NA48294  10.593  13.925  11.584 -0.3054  0.1325  0.0986
30091ION     NA48295   7.025   4.657   6.148  0.1529 -0.1743 -0.3145
30092ION     NA48296   1.412  14.876  11.910  0.0827  0.3517  0.2917
30093ION     NA48297   3.562  12.519   6.315  0.0391  0.0706  0.3575
30094ION     NA48298   5.028  14.896  15.927 -0.2010 -0.0727 -0.1549
30095ION     NA48299  11.440  12.512   2.618 -0.1816 -0.0183 -0.2707
30096ION     NA48300   4.644   7.078  10.997 -0.2832 -0.0360 -0.0403
30097ION     NA48301   8.597   6.537   6.069  0.0781 -0.1242 -0.0389
30098ION     NA48302   0.703   5.162   6.140 -0.1097  0.5068 -0.1975
30099ION     NA48303   1.607  10.824  12.452  0.0820  0.1347 -0.0845
30100ION     NA48304   7.468  11.645   6.159  0.0422 -0.0237  0.0505
30101ION     NA48305   7.876   8.153  11.704  0.0759 -0.2395 -0.2035
30102ION     NA48306   3.158   6.164   5.876  0.0592 -0.2696  0.1757
30103ION     NA48307  11.561  13.584  11.497 -0.0549 -0.2281 -0.0737
30104ION     NA48308  13.473   7.636   5.361 -0.1982 -0.0211 -0.1615
30105ION     NA48309  13.598   8.187   2.108 -0.1476 -0.2352  0.2128
30106ION     NA48310   4.098  17.185  13.249 -0.0959 -0.3027 -0.0156
30107ION     NA48311   3.754  16.956  11.414  0.3771  0.2707 -0.0334
30108ION     NA48312   9.507  16.617   6.100  0.1566  0.2469  0.1986
30109ION     NA48313  16.777  10.716  11.649  0.1758  0.1487  0.0447
30110ION     NA48314  13.864   7.341  11.471 -0.3482  0.3935  0.1785
30111ION     NA48315  15.086   7.937  14.978 -0.1007  0.0004 -0.0371
30112ION     NA48316   8.590   9.478   6.185  0.0626 -0.4820  0.0202
30113ION     NA48317   5.302  13.247  16.612 -0.0587 -0.1384 -0.0124
30114ION     NA48318   8.609   9.132   3.257  0.0301 -0.3052 -0.0080
30115ION     NA48319   7.248   4.584  11.280  0.0632 -0.0246 -0.0067
30116ION     NA48320   7.023   0.821  11.302 -0.2454 -0.0814 -0.2197
30117ION     NA48321   0.173  14.039  11.599 -0.2208  0.0606  0.1465
30118ION     NA48322   1.847  13.940   6.286  0.1179  0.1748  0.3029
30119ION     NA48323  11.762   2.498   6.089 -0.0884  0.0184  0.2586
30120ION     NA48324   5.844   2.997  11.451 -0.0983 -0.0511  0.2917
30121ION     NA48325  11.014   8.598  11.525  0.2361  0.1221  0.2626
30122ION     NA48326  13.936   3.234   0.175  0.2698  0.2248  0.0135
30123ION     NA48327  10.952  10.229  11.264 -0.2358  0.0041 -0.0007
30124ION     NA48328   2.294   9.854  11.769  0.0383 -0.1107 -0.1552
30125ION     NA48329  14.404  11.818   6.348 -0.1563 -0.0513 -0.0984
30126ION     NA48330   3.844   7.818   6.175  0.0934 -0.1392 -0.0906
30127ION     NA48331  16.075   2.686  11.645 -0.1204 -0.1010 -0.0529
30128ION     NA48332   6.593   9.578   6.246 -0.1354 -0.0154 -0.5238
30129ION     NA48333  13.553  16.194  11.708 -0.0188 -0.0421  0.6244
30130ION     NA48334   4.602   9.282  11.344  0.2647  0.0378 -0.1179
30131ION     NA48335   2.190   4.355   0.919  0.0357  0.2301  0.0219
30132ION     NA48336   1.390   5.847   6.190 -0.3331  0.3863  0.0535
30133ION     NA48337  13.127  14.729  11.433 -0.0061 -0.1178 -0.0939
30134ION     NA48338   6.814  14.550  11.128  0.0189 -0.1009  0.2925
30135ION     NA48339   0.180   8.291  11.494  0.0112 -0.1830  0.0084
30136ION     NA48340  16.153  10.041  11.707  0.1208  0.1630 -0.1117
30137ION     NA48341  14.689   7.087  11.507  0.1316 -0.0726 -0.2078
30138ION     NA48342  10.619   4.692   4.646  0.1306  0.3570  0.1118
30139ION     NA48343   9.320   5.321  11.183 -0.0644 -0.0517  0.1067
30140ION     NA48344   9.315   7.018   5.938 -0.3479 -0.0829 -0.1091
30141ION     NA48345   7.050  16.921   3.812 -0.0125  0.1636 -0.1479
30142ION     NA48346  12.390   3.982  11.266 -0.2920  0.6045  0.0176
30143ION     NA48347  14.246  16.820   6.401  0.1571  0.1398 -0.0111
30144ION     NA48348  16.939   5.307  16.638  0.0490  0.1442 -0.0198
30145ION     NA48349  10.093  14.800   1.603  0.0097  0.2204 -0.0123
30146ION     NA48350  15.552   8.616   5.524  0.5003 -0.1042 -0.0075
30147ION     NA48351   7.148   2.080  13.830 -0.0738  0.2641  0.0594
30148ION     NA48352   8.092   5.409   6.083  0.2647 -0.0685 -0.2203
30149ION     NA48353   6.965  14.160   5.172 -0.2086 -0.1632  0.1504
30150ION     NA48354   3.115  11.546   6.463  0.2734  0.1203  0.1280
30151ION     NA48355   8.831   2.450   5.918  0.1340  0.0698 -0.1909
30152ION     NA48356  12.510  15.860   6.447  0.2918 -0.0171 -0.2423
30153ION     NA48357  14.843   3.371  14.926  0.2054  0.1624 -0.0466
30154ION     NA48358   7.583   8.904  11.192 -0.3060 -0.1593  0.1234
30155ION     NA48359   0.750   2.230   3.081 -0.3101 -0.0674  0.2857
30156ION     NA48360   2.279   1.164   6.100 -0.0430 -0.0535  0.0622
30157ION     NA48361   3.002   6.058  13.412  0.0777  0.0674  0.0385
30158ION     NA48362  13.638  11.654   4.703 -0.1645 -0.1966  0.1140
30159ION     NA48363   3.499   2.276   1.544  0.2290 -0.1709  0.2525
30160ION     NA48364   1.383  15.645  15.775  0.1687 -0.0501  0.3294
30161ION     NA48365   9.889  14.850  16.883 -0.1608  0.0542 -0.5229
30162ION     NA48366   6.939  10.382   6.277  0.0967 -0.0894  0.0046
30163ION     NA48367  15.717  16.935  12.434  0.1285  0.0143  0.2050
30164ION     NA48368   9.439  16.710  11.240 -0.2577  0.2959  0.4757
30165ION     NA48369   8.329   7.948   5.987 -0.1975  0.0266 -0.2571
30166ION     NA48370   3.406  16.308   0.616  0.0949  0.2099  0.1315
30167ION     NA48371   2.741  12.305   6.465  0.4619 -0.3261 -0.0486
30168ION     NA48372   6.568   8.069   6.014 -0.1209 -0.0958 -0.1622
30169ION     NA48373   1.467  15.398  11.421 -0.0506  0.2133  0.0228
30170ION     NA48374   7.458   6.015  11.193  0.3006 -0.3559  0.0005
30171ION     NA48375  15.664  10.439   5.151 -0.0646  0.0875  0.1630
30172ION     NA48376   4.053   9.685   5.632 -0.2506  0.0293 -0.0617
30173ION     NA48377   2.763  13.230  14.814 -0.1251 -0.0018 -0.1781
30174ION     NA48378  15.674  15.860   5.997  0.0306  0.1833 -0.2615
30175ION     NA48379  14.301  15.689  11.677 -0.2459 -0.1058 -0.1058
30176ION     NA48380   4.433   8.942   2.532 -0.2538  0.1184 -0.3418
30177ION     NA48381  15.880  15.631   3.376  0.1004  0.1100  0.2634
30178ION     NA48382   9.064   1.949   3.547 -0.0224 -0.3344  0.1702
30179ION     NA48383   0.454  17.025   6.078 -0.1536  0.1861 -0.0691
30180ION     NA48384  15.945   3.663   6.201 -0.1368 -0.0985 -0.0482
30181ION     NA48385   1.251   8.195  11.473  0.0117  0.0368  0.0694
30182ION     NA48386  11.890   8.686   2.061  0.3393  0.4544  0.1014
30183ION     NA48387   7.701  12.119   6.224 -0.0080 -0.2741 -0.1917
30184ION     NA48388   1.799   9.551   6.191  0.0417 -0.2335 -0.3316
30185ION     NA48389   6.172   0.727  11.356 -0.1365 -0.0172 -0.1460
30186ION     NA48390  12.002   1.545   6.183  0.0306 -0.2318  0.2615
30187ION     NA48391   8.047  16.311  11.362  0.0904 -0.2407  0.1116
30188ION     NA48392   2.876   3.692   6.210 -0.1664 -0.0656 -0.1530
30189ION     NA48393   1.644  15.236   0.974  0.1451 -0.0270 -0.1224
30190ION     NA48394  10.467   8.005   6.192 -0.0037  0.0078  0.0032
30191ION     NA48395  14.360  15.340   6.019  0.1184  0.0504 -0.1417
30192ION     NA48396   3.705  13.563  11.594  0.2427 -0.1884  0.0056
30193ION     NA48397   3.383   2.630  11.260  0.0987  0.1531  0.0634
30194ION     NA48398   9.894   5.937  11.061 -0.1857  0.3423  0.1030
30195ION     NA48399  14.404   9.914   6.410  0.1854  0.1176  0.0903
30196ION     NA48400   0.185   5.074  11.663  0.0404  0.0863 -0.0100
30197ION     NA48401   9.013  13.654  11.423  0.1174  0.0010  0.1821
30198ION     NA48402  10.261   0.049  11.427 -0.1046  0.0978 -0.1794
30199ION     NA48403   8.742  15.725  11.301 -0.2359  0.2603  0.2096
30200ION     NA48404   9.495   2.859   0.958 -0.1186 -0.0981 -0.0767
30201ION     NA48405  10.623   0.236   0.095 -0.2311 -0.2821  0.0902
30202ION     NA48406  11.169  11.135  11.561  0.0650 -0.5246  0.0872
30203ION     NA48407  15.480   9.039   6.364 -0.2142  0.1347  0.0197
30204ION     NA48408   9.674  13.910   6.418 -0.2741 -0.0195 -0.1770
30205ION     NA48409   9.326   0.642   6.175  0.2423 -0.0536  0.0276
30206ION     NA48410  15.322   7.789  11.561  0.2326  0.0026  0.0186
30207ION     NA48411   3.152   4.761  14.728  0.5062  0.2455  0.2667
30208ION     NA48412   1.491  17.197   6.216 -0.0531 -0.0374 -0.0467
30209ION     NA48413  12.255   7.044   0.250 -0.2720 -0.0995 -0.3443
30210ION     NA48414   1.108  16.615   5.599 -0.0101 -0.0212 -0.1426
30211ION     NA48415   7.472   7.269  11.289 -0.1276  0.0765 -0.0962
30212ION     NA48416  17.293   6.252   6.136 -0.2511 -0.1183 -0.2160
30213ION     NA48417   0.323   3.192  11.497 -0.3217  0.2082 -0.0037
30214ION     NA48418   3.811   1.878  11.257 -0.0990  0.0162  0.2526
30215ION     NA48419   3.719  15.853  11.302  0.2052  0.2409 -0.0791
30216ION     NA48420  11.256  11.717   6.219 -0.1386 -0.1861 -0.0940
30217ION     NA48421   9.726  10.627   6.256 -0.3651  0.0383  0.2225
30218ION     NA48422  11.394   9.454  13.446  0.2819 -0.2351 -0.1598
30219ION     NA48423  17.213   0.765   5.593 -0.1942  0.1452  0.1221
30220ION     NA48424  15.213   8.170   6.306  0.0502  0.2763  0.3346
30221ION     NA48425  13.422   0.926  12.563 -0.0278 -0.2047 -0.3616
30222ION     NA48426   3.208   1.151  11.428 -0.0834  0.0156 -0.3091
30223ION     NA48427   9.662   6.979  11.467 -0.1322  0.0471  0.2062
30224ION     NA48428  14.828   0.557  13.390 -0.1077 -0.0069  0.0564
30225ION     NA48429   2.356  14.076   6.247  0.1427  0.0911 -0.2117
30226ION     NA48430  16.975  15.011  17.406 -0.0498 -0.0680 -0.1365
30227ION     NA48431  15.802  10.862  12.405 -0.1058 -0.0359  0.0672
30228ION     NA48432  11.827   1.686  14.503  0.0475  0.0863  0.0745
30229ION     NA48433   5.631   9.012  11.263  0.0928 -0.1554  0.0270
30230ION     NA48434  10.474   3.490  10.971 -0.1871  0.5971 -0.2220
30231ION     NA48435   9.200   6.298  11.115  0.0321 -0.0236 -0.0889
30232ION     NA48436  15.243  11.233  11.782 -0.0842  0.0437 -0.2086
30233ION     NA48437   3.766  10.155   6.265  0.0646  0.4396  0.1374
30234ION     NA48438   7.399   3.531   5.934 -0.0841 -0.3691 -0.2946
30235ION     NA48439   4.453   5.297  11.031 -0.0614 -0.0851  0.0132
30236ION     NA48440   6.062   8.841  15.315  0.2621 -0.2093 -0.2401
30237ION     NA48441   1.948   0.337   5.985  0.1419 -0.1124  0.3337
30238ION     NA48442  12.498  12.889  12.653 -0.2334  0.1855 -0.0997
30239ION     NA48443  16.321   5.098   6.373  0.0740  0.0365 -0.1931
30240ION     NA48444  17.145   8.357   5.921  0.1460 -0.0325 -0.1455
30241ION     NA48445  12.960   0.925  11.680 -0.0497  0.1060  0.0052
30242ION     NA48446  11.024   8.217  12.876  0.0373 -0.0539 -0.0714
30243ION     NA48447   9.807  12.941  16.976  0.2345  0.0397  0.1144
30244ION     NA48448   0.646   0.129  11.506  0.1508 -0.1798 -0.1732
30245ION     NA48449   4.130  15.612   6.061 -0.0397 -0.0056  0.1873
30246ION     NA48450   1.008  15.937   2.243 -0.3777 -0.1806  0.3579
30247ION     NA48451  11.930   0.933  11.510 -0.1593  0.1495 -0.0795
30248ION     NA48452  15.667   6.670   6.272 -0.1359 -0.0485 -0.1139
30249ION     NA48453  15.772   6.363  12.959 -0.0616 -0.0151 -0.1337
30250ION     NA48454  11.139  12.183   6.412  0.1885  0.0083 -0.2930
30251ION     NA48455  15.625   7.322   3.990  0.2184 -0.0950 -0.2840
30252ION     NA48456   2.722   7.068   5.877 -0.0084 -0.0757  0.1290
30253ION     NA48457  11.415  17.097   6.270 -0.4281 -0.0437 -0.2049
30254ION     NA48458   9.264  15.131  15.329 -0.1651  0.2939  0.0078
30255ION     NA48459   0.481   2.348  11.501  0.1960  0.2937 -0.5126
30256ION     NA48460  13.970   1.471   6.208 -0.0645 -0.1510  0.1998
30257ION     NA48461   7.005  16.122  17.355  0.0136  0.1390  0.4483
30258ION     NA48462   1.689   2.471  11.668 -0.2816 -0.1989  0.1841
30259ION     NA48463   9.471  10.395  11.355  0.0232  0.2286  0.1898
30260ION     NA48464   5.823  13.077   5.735 -0.0318  0.0566 -0.1120
30261ION     NA48465   9.590   7.858   6.109 -0.3257 -0.2662  0.1745
30262ION     NA48466  15.210   5.758  11.552  0.1385 -0.0974  0.1559
30263ION     NA48467   9.068  14.844  17.140 -0.3064  0.1583 -0.1178
30264ION     NA48468  12.190   2.992  11.151 -0.4168  0.1135  0.2412
30265ION     NA48469   3.449   5.362  11.090 -0.2853 -0.2434  0.0891
30266ION     NA48470   6.525   2.525  11.391 -0.0732  0.4037  0.1649
30267ION     NA48471   6.136   7.265  11.854  0.0671 -0.0361 -0.1267
30268ION     NA48472   6.854   6.607   3.546 -0.0068  0.1742 -0.3407
30269ION     NA48473  15.739   6.618  11.512  0.2525 -0.0301  0.0208
30270ION     NA48474   3.565  10.723  11.450 -0.3322  0.0799 -0.0076
30271ION     NA48475   4.209  10.212  11.509  0.0552  0.0435 -0.0954
30272ION     NA48476  10.992   7.347   6.125  0.0158  0.0530 -0.0144
30273ION     NA48477  16.694  13.860   6.009  0.1444  0.1271 -0.0039
30274ION     NA48478  12.415   6.804   4.862  0.1403  0.0772  0.1056
30275ION     NA48479   6.532   8.234  11.195 -0.0878 -0.2968  0.1450
30276ION     NA48480  16.255  13.056  11.465 -0.1382  0.1727 -0.1959
30277ION     NA48481   7.304  11.090  13.871  0.0366 -0.0081 -0.1006
30278ION     NA48482   7.738   8.225   2.535  0.0613  0.0868  0.0528
30279ION     NA48483  12.870  13.074   5.980 -0.0187  0.0700 -0.0369
30280ION     NA48484   5.985  11.714  11.258 -0.3709 -0.1172 -0.2150
30281ION     NA48485   2.561  13.229  11.569 -0.0431  0.0768  0.0649
30282ION     NA48486  10.564  13.625   6.497 -0.1252  0.1274 -0.0591
30283ION     NA48487  10.521   6.873  11.101 -0.0236  0.2300  0.2511
30284ION     NA48488  14.605   2.353  13.630  0.1624  0.1459 -0.1596
30285ION     NA48489   8.719  10.017  13.433 -0.1025  0.1170 -0.1392
30286ION     NA48490  14.641   5.791   6.191  0.1105 -0.1256  0.1668
30287ION     NA48491  10.417   1.878  11.504 -0.0285 -0.1495 -0.0337
30288ION     NA48492  11.754   2.979  16.933 -0.2780 -0.1256 -0.0736
30289ION     NA48493  10.749   9.218  11.211  0.1999  0.1278 -0.0371
30290ION     NA48494   1.791   4.826  11.433 -0.2018 -0.1362 -0.2117
30291ION     NA48495   0.005   1.713  11.652  0.2536  0.0806  0.0647
30292ION     NA48496  13.210   8.181  11.549 -0.2523 -0.0183 -0.2849
30293ION     NA48497   1.728   3.541   4.865 -0.1783  0.1831 -0.1774
30294ION     NA48498   9.450  12.804  11.711 -0.0170  0.3457  0.1638
30295ION     NA48499  14.620   4.934  11.456  0.0387 -0.0180  0.2833
30296ION     NA48500   8.317   6.284  11.184  0.0664 -0.1788 -0.1824
30297ION     NA48501  15.127   9.857   5.886  0.0582  0.1929  0.1158
30298ION     NA48502  14.382   9.388   0.863 -0.1098 -0.1092  0.1808
30299ION     NA48503  11.118   0.316  15.827  0.1140 -0.0913  0.2648
30300ION     NA48504   2.261  11.383   6.512  0.0116 -0.1923  0.0528
30301ION     NA48505  11.469   7.768   6.084 -0.2282 -0.2127 -0.0913
30302ION     NA48506  12.785   2.236   6.173 -0.4003 -0.1682 -0.2864
30303ION     NA48507  13.580   7.606   6.390 -0.1330 -0.3513 -0.1022
30304ION     NA48508  15.447   4.180  11.468  0.3613 -0.0654  0.0994
30305ION     NA48509   1.014   0.547  11.649 -0.0384 -0.0457 -0.3077
30306ION     NA48510   1.120   7.984   3.325  0.0271 -0.3547  0.3541
30307ION     NA48511  13.757   9.273   6.246 -0.1687 -0.2140  0.2603
30308ION     NA48512  15.634  15.369  15.380  0.0328  0.0182 -0.1822
30309ION     NA48513   2.042  16.949  15.751 -0.1243  0.1202 -0.0649
30310ION     NA48514  12.051  13.970  11.798  0.1462 -0.2207  0.0159
30311ION     NA48515  14.401  14.503   6.492 -0.3794 -0.0854  0.1253
30312ION     NA48516  10.864   9.878  17.163  0.1364  0.2250  0.2943
30313ION     NA48517   8.521  11.678   6.165  0.3179 -0.1959 -0.3001
30314ION     NA48518   4.002   9.316  11.672 -0.0881 -0.0220  0.2400
30315ION     NA48519  15.398   9.537  11.856  0.3578 -0.0162  0.2663
30316ION     NA48520   8.546   2.281  11.994 -0.2077 -0.0315 -0.2641
30317ION     NA48521   9.463   0.871   2.806  0.0690  0.1722  0.4322
30318ION     NA48522   8.499   9.920   1.810  0.1318 -0.1412  0.0621
30319ION     NA48523   1.263  13.039  13.873 -0.0299  0.4642 -0.0611
30320ION     NA48524   3.988   7.190   6.105 -0.1489  0.0127  0.0283
30321ION     NA48525   9.043   5.787   5.986  0.0644 -0.2021  0.2424
30322ION     NA48526  13.339   4.150  11.665  0.3443 -0.4202 -0.1956
30323ION     NA48527   7.394  16.810   6.106  0.0381 -0.2359 -0.1342
30324ION     NA48528  15.946  16.201  11.601  0.0523  0.5406 -0.2040
30325ION     NA48529  12.889   7.220  11.371  0.0792 -0.2090  0.3426
30326ION     NA48530  11.252   1.503  11.173 -0.0289  0.1373  0.1691
30327ION     NA48531   3.186  15.844   6.093 -0.2675  0.2130 -0.0402
30328ION     NA48532   1.677  14.817   6.345 -0.1985  0.1373  0.0811
30329ION     NA48533   0.808   8.184   0.598  0.3043 -0.2221 -0.0333
30330ION     NA48534   1.083   1.388  11.595 -0.0744 -0.1465  0.2317
30331ION     NA48535   7.268  16.336  11.327  0.0388 -0.1297 -0.1505
30332ION     NA48536   0.455  12.721   6.273  0.1329  0.1872 -0.1332
30333ION     NA48537   4.572   0.490  11.296 -0.0643  0.1096 -0.0781
30334ION     NA48538  11.143   1.094   6.140 -0.1027  0.0458 -0.0049
30335ION     NA48539  16.315   1.186  11.694  0.0814  0.0215 -0.0940
30336ION     NA48540   2.516   0.453  11.262 -0.0483 -0.1547  0.1100
30337ION     NA48541   3.598   1.775  16.042  0.2352 -0.0724  0.1350
30338ION     NA48542  13.760   4.775  11.340  0.0356  0.0813  0.1148
30339ION     NA48543   4.206   6.141   5.993 -0.0898 -0.2158 -0.0118
30340ION     NA48544  12.085  10.175  11.366  0.1895 -0.0988 -0.2233
30341ION     NA48545  10.066   3.646   5.674 -0.1325 -0.1252 -0.2100
30342ION     NA48546  11.098  16.017  11.694  0.1350  0.1040 -0.0975
30343ION     NA48547   2.086   5.432   6.059  0.1360 -0.2599 -0.0475
30344ION     NA48548  16.280  14.846  13.108  0.0688  0.2272 -0.0195
30345ION     NA48549  14.759   4.670   4.545 -0.1033  0.1169 -0.0073
30346ION     NA48550  14.337  15.198  11.635 -0.0608  0.0090 -0.0899
30347ION     NA48551   3.186   5.971  11.754  0.0734  0.2821  0.1359
30348ION     NA48552   3.409   8.552   6.258 -0.2112  0.1514 -0.1671
30349ION     NA48553  12.828   4.700   0.975  0.3055 -0.2350  0.1108
30350ION     NA48554   9.855  12.413  11.538 -0.0952 -0.1420  0.1829
30351ION     NA48555   8.091   3.397  11.230 -0.0028  0.3438  0.2133
30352ION     NA48556   4.352   8.421   6.128 -0.2429  0.1654  0.0943
30353ION     NA48557  10.930   5.266   5.315  0.0012  0.0125  0.2258
30354ION     NA48558  12.436  14.850   6.171  0.2122  0.1443 -0.1579
30355ION     NA48559   7.054  14.266   5.675 -0.4278  0.2198  0.3519
30356ION     NA48560   7.319   1.993   5.994 -0.0887 -0.0501  0.1576
30357ION     NA48561  15.050  17.189  11.639  0.1635 -0.0157 -0.2235
30358ION     NA48562  15.399  13.584   2.704  0.0039 -0.1597 -0.1301
30359ION     NA48563   7.465  15.927   6.026  0.1334 -0.1307  0.0788
30360ION     NA48564  14.462  10.143  11.582  0.0913 -0.0685  0.0806
30361ION     NA48565   4.126   1.173  11.873  0.0684 -0.1353 -0.0570
30362ION     NA48566   2.172  11.752  11.907  0.0352  0.2842 -0.1549
30363ION     NA48567   8.194  12.159  11.538  0.1238 -0.0043 -0.3492
30364ION     NA48568  17.129   8.729   1.399 -0.0504 -0.2650 -0.2712
30365ION     NA48569   2.832  16.862   6.241  0.3224 -0.0164  0.4422
30366ION     NA48570   0.996   2.753  12.294  0.0241 -0.0780 -0.0413
30367ION     NA48571   3.467  13.378   2.825 -0.1133 -0.0794  0.0835
30368ION     NA48572  15.405   4.992  11.317 -0.1426  0.3027  0.0465
30369ION     NA48573  13.389  11.670  15.408 -0.2456  0.2518 -0.0940
30370ION     NA48574  14.167   4.178  11.142  0.1130  0.0356 -0.3467
30371ION     NA48575   3.759  11.751  14.162  0.0852 -0.1379  0.1193
30372ION     NA48576   3.549   4.293   6.073 -0.0551 -0.1782 -0.2474
30373ION     NA48577   0.459   2.327   6.079  0.0480  0.0971  0.2050
30374ION     NA48578  13.826   5.472   5.923  0.1256  0.0607 -0.0769
30375ION     NA48579  16.149   5.414  11.351 -0.1122  0.0249  0.1332
30376ION     NA48580  14.388   0.519   6.302 -0.0095  0.2815  0.2042
30377ION     NA48581   9.506   2.455   4.780 -0.1977 -0.0135  0.0741
30378ION     NA48582  17.217   6.640   1.533  0.0025 -0.0852 -0.1905
30379ION     NA48583   3.277   3.337  11.465  0.0032 -0.2157  0.1571
30380ION     NA48584  10.226   5.525   5.950  0.0800  0.1092  0.5340
30381ION     NA48585  13.877  11.196  11.735 -0.0936 -0.1119  0.0178
30382ION     NA48586   3.054   8.890  13.244 -0.1009 -0.1133  0.3589
30383ION     NA48587   0.584  10.666  11.656  0.0215  0.0979 -0.1050
30384ION     NA48588  10.918   6.001   5.992 -0.0591  0.2989  0.1765
30385ION     NA48589   4.638  13.673  11.601  0.1998 -0.0158  0.3566
30386ION     NA48590  12.226  12.740  11.502  0.0730  0.1552  0.2196
30387ION     NA48591   5.693  15.981   2.816 -0.3546 -0.0617  0.0284
30388ION     NA48592  11.573  15.517   5.586 -0.1004 -0.0890 -0.0674
30389ION     NA48593  10.448   7.406   3.248 -0.1737  0.0803 -0.0767
30390ION     NA48594  13.304  15.556  17.098 -0.0936 -0.0878 -0.1374
30391ION     NA48595  10.280  10.790  11.405 -0.1382 -0.2752 -0.1533
30392ION     NA48596  10.325  11.352   6.430  0.0300  0.0992 -0.2405
30393ION     NA48597   3.678   5.581   5.991 -0.1929  0.0043 -0.0137
30394ION     NA48598  12.570  10.432  11.283 -0.1235 -0.1746  0.2233
30395ION     NA48599   3.164  13.329  16.045 -0.2125 -0.3475  0.0257
30396ION     NA48600  15.790   7.525   6.275 -0.3251 -0.0061  0.0700
30397ION     NA48601  12.158  11.329   3.746 -0.2577  0.1504  0.2063
30398ION     NA48602   9.451   0.259  11.336  0.0457  0.1288 -0.1751
30399ION     NA48603  14.365  10.905   6.297  0.1064  0.1979 -0.0512
30400ION     NA48604  10.997  12.726  11.391 -0.0917 -0.0685  0.0536
30401ION     NA48605  17.292  13.195  11.554 -0.0476  0.1538 -0.1507
30402ION     NA48606   6.807   5.989  15.587 -0.0740 -0.1111  0.3128
30403ION     NA48607   9.766   4.695  12.602 -0.2978 -0.3028  0.0117
30404ION     NA48608  15.582   1.447   6.241  0.1237 -0.1189  0.1104
30405ION     NA48609   4.447  17.008   6.380 -0.2671  0.0044  0.0099
30406ION     NA48610   4.481   3.695   6.050  0.0306 -0.0958 -0.3499
30407ION     NA48611   2.982  15.420  11.549  0.2590  0.0583 -0.0031
30408ION     NA48612   1.986   1.040  11.634  0.0308 -0.1948 -0.0567
30409ION     NA48613  14.363  16.490  11.510  0.0456 -0.2675 -0.2979
30410ION     NA48614  12.985   6.793   6.208  0.2545 -0.1830  0.1662
30411ION     NA48615   1.176   9.794   6.177 -0.0608 -0.0216 -0.0722
30412ION     NA48616   1.284  14.083  11.403  0.1039  0.3673 -0.2232
30413ION     NA48617   2.642   1.957   6.166 -0.1033  0.0626  0.4179
30414ION     NA48618   5.502  11.109  11.526  0.0185  0.0068  0.2152
30415ION     NA48619   8.912   1.572   4.679  0.1224  0.2059 -0.0105
30416ION     NA48620   0.948   8.644  15.663 -0.2528 -0.4534 -0.1568
30417ION     NA48621   8.497  17.176  11.306  0.0873 -0.1968 -0.0410
30418ION     NA48622  13.152  16.608   6.426 -0.0498 -0.1400  0.4279
30419ION     NA48623  12.079   3.403   6.115  0.2290  0.0848 -0.0579
30420ION     NA48624  11.163   3.083   5.710  0.1780 -0.4519  0.3099
30421ION     NA48625   9.362   8.799   6.190  0.0533 -0.0767  0.2573
30422ION     NA48626   3.202  13.670   6.336  0.2797 -0.0094 -0.0146
30423ION     NA48627  15.156   3.143   6.081  0.2205 -0.3435 -0.1772
30424ION     NA48628  16.298   4.112  11.649  0.2325  0.0366  0.0054
30425ION     NA48629   9.379  15.766  11.462  0.1099 -0.1808 -0.1386
30426ION     NA48630   4.267   4.697   6.085  0.3111 -0.0461  0.3756
30427ION     NA48631   0.910   2.305   6.271  0.1320 -0.0874  0.1693
30428ION     NA48632   2.070  12.063   5.556  0.0003 -0.0091 -0.4738
30429ION     NA48633   6.435  14.970  15.673  0.0005 -0.0690 -0.0817
30430ION     NA48634  10.357  14.803  11.246  0.0737  0.0824  0.3433
30431ION     NA48635   8.079  15.422   4.546  0.0977  0.3311 -0.1037
30432ION     NA48636  16.225  15.114  17.453  0.1859 -0.1413 -0.1468
30433ION     NA48637   0.233   1.858   2.325 -0.0168 -0.0915 -0.2860
30434ION     NA48638   6.676   5.217  11.156 -0.1380 -0.3431  0.1071
30435ION     NA48639   6.703  13.466   5.759 -0.1560  0.0043 -0.0273
30436ION     NA48640   2.810  16.618  11.529  0.1928 -0.0470  0.0506
30437ION     NA48641   0.680   4.212   6.245  0.0891  0.1639  0.0643
30438ION     NA48642  16.645  10.775  12.106 -0.2723 -0.0511  0.1483
30439ION     NA48643   6.112  16.023   6.153  0.0508 -0.2838  0.0230
30440ION     NA48644   2.626   6.600  11.160  0.0208  0.0554 -0.1382
30441ION     NA48645   7.726  14.717  11.389  0.1442  0.0917  0.1699
30442ION     NA48646   6.405  13.763  11.655 -0.0145  0.0197  0.0401
30443ION     NA48647   2.347  16.939   6.012 -0.4107  0.2444  0.2013
30444ION     NA48648   3.748   8.878  11.490 -0.0671  0.2846  0.1606
30445ION     NA48649   7.401   6.548  12.786 -0.0056 -0.1276 -0.2498
30446ION     NA48650  10.411  17.106   6.142 -0.0730  0.2218 -0.1517
30447ION     NA48651   8.548  16.671   5.719 -0.0460  0.1046 -0.1272
30448ION     NA48652   7.935  14.115   2.483  0.0475 -0.0430 -0.0499
30449ION     NA48653   5.102  17.304  14.813 -0.1075 -0.0499  0.2438
30450ION     NA48654   6.361  10.861  11.645 -0.0120 -0.1401 -0.0721
30451ION     NA48655   2.718   1.695  14.382  0.3266 -0.3673 -0.3467
30452ION     NA48656   5.231   6.494   5.077  0.3009 -0.0287  0.3208
30453ION     NA48657   1.277  12.069  11.814  0.0070 -0.0569 -0.0166
30454ION     NA48658   7.722   6.969   3.776  0.0968  0.4316 -0.3667
30455ION     NA48659  14.336   2.440   6.313 -0.2455  0.0291  0.0052
30456ION     NA48660  14.682   8.916   6.365 -0.1162 -0.2079  0.1626
30457ION     NA48661   1.996   9.327  11.587 -0.1917  0.3576 -0.0106
30458ION     NA48662  11.184   4.791  11.131 -0.0967  0.1147 -0.1711
30459ION     NA48663   7.842   7.114   5.893 -0.3176  0.0396 -0.3036
30460ION     NA48664  15.110  12.072   1.311  0.2011  0.0099 -0.0749
30461ION     NA48665   5.451  12.373   6.341 -0.2472 -0.1150  0.1786
30462ION     NA48666   8.522  14.886  11.441  0.0302 -0.2356  0.2538
30463ION     NA48667   6.391  15.901  11.262  0.1015 -0.2293 -0.1273
30464ION     NA48668   7.773   2.893  12.389  0.1370 -0.2428  0.2602
30465ION     NA48669  16.100  12.604   6.372  0.2376 -0.0395  0.1281
30466ION     NA48670  14.720   7.229   4.984  0.2477  0.1195 -0.3870
30467ION     NA48671  10.246   0.522   6.088  0.0339 -0.0675  0.2544
30468ION     NA48672  10.891   8.301   6.471  0.3341 -0.1438  0.0548
30469ION     NA48673  14.524  12.452  11.630  0.1492  0.2070 -0.1776
30470ION     NA48674   6.877   9.934  11.435 -0.2059 -0.1637 -0.1631
30471ION     NA48675   4.043  16.795   2.524  0.0385  0.1872  0.0540
30472ION     NA48676  16.158  10.875   6.476  0.0085 -0.2161  0.4097
30473ION     NA48677  11.988  11.797   6.410  0.0758  0.4872  0.0713
30474ION     NA48678   9.482  14.781   6.440  0.0512 -0.0708  0.1132
30475ION     NA48679   5.281  10.883   6.378 -0.0871  0.0580 -0.0186
30476ION     NA48680  12.227   6.492  11.159  0.1616  0.4413 -0.0754
30477ION     NA48681   5.843   1.885  13.965 -0.0065  0.0595  0.0240
30478ION     NA48682  10.213  15.681  11.336 -0.1244  0.1927  0.3761
30479ION     NA48683   2.042  14.578  11.652  0.0190 -0.3707  0.0056
30480ION     NA48684   8.639   7.110   5.389  0.1369 -0.0313  0.1007
30481ION     NA48685   1.565   1.833   6.209 -0.1890 -0.1276 -0.3271
30482ION     NA48686  10.069   0.902  11.596 -0.0063 -0.0539 -0.0673
30483ION     NA48687   2.344   3.570  11.734  0.1316 -0.3196 -0.0323
30484ION     NA48688  14.622  14.373   3.331  0.4707 -0.1599 -0.0646
30485ION     NA48689   5.323  14.997  11.195  0.0264 -0.1576 -0.0600
30486ION     NA48690   8.475   0.280   5.850  0.2577 -0.0967 -0.0277
30487ION     NA48691   4.984   8.330  11.600  0.0609 -0.2392  0.2794
30488ION     NA48692   2.299  15.443   6.249 -0.2639  0.1487 -0.1285
30489ION     NA48693  10.108   7.153   6.170  0.0960 -0.0868 -0.0461
30490ION     NA48694   5.336  13.015  11.624  0.0825  0.0297  0.2948
30491ION     NA48695   6.531   9.445  14.036  0.1897 -0.0726  0.3932
30492ION     NA48696  16.077   8.426   6.211 -0.0659 -0.0507 -0.2985
30493ION     NA48697  12.882   4.760  11.026  0.1335 -0.0876  0.1473
30494ION     NA48698  16.964  14.662  11.592  0.0406  0.0621 -0.1817
30495ION     NA48699   5.471   8.553   5.753  0.2447 -0.0613  0.4633
30496ION     NA48700   0.277   7.542   6.250  0.1563 -0.0578  0.0855
30497ION     NA48701   3.550   8.843  15.455 -0.0433  0.0048  0.1709
30498ION     NA48702   5.160  16.590   2.581  0.0094  0.0672 -0.1700
30499ION     NA48703   7.963  14.096  14.151  0.0776 -0.1071 -0.0311
30500ION     NA48704  12.613  15.280  11.449 -0.2410 -0.0902  0.1228
30501ION     NA48705  13.510   5.866  11.422 -0.1391  0.2401 -0.1343
30502ION     NA48706  14.412   7.844   6.215 -0.0323  0.1184 -0.0515
30503ION     NA48707   4.403  15.507  16.634 -0.0619 -0.0521  0.3673
30504ION     NA48708   8.632  16.183  12.142 -0.2464 -0.0230  0.0234
30505ION     NA48709   9.071  11.922  11.568 -0.0327  0.0971  0.1071
30506ION     NA48710  13.631  11.399   6.334 -0.1651  0.0757 -0.2220
30507ION     NA48711   6.219   4.791   6.055  0.1216 -0.0207  0.1582
30508ION     NA48712   0.397  12.490  11.670  0.0538 -0.0579 -0.0600
30509ION     NA48713   5.772  16.465   6.171  0.2762  0.2270  0.0165
30510ION     NA48714   1.605   3.062  11.616 -0.0970 -0.1697  0.1404
30511ION     NA48715  13.512  12.898  11.670 -0.0646 -0.0396 -0.0174
30512ION     NA48716  14.539   3.734   6.016  0.1851  0.0827 -0.1026
30513ION     NA48717   6.448  14.883   5.659  0.1425  0.0157  0.0240
30514ION     NA48718  13.393  12.398   6.507 -0.0198  0.0591 -0.1437
30515ION     NA48719   0.949   0.493   6.345  0.2497 -0.0353  0.1296
30516ION     NA48720  13.570  13.942  11.566  0.2052  0.0503 -0.2941
30517ION     NA48721   7.961   0.476  11.083 -0.3152  0.0717 -0.1542
30518ION     NA48722   9.684  10.767  14.640 -0.1882 -0.0791  0.0396
30519ION     NA48723  10.161   2.581  11.158 -0.0340  0.0312  0.1294
30520ION     NA48724   3.268  13.780   1.728  0.3537 -0.2212 -0.3165
30521ION     NA48725   4.462  15.809  14.255  0.2856  0.2016  0.0740
30522ION     NA48726   8.634   9.059  11.226  0.0414  0.0873  0.0405
30523ION     NA48727  11.892   7.797  15.034 -0.0736 -0.2201  0.0954
30524ION     NA48728   7.326  12.917  16.872 -0.0947  0.0569 -0.0830
30525ION     NA48729  13.838   9.634  11.477  0.1800 -0.1495 -0.0970
30526ION     NA48730   3.762  12.719  11.582  0.1598  0.1701 -0.0150
30527ION     NA48731  15.260  15.270  13.032 -0.0918  0.1456  0.1261
30528ION     NA48732   0.117  11.805  11.639 -0.2867  0.2429  0.0534
30529ION     NA48733   2.693   3.958  11.609  0.0264  0.0124  0.0623
30530ION     NA48734   1.200   4.864  11.390 -0.0050 -0.1195  0.0047
30531ION     NA48735   8.947   4.435   5.863 -0.0157  0.1038  0.0683
30532ION     NA48736  11.885  13.283   6.169  0.0984 -0.0780  0.1315
30533ION     NA48737  13.471   0.233  11.536  0.0296 -0.1676 -0.1282
30534ION     NA48738   2.013  10.853  11.772  0.2192  0.3001 -0.1096
30535ION     NA48739   7.405   1.148   6.150  0.2874  0.2164 -0.1430
30536ION     NA48740  10.307   9.870  11.309 -0.0412 -0.2222 -0.2326
30537ION     NA48741   3.838  15.013  11.593 -0.3211 -0.1539  0.0649
30538ION     NA48742   4.469  11.061  11.583  0.4961 -0.3864  0.0086
30539ION     NA48743  14.899  14.961  16.896  0.0740  0.1303 -0.1870
30540ION     NA48744  17.119  17.097  11.443 -0.2628 -0.0331 -0.1541
30541ION     NA48745  11.499  14.616   6.274  0.0828  0.0002 -0.0524
30542ION     NA48746  16.203  12.309   2.488  0.1959  0.2731 -0.1670
30543ION     NA48747  15.417   4.441   6.299  0.3063  0.0160 -0.2798
30544ION     NA48748   2.700   4.630   6.163  0.0182  0.1251  0.0537
30545ION     NA48749   8.100  15.103  14.695  0.1260  0.5202  0.1166
30546ION     NA48750   8.928   3.517  11.115 -0.0137  0.1360  0.0651
30547ION     NA48751  12.843  11.946   3.175  0.0385 -0.0982  0.0578
30548ION     NA48752   4.493  10.879  13.543 -0.0255  0.1396 -0.0315
30549ION     NA48753   2.600  10.292  11.590 -0.3071  0.0361  0.0174
30550ION     NA48754   3.645  14.210   5.039  0.1378 -0.1888 -0.0189
30551ION     NA48755   3.985   6.793  15.634  0.1287  0.1334  0.0335
30552ION     NA48756   9.585   0.960   1.384 -0.0314 -0.4320 -0.4294
30553ION     NA48757  10.439   2.623   5.940  0.1913  0.3066 -0.0787
30554ION     NA48758   3.634   4.254  11.313  0.2969  0.1253 -0.2370
30555ION     NA48759   6.225   5.822   1.783  0.1924 -0.0303  0.0697
30556ION     NA48760  11.802   8.216  11.303  0.0683 -0.0177 -0.1342
30557ION     NA48761   5.265   3.053   6.011  0.0986  0.3518  0.1523
30558ION     NA48762   1.065   3.080  11.572 -0.0479 -0.0055 -0.1186
30559ION     NA48763   1.665   2.362   5.256  0.1174  0.1842 -0.0435
30560ION     NA48764   7.070  15.245  11.587 -0.2960  0.2436  0.0419
30561ION     NA48765   8.889  11.015  11.389  0.1890  0.1450 -0.0452
30562ION     NA48766  12.983  15.554   6.359 -0.0594  0.0681  0.1824
30563ION     NA48767  11.698   9.097   6.151 -0.0575  0.2280 -0.0214
30564ION     NA48768   8.991  13.962   0.682 -0.1401  0.2045 -0.1685
30565ION     NA48769   6.757   6.617  14.611  0.1397 -0.1891  0.1062
30566ION     NA48770   7.790   6.281   6.064 -0.0970 -0.1994  0.1150
30567ION     NA48771  13.397   0.174   6.371 -0.0309 -0.0343  0.1287
30568ION     NA48772   3.143  14.511  11.790 -0.3353  0.0875  0.1061
30569ION     NA48773   1.045   9.009   6.311  0.1123 -0.1690 -0.0088
30570ION     NA48774   1.419  12.595   1.871 -0.3280 -0.1673 -0.1292
30571ION     NA48775  10.755  16.500  11.459  0.1381 -0.3173  0.2786
30572ION     NA48776   3.877  11.887  11.937 -0.2375  0.0876 -0.4392
30573ION     NA48777  10.903  10.580   6.334  0.1958  0.1388  0.1164
30574ION     NA48778   0.001  16.537   3.109  0.1829 -0.0849 -0.0638
30575ION     NA48779  10.091  12.221   6.471  0.0563  0.0274  0.4188
30576ION     NA48780  12.004  15.308   6.418 -0.2144 -0.1098  0.1214
30577ION     NA48781   1.482   1.105   0.616 -0.4933  0.1293  0.1518
30578ION     NA48782   5.609   7.220   6.102 -0.1681  0.0632 -0.1423
30579ION     NA48783  12.356  15.376  15.108 -0.2189 -0.1687 -0.0278
30580ION     NA48784  13.429   0.085   5.501 -0.2801  0.2378 -0.1452
30581ION     NA48785   8.102   2.744   5.870 -0.1541 -0.0743  0.3433
30582ION     NA48786  14.991  10.044   6.368  0.0748 -0.0921  0.0433
30583ION     NA48787   5.453  10.439  11.446  0.2592  0.1160  0.0055
30584ION     NA48788   1.205   6.592   0.184  0.2548 -0.0411  0.0299
30585ION     NA48789  16.197   8.012  11.383  0.1178  0.1369 -0.2035
30586ION     NA48790  15.572   0.246  13.091 -0.1083 -0.0655  0.1450
30587ION     NA48791   7.931   8.556  10.995 -0.0616 -0.1576  0.1004
30588ION     NA48792  14.730   2.585  11.717  0.1397 -0.2457  0.2913
30589ION     NA48793   1.691   2.797   6.238 -0.0473  0.2029 -0.2651
30590ION     NA48794   6.328   1.606  11.049  0.1674 -0.0211  0.0331
30591ION     NA48795   6.067   4.575  16.764 -0.1251  0.1685 -0.0216
30592ION     NA48796   2.076   4.111   6.287 -0.2365  0.0833  0.2655
30593ION     NA48797  15.040   7.256   6.177 -0.0067  0.3382  0.1190
30594ION     NA48798   7.897   9.987   5.992 -0.2177  0.2887 -0.0581
30595ION     NA48799   2.974   8.324  11.321 -0.5220 -0.0583  0.1407
30596ION     NA48800   8.262  14.154   6.132 -0.2027  0.0952  0.1042
30597ION     NA48801  12.245   5.698  12.694 -0.0418 -0.1942 -0.0005
30598ION     NA48802  12.240   2.409   3.254  0.1646 -0.1122  0.0618
30599ION     NA48803  13.148   6.945  14.038 -0.0720  0.1022  0.0710
30600ION     NA48804   8.169  15.577   6.216 -0.1249 -0.0515  0.0331
30601ION     NA48805  15.692   8.981  16.198  0.2146 -0.0191  0.0838
30602ION     NA48806  14.150   5.545  11.347 -0.2425  0.0161 -0.0106
30603ION     NA48807  15.920   5.108  16.681 -0.2418 -0.1033 -0.4425
30604ION     NA48808   0.861   3.349   6.227 -0.2814 -0.0858  0.0379
30605ION     NA48809   3.999  13.053   0.183 -0.4001 -0.1929  0.0778
30606ION     NA48810  12.504  13.855   6.206 -0.0378  0.1842  0.1708
30607ION     NA48811  16.090  13.884  13.041  0.2541 -0.0515 -0.0075
30608ION     NA48812   1.485   0.516   3.164 -0.2578 -0.0269 -0.0183
30609ION     NA48813   3.947  11.409   6.365 -0.0631 -0.0852  0.2796
30610ION     NA48814   6.169   3.354   5.923  0.0990  0.1536  0.4782
30611ION     NA48815  16.549   4.639   6.332 -0.0724  0.0439  0.0108
30612ION     NA48816   8.451  12.571   6.421  0.2586  0.0827 -0.0740
30613ION     NA48817  12.922   9.867   6.181 -0.2176  0.0456 -0.2146
30614ION     NA48818  17.119   5.593  11.567  0.0349  0.3930 -0.0546
30615ION     NA48819  16.856  16.950  17.195  0.1010 -0.1732  0.3004
30616ION     NA48820  16.590   6.687   6.068  0.1149 -0.1711  0.1416
30617ION     NA48821   5.859  17.206  11.294 -0.1939 -0.1359  0.1090
30618ION     NA48822   4.522  11.956   6.243  0.2802 -0.1385 -0.2239
30619ION     NA48823   0.634   0.816  12.846  0.1568 -0.0169 -0.2230
30620ION     NA48824   3.532   2.010   6.178  0.3310  0.1131 -0.3845
30621ION     NA48825   7.219  12.891   5.988 -0.1844 -0.2342 -0.1679
30622ION     NA48826   5.893   6.776  11.071  0.1925  0.2357 -0.0398
30623ION     NA48827   4.843   6.932   5.846 -0.0350 -0.0088  0.0045
30624ION     NA48828  16.996  12.389   6.412 -0.0802  0.0241 -0.0123
30625ION     NA48829   8.256   4.200  11.272  0.1338  0.1393  0.1047
30626ION     NA48830   6.752  16.617   6.195 -0.1332  0.0283  0.2736
30627ION     NA48831   0.318  10.910   6.388  0.4245  0.0899  0.1300
30628ION     NA48832   0.821   6.667  11.607 -0.2083  0.1837 -0.0575
30629ION     NA48833  11.462   3.103  11.003 -0.1367  0.2501 -0.3760
30630ION     NA48834   1.999   3.785  12.620  0.0095 -0.1698 -0.0444
30631ION     NA48835   7.329  13.910  11.377  0.1497 -0.0662  0.0651
30632ION     NA48836  15.733  11.841   6.455  0.0619  0.0433  0.1137
30633ION     NA48837   6.667  17.278  11.428 -0.1249  0.2609  0.3034
30634ION     NA48838   9.499   7.618  11.589 -0.0478 -0.0250  0.1780
30635ION     NA48839  15.348  11.724  11.644 -0.1522 -0.1005 -0.1094
30636ION     NA48840  13.746   1.700  11.988 -0.0168  0.2608 -0.1122
30637ION     NA48841  15.751  13.787  11.698 -0.1128  0.2935  0.0930
30638ION     NA48842   6.111  14.104   5.720 -0.1287  0.0263  0.2080
30639ION     NA48843  17.160   7.003  11.398 -0.1633 -0.1683 -0.1360
30640ION     NA48844   4.992   6.989   1.365 -0.1141 -0.0450 -0.2139
30641ION     NA48845   3.118  11.421  11.683  0.0700 -0.0092 -0.2114
30642ION     NA48846   9.337   9.573  11.279 -0.0776  0.0274 -0.0034
30643ION     NA48847   3.509   6.630   5.861  0.2232 -0.2390 -0.0337
30644ION     NA48848  17.239   9.187  11.503 -0.1247  0.0395 -0.0754
30645ION     NA48849   4.584  16.420  11.244  0.1876 -0.0211  0.0843
30646ION     NA48850  10.776  13.549  11.285 -0.1138 -0.2215  0.0340
30647ION     NA48851  14.232   6.798   6.102  0.1205  0.1655  0.0267
30648ION     NA48852   2.150  15.960  11.419  0.1616  0.0779  0.1831
30649ION     NA48853   8.683  16.650   6.206 -0.1106  0.3197  0.2606
30650ION     NA48854  11.981   0.561   3.594  0.3588 -0.0746 -0.0288
  17.30447  17.30447  17.51205
